
    -----------------------------------------------------------------------
          Psi4: An Open-Source Ab Initio Electronic Structure Package
                               Psi4 1.3.2 release

                         Git: Rev {HEAD} ecbda83 


    R. M. Parrish, L. A. Burns, D. G. A. Smith, A. C. Simmonett,
    A. E. DePrince III, E. G. Hohenstein, U. Bozkaya, A. Yu. Sokolov,
    R. Di Remigio, R. M. Richard, J. F. Gonthier, A. M. James,
    H. R. McAlexander, A. Kumar, M. Saitow, X. Wang, B. P. Pritchard,
    P. Verma, H. F. Schaefer III, K. Patkowski, R. A. King, E. F. Valeev,
    F. A. Evangelista, J. M. Turney, T. D. Crawford, and C. D. Sherrill,
    J. Chem. Theory Comput. 13(7) pp 3185--3197 (2017).
    (doi: 10.1021/acs.jctc.7b00174)


                         Additional Contributions by
    P. Kraus, H. Kruse, M. H. Lechner, M. C. Schieber, R. A. Shaw,
    A. Alenaizan, R. Galvelis, Z. L. Glick, S. Lehtola, and J. P. Misiewicz

    -----------------------------------------------------------------------


    Psi4 started on: Friday, 23 April 2021 09:21AM

    Process ID: 235044
    Host:       bp1-compute00135.data.bp.acrc.priv
    PSIDATADIR: /work/zw18965/.conda/envs/p4env/share/psi4
    Memory:     500.0 MiB
    Threads:    24
    
  ==> Input File <==

--------------------------------------------------------------------------
memory 144 GB

molecule {
0 1
H 0.0000000000 0.0000000000 0.0000000000
C 0.0000000000 0.0000000000 1.0879000000
H 1.0256819563 0.0000000000 1.4505333333
H -0.5128409782 0.8882666304 1.4505333333
H -0.5128409782 -0.8882666304 1.4505333333
}

set basis aug-cc-pV(Q+d)Z

frequencies("wB97X-V")
optimize("wB97X-V")
frequencies("wB97X-V")
--------------------------------------------------------------------------

  Memory set to 134.110 GiB by Python driver.
gradient() will perform gradient computation by finite difference of analytic energies.

         ----------------------------------------------------------
                                   FINDIF
                     R. A. King and Jonathon Misiewicz
         ---------------------------------------------------------

  Using finite-differences of energies to determine gradients.
    Generating geometries for use with 3-point formula.
    Displacement size will be 5.00e-03.
    Number of atoms is 5.
    Number of symmetric SALCs is 4.
    Translations projected? 1. Rotations projected? 1.
    Number of geometries (including reference) is 9.

  //>>>>>>>>>>>>>>>>>>>>>>>>>>>>>>>>>>>//
  //    Loading displacement 1 of 9    //
  //<<<<<<<<<<<<<<<<<<<<<<<<<<<<<<<<<<<//

*** tstart() called on bp1-compute00135.data.bp.acrc.priv
*** at Fri Apr 23 09:21:13 2021

   => Loading Basis Set <=

    Name: AUG-CC-PV(Q+D)Z
    Role: ORBITAL
    Keyword: BASIS
    atoms 1, 3-5 entry H          line    56 file /work/zw18965/.conda/envs/p4env/share/psi4/basis/aug-cc-pv_qpd_z.gbs 
    atoms 2      entry C          line   319 file /work/zw18965/.conda/envs/p4env/share/psi4/basis/aug-cc-pv_qpd_z.gbs 


         ---------------------------------------------------------
                                   SCF
               by Justin Turney, Rob Parrish, Andy Simmonett
                          and Daniel G. A. Smith
                              RKS Reference
                       24 Threads, 137329 MiB Core
         ---------------------------------------------------------

  ==> Geometry <==

    Molecular point group: c2v
    Full point group: Td

    Geometry (in Angstrom), charge = 0, multiplicity = 1:

       Center              X                  Y                   Z               Mass       
    ------------   -----------------  -----------------  -----------------  -----------------
         H           -0.000000000000     0.888266630384    -0.628099357864     1.007825032230
         C           -0.000000000000    -0.000000000000     0.000000000006    12.000000000000
         H            0.888266630391     0.000000000000     0.628099357827     1.007825032230
         H           -0.888266630391    -0.000000000000     0.628099357827     1.007825032230
         H            0.000000000000    -0.888266630384    -0.628099357864     1.007825032230

  Running in c2v symmetry.

  Rotational constants: A =      5.29986  B =      5.29986  C =      5.29986 [cm^-1]
  Rotational constants: A = 158885.90516  B = 158885.90516  C = 158885.90516 [MHz]
  Nuclear repulsion =   13.461323909034325

  Charge       = 0
  Multiplicity = 1
  Electrons    = 10
  Nalpha       = 5
  Nbeta        = 5

  ==> Algorithm <==

  SCF Algorithm Type is DF.
  DIIS enabled.
  MOM disabled.
  Fractional occupation disabled.
  Guess Type is SAD.
  Energy threshold   = 1.00e-08
  Density threshold  = 1.00e-08
  Integral threshold = 0.00e+00

  ==> Primary Basis <==

  Basis Set: AUG-CC-PV(Q+D)Z
    Blend: AUG-CC-PV(Q+D)Z
    Number of shells: 76
    Number of basis function: 264
    Number of Cartesian functions: 325
    Spherical Harmonics?: true
    Max angular momentum: 4

Warning: Molecule has a spherically-symmetric moment of charge but lacks icosahedral, octahedral, and tetrahedral symmetry.  ==> DFT Potential <==

   => Composite Functional: WB97X-V <= 

    wB97X-V Hyb-GGA Exchange-Correlation Functional

    N. Mardirossian and M. Head-Gordon, Phys. Chem. Chem. Phys. 16, 9904 (2014)

    Deriv               =              1
    GGA                 =           TRUE
    Meta                =          FALSE

    Exchange Hybrid     =           TRUE
    MP2 Hybrid          =          FALSE

   => Exchange-Correlation Functionals <=

    1.0000   wB97X-V range-separated functional

   => Exact (HF) Exchange <=

    0.8330            HF,LR [omega = 0.3000]
    0.1670               HF 

   => VV10 Non-Local Parameters <=

    VV10 B              =     6.0000E+00
    VV10 C              =     1.0000E-02

   => Molecular Quadrature <=

    Radial Scheme          =       TREUTLER
    Pruning Scheme         =           FLAT
    Nuclear Scheme         =       TREUTLER

    BS radius alpha        =              1
    Pruning alpha          =              1
    Radial Points          =             75
    Spherical Points       =            302
    Total Points           =         113250
    Total Blocks           =            946
    Max Points             =            256
    Max Functions          =            264

   => Loading Basis Set <=

    Name: (AUG-CC-PV(Q+D)Z AUX)
    Role: JKFIT
    Keyword: DF_BASIS_SCF
    atoms 1, 3-5 entry H          line    70 file /work/zw18965/.conda/envs/p4env/share/psi4/basis/aug-cc-pvqz-jkfit.gbs 
    atoms 2      entry C          line   178 file /work/zw18965/.conda/envs/p4env/share/psi4/basis/aug-cc-pvqz-jkfit.gbs 

  ==> Pre-Iterations <==

   -------------------------------------------------------
    Irrep   Nso     Nmo     Nalpha   Nbeta   Ndocc  Nsocc
   -------------------------------------------------------
     A1        91      91       0       0       0       0
     A2        43      43       0       0       0       0
     B1        65      65       0       0       0       0
     B2        65      65       0       0       0       0
   -------------------------------------------------------
    Total     264     264       5       5       5       0
   -------------------------------------------------------

  ==> Integral Setup <==

  ==> DiskDFJK: Density-Fitted J/K Matrices <==

    J tasked:                  Yes
    K tasked:                  Yes
    wK tasked:                 Yes
    Omega:               3.000E-01
    OpenMP threads:             24
    Integrals threads:          24
    Memory [MiB]:           102171
    Algorithm:                Core
    Integral Cache:           NONE
    Schwarz Cutoff:          1E-12
    Fitting Condition:       1E-10

   => Auxiliary Basis Set <=

  Basis Set: (AUG-CC-PV(Q+D)Z AUX)
    Blend: AUG-CC-PVQZ-JKFIT
    Number of shells: 106
    Number of basis function: 446
    Number of Cartesian functions: 602
    Spherical Harmonics?: true
    Max angular momentum: 5

  Cached 100.0% of DFT collocation blocks in 0.806 [GiB].

  Minimum eigenvalue in the overlap matrix is 1.9155132816E-05.
  Using Symmetric Orthogonalization.

  SCF Guess: Superposition of Atomic Densities via on-the-fly atomic UHF.

  ==> Iterations <==

                           Total Energy        Delta E     RMS |[F,P]|

Warning: Molecule has a spherically-symmetric moment of charge but lacks icosahedral, octahedral, and tetrahedral symmetry.   @DF-RKS iter SAD:   -39.95524261741543   -3.99552e+01   0.00000e+00 
Warning: Molecule has a spherically-symmetric moment of charge but lacks icosahedral, octahedral, and tetrahedral symmetry.   @DF-RKS iter   1:   -40.38905844061966   -4.33816e-01   3.83391e-03 DIIS
Warning: Molecule has a spherically-symmetric moment of charge but lacks icosahedral, octahedral, and tetrahedral symmetry.   @DF-RKS iter   2:   -40.46105410820347   -7.19957e-02   2.54675e-03 DIIS
Warning: Molecule has a spherically-symmetric moment of charge but lacks icosahedral, octahedral, and tetrahedral symmetry.   @DF-RKS iter   3:   -40.51836199062795   -5.73079e-02   1.08649e-04 DIIS
Warning: Molecule has a spherically-symmetric moment of charge but lacks icosahedral, octahedral, and tetrahedral symmetry.   @DF-RKS iter   4:   -40.51863751288028   -2.75522e-04   1.99857e-05 DIIS
Warning: Molecule has a spherically-symmetric moment of charge but lacks icosahedral, octahedral, and tetrahedral symmetry.   @DF-RKS iter   5:   -40.51864735245865   -9.83958e-06   2.17103e-06 DIIS
Warning: Molecule has a spherically-symmetric moment of charge but lacks icosahedral, octahedral, and tetrahedral symmetry.   @DF-RKS iter   6:   -40.51864748377737   -1.31319e-07   2.51926e-07 DIIS
Warning: Molecule has a spherically-symmetric moment of charge but lacks icosahedral, octahedral, and tetrahedral symmetry.   @DF-RKS iter   7:   -40.51864748531263   -1.53526e-09   1.64792e-08 DIIS
Warning: Molecule has a spherically-symmetric moment of charge but lacks icosahedral, octahedral, and tetrahedral symmetry.   @DF-RKS iter   8:   -40.51864748531852   -5.89040e-12   1.49744e-09 DIIS
  Energy and wave function converged.


  ==> Post-Iterations <==

    Orbital Energies [Eh]
    ---------------------

    Doubly Occupied:                                                      

       1A1   -10.247389     2A1    -0.823562     3A1    -0.499233  
       1B2    -0.499232     1B1    -0.499232  

    Virtual:                                                              

       4A1     0.029532     2B1     0.049085     2B2     0.049085  
       5A1     0.049095     6A1     0.108237     3B1     0.108237  
       3B2     0.108237     7A1     0.117787     4B1     0.176275  
       4B2     0.176275     8A1     0.176278     1A2     0.199975  
       9A1     0.199976    10A1     0.262248     5B2     0.262250  
       5B1     0.262250    11A1     0.264798     6B2     0.280655  
       6B1     0.280655     2A2     0.280655     7B2     0.292066  
       7B1     0.292066    12A1     0.292071    13A1     0.316253  
       8B2     0.355384     8B1     0.355384    14A1     0.355385  
       3A2     0.393460    15A1     0.393461    16A1     0.521482  
       4A2     0.521485     9B1     0.525538     9B2     0.525538  
      17A1     0.525539    18A1     0.564592    10B1     0.659033  
      10B2     0.659033     5A2     0.659035    11B2     0.672818  
      11B1     0.672818    19A1     0.672818    20A1     0.704928  
      12B1     0.704929    12B2     0.704929    21A1     0.714960  
      13B2     0.736216    13B1     0.736216    22A1     0.736216  
      14B1     0.782814    14B2     0.782814     6A2     0.782816  
      23A1     0.858254    15B2     0.872124    15B1     0.872124  
      24A1     0.872125     7A2     0.889640    25A1     0.889641  
      26A1     0.936841     8A2     0.936843    27A1     1.040364  
       9A2     1.046214    16B1     1.046218    16B2     1.046218  
      28A1     1.095641    17B2     1.095647    17B1     1.095647  
      29A1     1.180515    18B2     1.180516    18B1     1.180516  
      10A2     1.308275    19B2     1.308281    19B1     1.308281  
      20B2     1.405082    20B1     1.405082    30A1     1.405083  
      31A1     1.447370    32A1     1.498505    21B2     1.498512  
      21B1     1.498512    33A1     1.598187    11A2     1.598189  
      22B1     1.749542    22B2     1.749542    34A1     1.749543  
      23B2     1.802126    23B1     1.802126    12A2     1.802130  
      35A1     1.814159    13A2     1.831679    36A1     1.831679  
      37A1     1.862267    24B1     1.862271    24B2     1.862271  
      38A1     1.896761    14A2     1.913235    39A1     1.913242  
      15A2     1.941443    25B2     1.941450    25B1     1.941450  
      26B1     2.014424    26B2     2.014424    40A1     2.014427  
      16A2     2.029611    27B1     2.029613    27B2     2.029613  
      41A1     2.080951    17A2     2.105238    42A1     2.151935  
      28B2     2.151942    28B1     2.151942    43A1     2.197120  
      29B2     2.197120    29B1     2.197120    44A1     2.306990  
      30B2     2.306996    30B1     2.306996    18A2     2.553837  
      31B1     2.553838    31B2     2.553838    45A1     2.578211  
      19A2     2.578224    32B2     2.665989    32B1     2.665989  
      46A1     2.665997    20A2     2.681160    33B1     2.681167  
      33B2     2.681167    47A1     2.682757    34B1     2.887883  
      34B2     2.887883    48A1     2.887900    21A2     2.890962  
      49A1     2.890973    50A1     3.024340    35B2     3.024345  
      35B1     3.024345    51A1     3.063794    52A1     3.223458  
      22A2     3.223460    23A2     3.542212    36B1     3.542222  
      36B2     3.542222    53A1     3.549919    37B1     3.549928  
      37B2     3.549928    54A1     3.700376    38B1     3.751878  
      38B2     3.751878    24A2     3.751879    55A1     3.853612  
      39B1     3.853612    39B2     3.853612    56A1     3.928982  
      40B2     3.928986    40B1     3.928986    57A1     4.002039  
      25A2     4.086541    58A1     4.086547    59A1     4.128142  
      41B2     4.128144    41B1     4.128144    60A1     4.170083  
      26A2     4.170120    61A1     4.532969    42B1     4.533001  
      42B2     4.533001    43B2     4.749854    43B1     4.749854  
      27A2     4.749857    62A1     4.918723    63A1     5.845423  
      28A2     5.845425    64A1     5.890475    44B2     5.890490  
      44B1     5.890490    29A2     5.990753    45B2     5.990757  
      45B1     5.990757    65A1     6.263638    30A2     6.526033  
      31A2     6.561787    46B2     6.561787    46B1     6.561787  
      66A1     6.631364    47B1     6.631378    47B2     6.631378  
      32A2     6.679030    48B1     6.679031    48B2     6.679031  
      49B2     6.738722    49B1     6.738722    67A1     6.738725  
      68A1     6.957675    50B2     6.957676    50B1     6.957676  
      69A1     7.092803    70A1     7.273055    51B1     7.273061  
      51B2     7.273061    71A1     7.287214    72A1     7.487274  
      33A2     7.487277    73A1     7.623060    52B1     7.623073  
      52B2     7.623073    34A2     7.635132    53B2     7.635132  
      53B1     7.635132    74A1     7.791442    35A2     7.791445  
      75A1     8.225108    54B2     8.225116    54B1     8.225116  
      76A1     8.262809    77A1     8.340521    36A2     8.340528  
      78A1     8.390948    55B2     8.390963    55B1     8.390963  
      37A2     8.866932    56B2     8.866934    56B1     8.866934  
      57B2     8.926770    57B1     8.926770    79A1     8.926773  
      38A2     9.010343    58B1     9.010360    58B2     9.010360  
      59B2     9.136130    59B1     9.136130    80A1     9.136138  
      39A2     9.353473    81A1     9.353473    82A1     9.435243  
      83A1     9.681696    40A2     9.681733    41A2     9.759322  
      60B2     9.759322    60B1     9.759322    84A1     9.974016  
      61B2     9.974054    61B1     9.974054    85A1    10.017617  
      42A2    10.017639    86A1    10.275213    62B2    10.275235  
      62B1    10.275235    87A1    10.581128    88A1    10.666748  
      63B1    10.666764    63B2    10.666764    43A2    11.200313  
      64B2    11.200316    64B1    11.200316    89A1    12.781178  
      65B2    12.781178    65B1    12.781178    90A1    13.452119  
      91A1    28.598168  

    Final Occupation by Irrep:
             A1    A2    B1    B2 
    DOCC [     3,    0,    1,    1 ]

  @DF-RKS Final Energy:   -40.51864748531852

   => Energetics <=

    Nuclear Repulsion Energy =             13.4613239090343253
    One-Electron Energy =                 -79.8754293046318082
    Two-Electron Energy =                  30.4033683062531388
    DFT Exchange-Correlation Energy =      -4.5492753389990277
    Empirical Dispersion Energy =           0.0000000000000000
    VV10 Nonlocal Energy =                  0.0413649430248638
    Total Energy =                        -40.5186474853185032

Computation Completed


Properties will be evaluated at   0.000000,   0.000000,   0.000000 [a0]

Properties computed using the SCF density matrix

  Nuclear Dipole Moment: [e a0]
     X:     0.0000      Y:     0.0000      Z:    -0.0000

  Electronic Dipole Moment: [e a0]
     X:     0.0000      Y:     0.0000      Z:     0.0000

  Dipole Moment: [e a0]
     X:     0.0000      Y:     0.0000      Z:     0.0000     Total:     0.0000

  Dipole Moment: [D]
     X:     0.0000      Y:     0.0000      Z:     0.0000     Total:     0.0000


*** tstop() called on bp1-compute00135.data.bp.acrc.priv at Fri Apr 23 09:21:21 2021
Module time:
	user time   =     150.64 seconds =       2.51 minutes
	system time =       7.95 seconds =       0.13 minutes
	total time  =          8 seconds =       0.13 minutes
Total time:
	user time   =     150.64 seconds =       2.51 minutes
	system time =       7.95 seconds =       0.13 minutes
	total time  =          8 seconds =       0.13 minutes

  //>>>>>>>>>>>>>>>>>>>>>>>>>>>>>>>>>>>//
  //    Loading displacement 2 of 9    //
  //<<<<<<<<<<<<<<<<<<<<<<<<<<<<<<<<<<<//

*** tstart() called on bp1-compute00135.data.bp.acrc.priv
*** at Fri Apr 23 09:21:21 2021

   => Loading Basis Set <=

    Name: AUG-CC-PV(Q+D)Z
    Role: ORBITAL
    Keyword: BASIS
    atoms 1, 3-5 entry H          line    56 file /work/zw18965/.conda/envs/p4env/share/psi4/basis/aug-cc-pv_qpd_z.gbs 
    atoms 2      entry C          line   319 file /work/zw18965/.conda/envs/p4env/share/psi4/basis/aug-cc-pv_qpd_z.gbs 


         ---------------------------------------------------------
                                   SCF
               by Justin Turney, Rob Parrish, Andy Simmonett
                          and Daniel G. A. Smith
                              RKS Reference
                       24 Threads, 137329 MiB Core
         ---------------------------------------------------------

  ==> Geometry <==

    Molecular point group: c2v
    Full point group: D1h

    Geometry (in Angstrom), charge = 0, multiplicity = 1:

       Center              X                  Y                   Z               Mass       
    ------------   -----------------  -----------------  -----------------  -----------------
         H           -0.000000000000     0.886402983753    -0.628099357864     1.007825032230
         C            0.000000000000    -0.000000000000     0.000000000006    12.000000000000
         H            0.888266630391     0.000000000000     0.628099357827     1.007825032230
         H           -0.888266630391    -0.000000000000     0.628099357827     1.007825032230
         H            0.000000000000    -0.886402983753    -0.628099357864     1.007825032230

  Running in c2v symmetry.

  Rotational constants: A =      5.31099  B =      5.31099  C =      5.29986 [cm^-1]
  Rotational constants: A = 159219.60880  B = 159219.60880  C = 158885.90516 [MHz]
  Nuclear repulsion =   13.470747899164556

  Charge       = 0
  Multiplicity = 1
  Electrons    = 10
  Nalpha       = 5
  Nbeta        = 5

  ==> Algorithm <==

  SCF Algorithm Type is DF.
  DIIS enabled.
  MOM disabled.
  Fractional occupation disabled.
  Guess Type is SAD.
  Energy threshold   = 1.00e-08
  Density threshold  = 1.00e-08
  Integral threshold = 0.00e+00

  ==> Primary Basis <==

  Basis Set: AUG-CC-PV(Q+D)Z
    Blend: AUG-CC-PV(Q+D)Z
    Number of shells: 76
    Number of basis function: 264
    Number of Cartesian functions: 325
    Spherical Harmonics?: true
    Max angular momentum: 4

  ==> DFT Potential <==

   => Composite Functional: WB97X-V <= 

    wB97X-V Hyb-GGA Exchange-Correlation Functional

    N. Mardirossian and M. Head-Gordon, Phys. Chem. Chem. Phys. 16, 9904 (2014)

    Deriv               =              1
    GGA                 =           TRUE
    Meta                =          FALSE

    Exchange Hybrid     =           TRUE
    MP2 Hybrid          =          FALSE

   => Exchange-Correlation Functionals <=

    1.0000   wB97X-V range-separated functional

   => Exact (HF) Exchange <=

    0.8330            HF,LR [omega = 0.3000]
    0.1670               HF 

   => VV10 Non-Local Parameters <=

    VV10 B              =     6.0000E+00
    VV10 C              =     1.0000E-02

   => Molecular Quadrature <=

    Radial Scheme          =       TREUTLER
    Pruning Scheme         =           FLAT
    Nuclear Scheme         =       TREUTLER

    BS radius alpha        =              1
    Pruning alpha          =              1
    Radial Points          =             75
    Spherical Points       =            302
    Total Points           =         113250
    Total Blocks           =            936
    Max Points             =            256
    Max Functions          =            264

   => Loading Basis Set <=

    Name: (AUG-CC-PV(Q+D)Z AUX)
    Role: JKFIT
    Keyword: DF_BASIS_SCF
    atoms 1, 3-5 entry H          line    70 file /work/zw18965/.conda/envs/p4env/share/psi4/basis/aug-cc-pvqz-jkfit.gbs 
    atoms 2      entry C          line   178 file /work/zw18965/.conda/envs/p4env/share/psi4/basis/aug-cc-pvqz-jkfit.gbs 

  ==> Pre-Iterations <==

   -------------------------------------------------------
    Irrep   Nso     Nmo     Nalpha   Nbeta   Ndocc  Nsocc
   -------------------------------------------------------
     A1        91      91       0       0       0       0
     A2        43      43       0       0       0       0
     B1        65      65       0       0       0       0
     B2        65      65       0       0       0       0
   -------------------------------------------------------
    Total     264     264       5       5       5       0
   -------------------------------------------------------

  ==> Integral Setup <==

  ==> DiskDFJK: Density-Fitted J/K Matrices <==

    J tasked:                  Yes
    K tasked:                  Yes
    wK tasked:                 Yes
    Omega:               3.000E-01
    OpenMP threads:             24
    Integrals threads:          24
    Memory [MiB]:           102171
    Algorithm:                Core
    Integral Cache:           NONE
    Schwarz Cutoff:          1E-12
    Fitting Condition:       1E-10

   => Auxiliary Basis Set <=

  Basis Set: (AUG-CC-PV(Q+D)Z AUX)
    Blend: AUG-CC-PVQZ-JKFIT
    Number of shells: 106
    Number of basis function: 446
    Number of Cartesian functions: 602
    Spherical Harmonics?: true
    Max angular momentum: 5

  Cached 100.0% of DFT collocation blocks in 0.806 [GiB].

  Minimum eigenvalue in the overlap matrix is 1.9136702049E-05.
  Using Symmetric Orthogonalization.

  SCF Guess: Superposition of Atomic Densities via on-the-fly atomic UHF.

  ==> Iterations <==

                           Total Energy        Delta E     RMS |[F,P]|

   @DF-RKS iter SAD:   -39.95612262033311   -3.99561e+01   0.00000e+00 
   @DF-RKS iter   1:   -40.38886130071167   -4.32739e-01   3.83799e-03 DIIS
   @DF-RKS iter   2:   -40.46103098150299   -7.21697e-02   2.54771e-03 DIIS
   @DF-RKS iter   3:   -40.51835135967533   -5.73204e-02   1.08634e-04 DIIS
   @DF-RKS iter   4:   -40.51862651130550   -2.75152e-04   1.99745e-05 DIIS
   @DF-RKS iter   5:   -40.51863633772239   -9.82642e-06   2.16982e-06 DIIS
   @DF-RKS iter   6:   -40.51863646891539   -1.31193e-07   2.52605e-07 DIIS
   @DF-RKS iter   7:   -40.51863647045401   -1.53862e-09   1.78082e-08 DIIS
   @DF-RKS iter   8:   -40.51863647046059   -6.57963e-12   2.53021e-09 DIIS
  Energy and wave function converged.


  ==> Post-Iterations <==

    Orbital Energies [Eh]
    ---------------------

    Doubly Occupied:                                                      

       1A1   -10.247038     2A1    -0.823796     3A1    -0.499560  
       1B2    -0.499354     1B1    -0.499198  

    Virtual:                                                              

       4A1     0.029540     5A1     0.049078     2B2     0.049088  
       2B1     0.049089     3B2     0.108224     3B1     0.108235  
       6A1     0.108274     7A1     0.117813     4B1     0.176271  
       8A1     0.176329     4B2     0.176378     9A1     0.199992  
       1A2     0.200029     5B2     0.262221     5B1     0.262254  
      10A1     0.262333    11A1     0.264870     6B1     0.280664  
       2A2     0.280685     6B2     0.280729    12A1     0.292031  
       7B2     0.292092     7B1     0.292099    13A1     0.316322  
       8B1     0.355366    14A1     0.355596     8B2     0.355678  
       3A2     0.393398    15A1     0.393559    16A1     0.521283  
       4A2     0.521360     9B2     0.525573     9B1     0.525630  
      17A1     0.525724    18A1     0.564902    10B1     0.659062  
       5A2     0.659134    10B2     0.659279    11B1     0.672887  
      19A1     0.672969    11B2     0.673115    20A1     0.704908  
      12B1     0.705016    12B2     0.705061    21A1     0.715088  
      13B1     0.736228    13B2     0.736272    22A1     0.736360  
      14B2     0.782715    14B1     0.782724     6A2     0.783005  
      23A1     0.858264    15B1     0.872107    24A1     0.872266  
      15B2     0.872316     7A2     0.889753    25A1     0.889826  
      26A1     0.936934     8A2     0.937199    27A1     1.040601  
       9A2     1.045977    16B1     1.046385    16B2     1.046447  
      17B2     1.095540    28A1     1.095845    17B1     1.095852  
      18B2     1.180483    18B1     1.180670    29A1     1.180840  
      10A2     1.308347    19B1     1.308413    19B2     1.308511  
      20B1     1.405293    20B2     1.405646    30A1     1.405706  
      31A1     1.447659    21B2     1.498641    32A1     1.498808  
      21B1     1.498828    11A2     1.598159    33A1     1.598236  
      34A1     1.749464    22B1     1.749862    22B2     1.750178  
      23B2     1.801880    23B1     1.802048    12A2     1.802526  
      35A1     1.814176    13A2     1.832010    36A1     1.832299  
      37A1     1.861789    24B1     1.862295    24B2     1.863594  
      38A1     1.897237    39A1     1.913239    14A2     1.913641  
      15A2     1.941134    25B1     1.941244    25B2     1.941252  
      26B1     2.013407    26B2     2.013687    40A1     2.013723  
      27B1     2.029755    16A2     2.029779    27B2     2.030709  
      41A1     2.080867    17A2     2.105811    28B2     2.151909  
      42A1     2.152431    28B1     2.152646    29B2     2.196742  
      29B1     2.196911    43A1     2.197051    30B2     2.307878  
      30B1     2.308041    44A1     2.308064    31B2     2.553645  
      31B1     2.554290    18A2     2.554299    45A1     2.579489  
      19A2     2.579635    32B1     2.666078    46A1     2.666500  
      32B2     2.666723    33B1     2.681781    33B2     2.682201  
      20A2     2.682256    47A1     2.683578    34B1     2.888118  
      34B2     2.888330    48A1     2.888440    21A2     2.890528  
      49A1     2.890856    35B1     3.025066    50A1     3.025988  
      35B2     3.026190    51A1     3.064472    22A2     3.224214  
      52A1     3.224399    23A2     3.543137    36B1     3.543310  
      36B2     3.544774    53A1     3.550484    37B1     3.550836  
      37B2     3.551098    54A1     3.701416    24A2     3.752332  
      38B2     3.752579    38B1     3.753056    39B1     3.855132  
      55A1     3.855201    39B2     3.855352    56A1     3.928672  
      40B1     3.928892    40B2     3.929528    57A1     4.002971  
      25A2     4.087271    58A1     4.087501    59A1     4.128662  
      41B2     4.128827    41B1     4.129084    60A1     4.169420  
      26A2     4.169994    42B2     4.533899    42B1     4.535101  
      61A1     4.535902    43B2     4.749711    43B1     4.750607  
      27A2     4.751026    62A1     4.920233    63A1     5.846720  
      28A2     5.847572    44B1     5.887482    44B2     5.887491  
      64A1     5.887990    45B2     5.989454    29A2     5.989912  
      45B1     5.990441    65A1     6.264078    30A2     6.526362  
      46B1     6.562471    31A2     6.563355    46B2     6.565346  
      47B2     6.632489    66A1     6.632583    47B1     6.632886  
      48B1     6.679347    32A2     6.679831    48B2     6.682490  
      49B1     6.739063    67A1     6.741947    49B2     6.742965  
      50B2     6.958125    68A1     6.958545    50B1     6.959344  
      69A1     7.093105    51B1     7.272066    70A1     7.272827  
      51B2     7.274943    71A1     7.288867    33A2     7.487306  
      72A1     7.487543    52B2     7.624407    73A1     7.626156  
      52B1     7.626250    53B2     7.636404    34A2     7.636849  
      53B1     7.641519    35A2     7.794288    74A1     7.794735  
      54B2     8.226254    75A1     8.226770    54B1     8.226820  
      76A1     8.268592    36A2     8.339427    77A1     8.342153  
      55B2     8.392079    55B1     8.392577    78A1     8.393591  
      37A2     8.868662    56B1     8.868882    56B2     8.869019  
      57B1     8.927543    79A1     8.928043    57B2     8.928941  
      58B1     9.011967    38A2     9.012427    58B2     9.013939  
      80A1     9.137454    59B2     9.138839    59B1     9.139094  
      81A1     9.352714    39A2     9.353723    82A1     9.437269  
      83A1     9.685322    40A2     9.687223    60B1     9.760946  
      41A2     9.761077    60B2     9.762839    61B1     9.974686  
      84A1     9.975077    61B2     9.976365    42A2    10.022083  
      85A1    10.022176    62B2    10.279028    62B1    10.280078  
      86A1    10.281050    87A1    10.586129    63B1    10.668761  
      63B2    10.669007    88A1    10.670352    64B1    11.203599  
      43A2    11.205366    64B2    11.206606    65B1    12.781588  
      89A1    12.788482    65B2    12.795997    90A1    13.454637  
      91A1    28.614330  

    Final Occupation by Irrep:
             A1    A2    B1    B2 
    DOCC [     3,    0,    1,    1 ]

  @DF-RKS Final Energy:   -40.51863647046059

   => Energetics <=

    Nuclear Repulsion Energy =             13.4707478991645555
    One-Electron Energy =                 -79.8931134459209034
    Two-Electron Energy =                  30.4124879774274639
    DFT Exchange-Correlation Energy =      -4.5501250766632735
    Empirical Dispersion Energy =           0.0000000000000000
    VV10 Nonlocal Energy =                  0.0413661755315765
    Total Energy =                        -40.5186364704605850

Computation Completed


Properties will be evaluated at   0.000000,   0.000000,   0.000000 [a0]

Properties computed using the SCF density matrix

  Nuclear Dipole Moment: [e a0]
     X:     0.0000      Y:     0.0000      Z:    -0.0000

  Electronic Dipole Moment: [e a0]
     X:     0.0000      Y:     0.0000      Z:    -0.0007

  Dipole Moment: [e a0]
     X:     0.0000      Y:     0.0000      Z:    -0.0007     Total:     0.0007

  Dipole Moment: [D]
     X:     0.0000      Y:     0.0000      Z:    -0.0017     Total:     0.0017


*** tstop() called on bp1-compute00135.data.bp.acrc.priv at Fri Apr 23 09:21:28 2021
Module time:
	user time   =     155.01 seconds =       2.58 minutes
	system time =       4.81 seconds =       0.08 minutes
	total time  =          7 seconds =       0.12 minutes
Total time:
	user time   =     305.80 seconds =       5.10 minutes
	system time =      12.77 seconds =       0.21 minutes
	total time  =         15 seconds =       0.25 minutes

  //>>>>>>>>>>>>>>>>>>>>>>>>>>>>>>>>>>>//
  //    Loading displacement 3 of 9    //
  //<<<<<<<<<<<<<<<<<<<<<<<<<<<<<<<<<<<//

*** tstart() called on bp1-compute00135.data.bp.acrc.priv
*** at Fri Apr 23 09:21:28 2021

   => Loading Basis Set <=

    Name: AUG-CC-PV(Q+D)Z
    Role: ORBITAL
    Keyword: BASIS
    atoms 1, 3-5 entry H          line    56 file /work/zw18965/.conda/envs/p4env/share/psi4/basis/aug-cc-pv_qpd_z.gbs 
    atoms 2      entry C          line   319 file /work/zw18965/.conda/envs/p4env/share/psi4/basis/aug-cc-pv_qpd_z.gbs 


         ---------------------------------------------------------
                                   SCF
               by Justin Turney, Rob Parrish, Andy Simmonett
                          and Daniel G. A. Smith
                              RKS Reference
                       24 Threads, 137329 MiB Core
         ---------------------------------------------------------

  ==> Geometry <==

    Molecular point group: c2v
    Full point group: D1h

    Geometry (in Angstrom), charge = 0, multiplicity = 1:

       Center              X                  Y                   Z               Mass       
    ------------   -----------------  -----------------  -----------------  -----------------
         H           -0.000000000000     0.890130277016    -0.628099357864     1.007825032230
         C           -0.000000000000    -0.000000000000     0.000000000006    12.000000000000
         H            0.888266630391     0.000000000000     0.628099357827     1.007825032230
         H           -0.888266630391    -0.000000000000     0.628099357827     1.007825032230
         H            0.000000000000    -0.890130277016    -0.628099357864     1.007825032230

  Running in c2v symmetry.

  Rotational constants: A =      5.29986  B =      5.28876  C =      5.28876 [cm^-1]
  Rotational constants: A = 158885.90516  B = 158552.90092  C = 158552.90092 [MHz]
  Nuclear repulsion =   13.451919342910069

  Charge       = 0
  Multiplicity = 1
  Electrons    = 10
  Nalpha       = 5
  Nbeta        = 5

  ==> Algorithm <==

  SCF Algorithm Type is DF.
  DIIS enabled.
  MOM disabled.
  Fractional occupation disabled.
  Guess Type is SAD.
  Energy threshold   = 1.00e-08
  Density threshold  = 1.00e-08
  Integral threshold = 0.00e+00

  ==> Primary Basis <==

  Basis Set: AUG-CC-PV(Q+D)Z
    Blend: AUG-CC-PV(Q+D)Z
    Number of shells: 76
    Number of basis function: 264
    Number of Cartesian functions: 325
    Spherical Harmonics?: true
    Max angular momentum: 4

  ==> DFT Potential <==

   => Composite Functional: WB97X-V <= 

    wB97X-V Hyb-GGA Exchange-Correlation Functional

    N. Mardirossian and M. Head-Gordon, Phys. Chem. Chem. Phys. 16, 9904 (2014)

    Deriv               =              1
    GGA                 =           TRUE
    Meta                =          FALSE

    Exchange Hybrid     =           TRUE
    MP2 Hybrid          =          FALSE

   => Exchange-Correlation Functionals <=

    1.0000   wB97X-V range-separated functional

   => Exact (HF) Exchange <=

    0.8330            HF,LR [omega = 0.3000]
    0.1670               HF 

   => VV10 Non-Local Parameters <=

    VV10 B              =     6.0000E+00
    VV10 C              =     1.0000E-02

   => Molecular Quadrature <=

    Radial Scheme          =       TREUTLER
    Pruning Scheme         =           FLAT
    Nuclear Scheme         =       TREUTLER

    BS radius alpha        =              1
    Pruning alpha          =              1
    Radial Points          =             75
    Spherical Points       =            302
    Total Points           =         113250
    Total Blocks           =            932
    Max Points             =            255
    Max Functions          =            264

   => Loading Basis Set <=

    Name: (AUG-CC-PV(Q+D)Z AUX)
    Role: JKFIT
    Keyword: DF_BASIS_SCF
    atoms 1, 3-5 entry H          line    70 file /work/zw18965/.conda/envs/p4env/share/psi4/basis/aug-cc-pvqz-jkfit.gbs 
    atoms 2      entry C          line   178 file /work/zw18965/.conda/envs/p4env/share/psi4/basis/aug-cc-pvqz-jkfit.gbs 

  ==> Pre-Iterations <==

   -------------------------------------------------------
    Irrep   Nso     Nmo     Nalpha   Nbeta   Ndocc  Nsocc
   -------------------------------------------------------
     A1        91      91       0       0       0       0
     A2        43      43       0       0       0       0
     B1        65      65       0       0       0       0
     B2        65      65       0       0       0       0
   -------------------------------------------------------
    Total     264     264       5       5       5       0
   -------------------------------------------------------

  ==> Integral Setup <==

  ==> DiskDFJK: Density-Fitted J/K Matrices <==

    J tasked:                  Yes
    K tasked:                  Yes
    wK tasked:                 Yes
    Omega:               3.000E-01
    OpenMP threads:             24
    Integrals threads:          24
    Memory [MiB]:           102171
    Algorithm:                Core
    Integral Cache:           NONE
    Schwarz Cutoff:          1E-12
    Fitting Condition:       1E-10

   => Auxiliary Basis Set <=

  Basis Set: (AUG-CC-PV(Q+D)Z AUX)
    Blend: AUG-CC-PVQZ-JKFIT
    Number of shells: 106
    Number of basis function: 446
    Number of Cartesian functions: 602
    Spherical Harmonics?: true
    Max angular momentum: 5

  Cached 100.0% of DFT collocation blocks in 0.806 [GiB].

  Minimum eigenvalue in the overlap matrix is 1.9173422379E-05.
  Using Symmetric Orthogonalization.

  SCF Guess: Superposition of Atomic Densities via on-the-fly atomic UHF.

  ==> Iterations <==

                           Total Energy        Delta E     RMS |[F,P]|

   @DF-RKS iter SAD:   -39.95435854083093   -3.99544e+01   0.00000e+00 
   @DF-RKS iter   1:   -40.38924698371073   -4.34888e-01   3.82985e-03 DIIS
   @DF-RKS iter   2:   -40.46106954143699   -7.18226e-02   2.54580e-03 DIIS
   @DF-RKS iter   3:   -40.51836595405506   -5.72964e-02   1.08666e-04 DIIS
   @DF-RKS iter   4:   -40.51864185166564   -2.75898e-04   1.99977e-05 DIIS
   @DF-RKS iter   5:   -40.51865170488993   -9.85322e-06   2.17269e-06 DIIS
   @DF-RKS iter   6:   -40.51865183635203   -1.31462e-07   2.52263e-07 DIIS
   @DF-RKS iter   7:   -40.51865183788957   -1.53754e-09   1.77647e-08 DIIS
   @DF-RKS iter   8:   -40.51865183789601   -6.43752e-12   2.52753e-09 DIIS
  Energy and wave function converged.


  ==> Post-Iterations <==

    Orbital Energies [Eh]
    ---------------------

    Doubly Occupied:                                                      

       1A1   -10.247739     2A1    -0.823330     1B1    -0.499267  
       1B2    -0.499109     3A1    -0.498907  

    Virtual:                                                              

       4A1     0.029524     2B1     0.049080     2B2     0.049081  
       5A1     0.049112     6A1     0.108200     3B1     0.108240  
       3B2     0.108250     7A1     0.117760     4B2     0.176171  
       8A1     0.176227     4B1     0.176278     1A2     0.199921  
       9A1     0.199960    10A1     0.262161     5B1     0.262245  
       5B2     0.262278    11A1     0.264726     6B2     0.280581  
       2A2     0.280626     6B1     0.280645     7B1     0.292035  
       7B2     0.292041    12A1     0.292110    13A1     0.316183  
       8B2     0.355089    14A1     0.355172     8B1     0.355401  
      15A1     0.393362     3A2     0.393522     4A2     0.521613  
      16A1     0.521681    17A1     0.525357     9B1     0.525446  
       9B2     0.525504    18A1     0.564284    10B2     0.658786  
       5A2     0.658937    10B1     0.659004    11B2     0.672520  
      19A1     0.672666    11B1     0.672748    12B2     0.704796  
      12B1     0.704842    20A1     0.704945    21A1     0.714830  
      22A1     0.736078    13B2     0.736161    13B1     0.736204  
       6A2     0.782625    14B1     0.782902    14B2     0.782912  
      23A1     0.858232    15B2     0.871932    24A1     0.871996  
      15B1     0.872142    25A1     0.889452     7A2     0.889526  
       8A2     0.936487    26A1     0.936750    27A1     1.040131  
      16B2     1.045990    16B1     1.046049     9A2     1.046451  
      28A1     1.095437    17B1     1.095443    17B2     1.095753  
      29A1     1.180189    18B1     1.180361    18B2     1.180548  
      19B2     1.308055    19B1     1.308155    10A2     1.308204  
      30A1     1.404458    20B2     1.404518    20B1     1.404872  
      31A1     1.447083    21B1     1.498197    32A1     1.498205  
      21B2     1.498389    33A1     1.598136    11A2     1.598220  
      22B2     1.748897    22B1     1.749217    34A1     1.749616  
      12A2     1.801727    23B1     1.802210    23B2     1.802372  
      35A1     1.814118    36A1     1.831068    13A2     1.831336  
      24B2     1.860949    24B1     1.862241    37A1     1.862730  
      38A1     1.896297    14A2     1.912842    39A1     1.913252  
      25B2     1.941649    25B1     1.941657    15A2     1.941764  
      40A1     2.015121    26B2     2.015166    26B1     2.015435  
      27B2     2.028529    16A2     2.029447    27B1     2.029485  
      41A1     2.081038    17A2     2.104665    28B1     2.151234  
      42A1     2.151429    28B2     2.151955    43A1     2.197201  
      29B1     2.197331    29B2     2.197512    44A1     2.305923  
      30B1     2.305952    30B2     2.306114    18A2     2.553304  
      31B1     2.553389    31B2     2.554028    19A2     2.576835  
      45A1     2.576929    32B2     2.665254    46A1     2.665492  
      32B1     2.665895    20A2     2.680110    33B2     2.680150  
      33B1     2.680556    47A1     2.681927    48A1     2.887323  
      34B2     2.887414    34B1     2.887643    49A1     2.891116  
      21A2     2.891394    35B2     3.022533    50A1     3.022658  
      35B1     3.023628    51A1     3.063151    52A1     3.222509  
      22A2     3.222709    36B2     3.539070    36B1     3.540964  
      23A2     3.541288    37B1     3.549183    53A1     3.549339  
      37B2     3.549343    54A1     3.699329    38B1     3.750680  
      38B2     3.751186    24A2     3.751429    39B2     3.851870  
      55A1     3.852012    39B1     3.852100    40B2     3.928438  
      40B1     3.929083    56A1     3.929285    57A1     4.001101  
      58A1     4.085600    25A2     4.085805    41B1     4.127216  
      41B2     4.127448    59A1     4.127624    26A2     4.170251  
      60A1     4.170749    61A1     4.530040    42B1     4.530896  
      42B2     4.532095    27A2     4.748678    43B1     4.749103  
      43B2     4.750002    62A1     4.917205    28A2     5.843290  
      63A1     5.844055    64A1     5.893048    44B2     5.893449  
      44B1     5.893482    45B1     5.991103    29A2     5.991622  
      45B2     5.992107    65A1     6.263205    30A2     6.525714  
      46B2     6.558047    31A2     6.560217    46B1     6.561077  
      47B1     6.629871    66A1     6.630133    47B2     6.630262  
      48B2     6.675716    32A2     6.678267    48B1     6.678709  
      49B2     6.734524    67A1     6.735510    49B1     6.738388  
      50B1     6.956026    68A1     6.956726    50B2     6.957234  
      69A1     7.092496    51B2     7.271234    70A1     7.272940  
      51B1     7.274045    71A1     7.285912    72A1     7.486952  
      33A2     7.487229    52B1     7.617787    73A1     7.619989  
      52B2     7.621661    53B1     7.630885    34A2     7.633408  
      53B2     7.634001    74A1     7.788167    35A2     7.788610  
      54B1     8.223418    75A1     8.223437    54B2     8.223962  
      76A1     8.256984    77A1     8.338777    36A2     8.341623  
      78A1     8.388539    55B1     8.389392    55B2     8.389835  
      56B2     8.864561    56B1     8.864962    37A2     8.865191  
      57B2     8.924711    79A1     8.925495    57B1     8.925966  
      58B2     9.006922    38A2     9.008247    58B1     9.008764  
      59B1     9.133201    59B2     9.133443    80A1     9.134794  
      39A2     9.353193    81A1     9.354170    82A1     9.433211  
      40A2     9.676227    83A1     9.678095    60B2     9.755801  
      41A2     9.757570    60B1     9.757703    61B2     9.971756  
      84A1     9.972836    61B1     9.973412    85A1    10.013037  
      42A2    10.013235    86A1    10.269504    62B1    10.270371  
      62B2    10.271471    87A1    10.575853    88A1    10.663588  
      63B2    10.664496    63B1    10.664784    64B2    11.194069  
      43A2    11.195288    64B1    11.197071    65B2    12.766380  
      89A1    12.773808    65B1    12.780768    90A1    13.449555  
      91A1    28.581979  

    Final Occupation by Irrep:
             A1    A2    B1    B2 
    DOCC [     3,    0,    1,    1 ]

  @DF-RKS Final Energy:   -40.51865183789601

   => Energetics <=

    Nuclear Repulsion Energy =             13.4519193429100685
    One-Electron Energy =                 -79.8577688595192825
    Two-Electron Energy =                  30.3942609368881556
    DFT Exchange-Correlation Energy =      -4.5484269705809846
    Empirical Dispersion Energy =           0.0000000000000000
    VV10 Nonlocal Energy =                  0.0413637124060277
    Total Energy =                        -40.5186518378960088

Computation Completed


Properties will be evaluated at   0.000000,   0.000000,   0.000000 [a0]

Properties computed using the SCF density matrix

  Nuclear Dipole Moment: [e a0]
     X:     0.0000      Y:     0.0000      Z:    -0.0000

  Electronic Dipole Moment: [e a0]
     X:     0.0000      Y:     0.0000      Z:     0.0007

  Dipole Moment: [e a0]
     X:     0.0000      Y:     0.0000      Z:     0.0007     Total:     0.0007

  Dipole Moment: [D]
     X:     0.0000      Y:     0.0000      Z:     0.0017     Total:     0.0017


*** tstop() called on bp1-compute00135.data.bp.acrc.priv at Fri Apr 23 09:21:35 2021
Module time:
	user time   =     152.53 seconds =       2.54 minutes
	system time =       4.17 seconds =       0.07 minutes
	total time  =          7 seconds =       0.12 minutes
Total time:
	user time   =     458.57 seconds =       7.64 minutes
	system time =      16.95 seconds =       0.28 minutes
	total time  =         22 seconds =       0.37 minutes

  //>>>>>>>>>>>>>>>>>>>>>>>>>>>>>>>>>>>//
  //    Loading displacement 4 of 9    //
  //<<<<<<<<<<<<<<<<<<<<<<<<<<<<<<<<<<<//

*** tstart() called on bp1-compute00135.data.bp.acrc.priv
*** at Fri Apr 23 09:21:35 2021

   => Loading Basis Set <=

    Name: AUG-CC-PV(Q+D)Z
    Role: ORBITAL
    Keyword: BASIS
    atoms 1, 3-5 entry H          line    56 file /work/zw18965/.conda/envs/p4env/share/psi4/basis/aug-cc-pv_qpd_z.gbs 
    atoms 2      entry C          line   319 file /work/zw18965/.conda/envs/p4env/share/psi4/basis/aug-cc-pv_qpd_z.gbs 


         ---------------------------------------------------------
                                   SCF
               by Justin Turney, Rob Parrish, Andy Simmonett
                          and Daniel G. A. Smith
                              RKS Reference
                       24 Threads, 137329 MiB Core
         ---------------------------------------------------------

  ==> Geometry <==

    Molecular point group: c2v
    Full point group: C2v

    Geometry (in Angstrom), charge = 0, multiplicity = 1:

       Center              X                  Y                   Z               Mass       
    ------------   -----------------  -----------------  -----------------  -----------------
         H           -0.000000000000     0.888266630384    -0.629841910154     1.007825032230
         C           -0.000000000000    -0.000000000000     0.000250603840    12.000000000000
         H            0.888266630391     0.000000000000     0.628349961661     1.007825032230
         H           -0.888266630391    -0.000000000000     0.628349961661     1.007825032230
         H            0.000000000000    -0.888266630384    -0.629841910154     1.007825032230

  Running in c2v symmetry.

  Rotational constants: A =      5.29986  B =      5.29146  C =      5.29146 [cm^-1]
  Rotational constants: A = 158885.90516  B = 158633.85854  C = 158633.85854 [MHz]
  Nuclear repulsion =   13.454204798086774

  Charge       = 0
  Multiplicity = 1
  Electrons    = 10
  Nalpha       = 5
  Nbeta        = 5

  ==> Algorithm <==

  SCF Algorithm Type is DF.
  DIIS enabled.
  MOM disabled.
  Fractional occupation disabled.
  Guess Type is SAD.
  Energy threshold   = 1.00e-08
  Density threshold  = 1.00e-08
  Integral threshold = 0.00e+00

  ==> Primary Basis <==

  Basis Set: AUG-CC-PV(Q+D)Z
    Blend: AUG-CC-PV(Q+D)Z
    Number of shells: 76
    Number of basis function: 264
    Number of Cartesian functions: 325
    Spherical Harmonics?: true
    Max angular momentum: 4

  ==> DFT Potential <==

   => Composite Functional: WB97X-V <= 

    wB97X-V Hyb-GGA Exchange-Correlation Functional

    N. Mardirossian and M. Head-Gordon, Phys. Chem. Chem. Phys. 16, 9904 (2014)

    Deriv               =              1
    GGA                 =           TRUE
    Meta                =          FALSE

    Exchange Hybrid     =           TRUE
    MP2 Hybrid          =          FALSE

   => Exchange-Correlation Functionals <=

    1.0000   wB97X-V range-separated functional

   => Exact (HF) Exchange <=

    0.8330            HF,LR [omega = 0.3000]
    0.1670               HF 

   => VV10 Non-Local Parameters <=

    VV10 B              =     6.0000E+00
    VV10 C              =     1.0000E-02

   => Molecular Quadrature <=

    Radial Scheme          =       TREUTLER
    Pruning Scheme         =           FLAT
    Nuclear Scheme         =       TREUTLER

    BS radius alpha        =              1
    Pruning alpha          =              1
    Radial Points          =             75
    Spherical Points       =            302
    Total Points           =         113250
    Total Blocks           =            930
    Max Points             =            256
    Max Functions          =            264

   => Loading Basis Set <=

    Name: (AUG-CC-PV(Q+D)Z AUX)
    Role: JKFIT
    Keyword: DF_BASIS_SCF
    atoms 1, 3-5 entry H          line    70 file /work/zw18965/.conda/envs/p4env/share/psi4/basis/aug-cc-pvqz-jkfit.gbs 
    atoms 2      entry C          line   178 file /work/zw18965/.conda/envs/p4env/share/psi4/basis/aug-cc-pvqz-jkfit.gbs 

  ==> Pre-Iterations <==

   -------------------------------------------------------
    Irrep   Nso     Nmo     Nalpha   Nbeta   Ndocc  Nsocc
   -------------------------------------------------------
     A1        91      91       0       0       0       0
     A2        43      43       0       0       0       0
     B1        65      65       0       0       0       0
     B2        65      65       0       0       0       0
   -------------------------------------------------------
    Total     264     264       5       5       5       0
   -------------------------------------------------------

  ==> Integral Setup <==

  ==> DiskDFJK: Density-Fitted J/K Matrices <==

    J tasked:                  Yes
    K tasked:                  Yes
    wK tasked:                 Yes
    Omega:               3.000E-01
    OpenMP threads:             24
    Integrals threads:          24
    Memory [MiB]:           102171
    Algorithm:                Core
    Integral Cache:           NONE
    Schwarz Cutoff:          1E-12
    Fitting Condition:       1E-10

   => Auxiliary Basis Set <=

  Basis Set: (AUG-CC-PV(Q+D)Z AUX)
    Blend: AUG-CC-PVQZ-JKFIT
    Number of shells: 106
    Number of basis function: 446
    Number of Cartesian functions: 602
    Spherical Harmonics?: true
    Max angular momentum: 5

  Cached 100.0% of DFT collocation blocks in 0.806 [GiB].

  Minimum eigenvalue in the overlap matrix is 1.9169007647E-05.
  Using Symmetric Orthogonalization.

  SCF Guess: Superposition of Atomic Densities via on-the-fly atomic UHF.

  ==> Iterations <==

                           Total Energy        Delta E     RMS |[F,P]|

   @DF-RKS iter SAD:   -39.95457403397828   -3.99546e+01   0.00000e+00 
   @DF-RKS iter   1:   -40.38920144251690   -4.34627e-01   3.83084e-03 DIIS
   @DF-RKS iter   2:   -40.46106599589122   -7.18646e-02   2.54603e-03 DIIS
   @DF-RKS iter   3:   -40.51836522666910   -5.72992e-02   1.08662e-04 DIIS
   @DF-RKS iter   4:   -40.51864103383411   -2.75807e-04   1.99947e-05 DIIS
   @DF-RKS iter   5:   -40.51865088375138   -9.84992e-06   2.17216e-06 DIIS
   @DF-RKS iter   6:   -40.51865101517789   -1.31427e-07   2.51809e-07 DIIS
   @DF-RKS iter   7:   -40.51865101671273   -1.53484e-09   1.64761e-08 DIIS
   @DF-RKS iter   8:   -40.51865101671874   -6.00409e-12   1.50952e-09 DIIS
  Energy and wave function converged.


  ==> Post-Iterations <==

    Orbital Energies [Eh]
    ---------------------

    Doubly Occupied:                                                      

       1A1   -10.247654     2A1    -0.823387     3A1    -0.499413  
       1B1    -0.499259     1B2    -0.498712  

    Virtual:                                                              

       4A1     0.029525     5A1     0.049074     2B1     0.049080  
       2B2     0.049109     3B2     0.108179     3B1     0.108236  
       6A1     0.108276     7A1     0.117765     4B2     0.176206  
       8A1     0.176240     4B1     0.176264     9A1     0.199920  
       1A2     0.199977     5B2     0.262147     5B1     0.262222  
      10A1     0.262331    11A1     0.264744     2A2     0.280615  
       6B1     0.280625     6B2     0.280639    12A1     0.291997  
       7B2     0.292077     7B1     0.292116    13A1     0.316199  
       8B2     0.355079    14A1     0.355335     8B1     0.355366  
       3A2     0.393325    15A1     0.393569    16A1     0.521550  
       4A2     0.521663     9B1     0.525392     9B2     0.525407  
      17A1     0.525583    18A1     0.564359     5A2     0.658902  
      10B1     0.658936    10B2     0.658981    19A1     0.672654  
      11B2     0.672673    11B1     0.672732    20A1     0.704747  
      12B2     0.704904    12B1     0.704980    21A1     0.714862  
      13B2     0.735975    13B1     0.736246    22A1     0.736272  
      14B1     0.782657    14B2     0.782681     6A2     0.783100  
      23A1     0.858237    15B1     0.871931    24A1     0.872098  
      15B2     0.872115     7A2     0.889469    25A1     0.889585  
      26A1     0.936470     8A2     0.936874    27A1     1.040187  
       9A2     1.045737    16B2     1.046302    16B1     1.046492  
      17B2     1.095430    17B1     1.095554    28A1     1.095723  
      18B2     1.180231    18B1     1.180306    29A1     1.180668  
      10A2     1.308060    19B2     1.308163    19B1     1.308295  
      20B2     1.404248    30A1     1.404966    20B1     1.404975  
      31A1     1.447153    21B2     1.498160    32A1     1.498399  
      21B1     1.498409    11A2     1.598120    33A1     1.598240  
      34A1     1.748755    22B1     1.749485    22B2     1.749710  
      23B1     1.801646    23B2     1.802004    12A2     1.802673  
      35A1     1.814112    13A2     1.831111    36A1     1.831545  
      37A1     1.860887    24B1     1.862266    24B2     1.862975  
      38A1     1.896409    39A1     1.912792    14A2     1.913383  
      25B1     1.941443    15A2     1.941522    25B2     1.941940  
      26B2     2.014384    40A1     2.015225    26B1     2.015513  
      16A2     2.028814    27B1     2.029447    27B2     2.029536  
      41A1     2.081017    17A2     2.104804    28B2     2.151284  
      42A1     2.151800    28B1     2.151832    29B1     2.197134  
      29B2     2.197225    43A1     2.197513    30B1     2.305924  
      44A1     2.306342    30B2     2.306450    31B2     2.553036  
      31B1     2.553885    18A2     2.554016    45A1     2.577100  
      19A2     2.577305    32B2     2.665240    46A1     2.665744  
      32B1     2.665976    33B2     2.680276    33B1     2.680449  
      20A2     2.680733    47A1     2.682136    34B1     2.887369  
      34B2     2.887541    48A1     2.887757    21A2     2.890950  
      49A1     2.891450    35B2     3.022379    50A1     3.023675  
      35B1     3.023795    51A1     3.063294    22A2     3.222671  
      52A1     3.222959    23A2     3.539804    36B2     3.541254  
      36B1     3.541636    53A1     3.549114    37B2     3.549553  
      37B1     3.549587    54A1     3.699586    24A2     3.750793  
      38B2     3.751225    38B1     3.751848    39B2     3.852064  
      55A1     3.852345    39B1     3.852751    56A1     3.928412  
      40B1     3.928837    40B2     3.929602    57A1     4.001324  
      25A2     4.085742    58A1     4.086075    59A1     4.127306  
      41B2     4.127566    41B1     4.127934    60A1     4.169993  
      26A2     4.170815    42B1     4.530692    42B2     4.530866  
      61A1     4.532913    43B2     4.747958    43B1     4.749974  
      27A2     4.750286    62A1     4.917576    63A1     5.843492  
      28A2     5.844724    44B2     5.891609    64A1     5.893101  
      44B1     5.893199    45B1     5.991016    29A2     5.991362  
      45B2     5.991815    65A1     6.263304    30A2     6.525793  
      31A2     6.559656    46B2     6.560125    46B1     6.561033  
      66A1     6.630307    47B2     6.630378    47B1     6.630534  
      32A2     6.676852    48B1     6.677432    48B2     6.679465  
      49B2     6.733892    67A1     6.737710    49B1     6.738698  
      50B1     6.956525    68A1     6.956770    50B2     6.957448  
      69A1     7.092561    70A1     7.272236    51B2     7.273061  
      51B1     7.273176    71A1     7.286174    33A2     7.486942  
      72A1     7.487333    52B2     7.619904    52B1     7.620829  
      73A1     7.621225    34A2     7.631439    53B2     7.632828  
      53B1     7.635626    35A2     7.788803    74A1     7.789472  
      54B1     8.223635    54B2     8.224068    75A1     8.224140  
      76A1     8.258420    36A2     8.338208    77A1     8.342482  
      55B1     8.388502    55B2     8.389606    78A1     8.390830  
      56B2     8.864618    37A2     8.865057    56B1     8.866495  
      79A1     8.925543    57B2     8.925712    57B1     8.925993  
      58B2     9.007876    38A2     9.008063    58B1     9.009696  
      80A1     9.132850    59B1     9.134490    59B2     9.135767  
      81A1     9.352906    39A2     9.354369    82A1     9.433713  
      83A1     9.676780    40A2     9.679675    41A2     9.756804  
      60B2     9.757595    60B1     9.758390    84A1     9.972622  
      61B2     9.972953    61B1     9.973463    42A2    10.014133  
      85A1    10.014342    62B2    10.269977    62B1    10.271729  
      86A1    10.273129    87A1    10.577260    63B1    10.663564  
      63B2    10.664892    88A1    10.666094    64B2    11.193825  
      43A2    11.196922    64B1    11.199179    65B2    12.770839  
      89A1    12.775192    65B1    12.780428    90A1    13.450169  
      91A1    28.585899  

    Final Occupation by Irrep:
             A1    A2    B1    B2 
    DOCC [     3,    0,    1,    1 ]

  @DF-RKS Final Energy:   -40.51865101671874

   => Energetics <=

    Nuclear Repulsion Energy =             13.4542047980867743
    One-Electron Energy =                 -79.8620606384117337
    Two-Electron Energy =                  30.3964738560394352
    DFT Exchange-Correlation Energy =      -4.5486330465279252
    Empirical Dispersion Energy =           0.0000000000000000
    VV10 Nonlocal Energy =                  0.0413640140947136
    Total Energy =                        -40.5186510167187350

Computation Completed


Properties will be evaluated at   0.000000,   0.000000,   0.000000 [a0]

Properties computed using the SCF density matrix

  Nuclear Dipole Moment: [e a0]
     X:     0.0000      Y:     0.0000      Z:    -0.0028

  Electronic Dipole Moment: [e a0]
     X:     0.0000      Y:     0.0000      Z:     0.0028

  Dipole Moment: [e a0]
     X:     0.0000      Y:     0.0000      Z:    -0.0000     Total:     0.0000

  Dipole Moment: [D]
     X:     0.0000      Y:     0.0000      Z:    -0.0000     Total:     0.0000


*** tstop() called on bp1-compute00135.data.bp.acrc.priv at Fri Apr 23 09:21:41 2021
Module time:
	user time   =     150.15 seconds =       2.50 minutes
	system time =       4.35 seconds =       0.07 minutes
	total time  =          6 seconds =       0.10 minutes
Total time:
	user time   =     608.88 seconds =      10.15 minutes
	system time =      21.30 seconds =       0.36 minutes
	total time  =         28 seconds =       0.47 minutes

  //>>>>>>>>>>>>>>>>>>>>>>>>>>>>>>>>>>>//
  //    Loading displacement 5 of 9    //
  //<<<<<<<<<<<<<<<<<<<<<<<<<<<<<<<<<<<//

*** tstart() called on bp1-compute00135.data.bp.acrc.priv
*** at Fri Apr 23 09:21:41 2021

   => Loading Basis Set <=

    Name: AUG-CC-PV(Q+D)Z
    Role: ORBITAL
    Keyword: BASIS
    atoms 1, 3-5 entry H          line    56 file /work/zw18965/.conda/envs/p4env/share/psi4/basis/aug-cc-pv_qpd_z.gbs 
    atoms 2      entry C          line   319 file /work/zw18965/.conda/envs/p4env/share/psi4/basis/aug-cc-pv_qpd_z.gbs 


         ---------------------------------------------------------
                                   SCF
               by Justin Turney, Rob Parrish, Andy Simmonett
                          and Daniel G. A. Smith
                              RKS Reference
                       24 Threads, 137329 MiB Core
         ---------------------------------------------------------

  ==> Geometry <==

    Molecular point group: c2v
    Full point group: C2v

    Geometry (in Angstrom), charge = 0, multiplicity = 1:

       Center              X                  Y                   Z               Mass       
    ------------   -----------------  -----------------  -----------------  -----------------
         H           -0.000000000000     0.888266630384    -0.626356805574     1.007825032230
         C           -0.000000000000    -0.000000000000    -0.000250603827    12.000000000000
         H            0.888266630391     0.000000000000     0.627848753994     1.007825032230
         H           -0.888266630391    -0.000000000000     0.627848753994     1.007825032230
         H            0.000000000000    -0.888266630384    -0.626356805574     1.007825032230

  Running in c2v symmetry.

  Rotational constants: A =      5.30827  B =      5.30827  C =      5.29986 [cm^-1]
  Rotational constants: A = 159138.05236  B = 159138.05236  C = 158885.90516 [MHz]
  Nuclear repulsion =   13.468443769812588

  Charge       = 0
  Multiplicity = 1
  Electrons    = 10
  Nalpha       = 5
  Nbeta        = 5

  ==> Algorithm <==

  SCF Algorithm Type is DF.
  DIIS enabled.
  MOM disabled.
  Fractional occupation disabled.
  Guess Type is SAD.
  Energy threshold   = 1.00e-08
  Density threshold  = 1.00e-08
  Integral threshold = 0.00e+00

  ==> Primary Basis <==

  Basis Set: AUG-CC-PV(Q+D)Z
    Blend: AUG-CC-PV(Q+D)Z
    Number of shells: 76
    Number of basis function: 264
    Number of Cartesian functions: 325
    Spherical Harmonics?: true
    Max angular momentum: 4

  ==> DFT Potential <==

   => Composite Functional: WB97X-V <= 

    wB97X-V Hyb-GGA Exchange-Correlation Functional

    N. Mardirossian and M. Head-Gordon, Phys. Chem. Chem. Phys. 16, 9904 (2014)

    Deriv               =              1
    GGA                 =           TRUE
    Meta                =          FALSE

    Exchange Hybrid     =           TRUE
    MP2 Hybrid          =          FALSE

   => Exchange-Correlation Functionals <=

    1.0000   wB97X-V range-separated functional

   => Exact (HF) Exchange <=

    0.8330            HF,LR [omega = 0.3000]
    0.1670               HF 

   => VV10 Non-Local Parameters <=

    VV10 B              =     6.0000E+00
    VV10 C              =     1.0000E-02

   => Molecular Quadrature <=

    Radial Scheme          =       TREUTLER
    Pruning Scheme         =           FLAT
    Nuclear Scheme         =       TREUTLER

    BS radius alpha        =              1
    Pruning alpha          =              1
    Radial Points          =             75
    Spherical Points       =            302
    Total Points           =         113250
    Total Blocks           =            931
    Max Points             =            256
    Max Functions          =            264

   => Loading Basis Set <=

    Name: (AUG-CC-PV(Q+D)Z AUX)
    Role: JKFIT
    Keyword: DF_BASIS_SCF
    atoms 1, 3-5 entry H          line    70 file /work/zw18965/.conda/envs/p4env/share/psi4/basis/aug-cc-pvqz-jkfit.gbs 
    atoms 2      entry C          line   178 file /work/zw18965/.conda/envs/p4env/share/psi4/basis/aug-cc-pvqz-jkfit.gbs 

  ==> Pre-Iterations <==

   -------------------------------------------------------
    Irrep   Nso     Nmo     Nalpha   Nbeta   Ndocc  Nsocc
   -------------------------------------------------------
     A1        91      91       0       0       0       0
     A2        43      43       0       0       0       0
     B1        65      65       0       0       0       0
     B2        65      65       0       0       0       0
   -------------------------------------------------------
    Total     264     264       5       5       5       0
   -------------------------------------------------------

  ==> Integral Setup <==

  ==> DiskDFJK: Density-Fitted J/K Matrices <==

    J tasked:                  Yes
    K tasked:                  Yes
    wK tasked:                 Yes
    Omega:               3.000E-01
    OpenMP threads:             24
    Integrals threads:          24
    Memory [MiB]:           102171
    Algorithm:                Core
    Integral Cache:           NONE
    Schwarz Cutoff:          1E-12
    Fitting Condition:       1E-10

   => Auxiliary Basis Set <=

  Basis Set: (AUG-CC-PV(Q+D)Z AUX)
    Blend: AUG-CC-PVQZ-JKFIT
    Number of shells: 106
    Number of basis function: 446
    Number of Cartesian functions: 602
    Spherical Harmonics?: true
    Max angular momentum: 5

  Cached 100.0% of DFT collocation blocks in 0.806 [GiB].

  Minimum eigenvalue in the overlap matrix is 1.9141237316E-05.
  Using Symmetric Orthogonalization.

  SCF Guess: Superposition of Atomic Densities via on-the-fly atomic UHF.

  ==> Iterations <==

                           Total Energy        Delta E     RMS |[F,P]|

   @DF-RKS iter SAD:   -39.95590814800347   -3.99559e+01   0.00000e+00 
   @DF-RKS iter   1:   -40.38890980544311   -4.33002e-01   3.83699e-03 DIIS
   @DF-RKS iter   2:   -40.46103686515642   -7.21271e-02   2.54748e-03 DIIS
   @DF-RKS iter   3:   -40.51835421420756   -5.73173e-02   1.08638e-04 DIIS
   @DF-RKS iter   4:   -40.51862945713876   -2.75243e-04   1.99771e-05 DIIS
   @DF-RKS iter   5:   -40.51863928678077   -9.82964e-06   2.16999e-06 DIIS
   @DF-RKS iter   6:   -40.51863941800333   -1.31223e-07   2.52067e-07 DIIS
   @DF-RKS iter   7:   -40.51863941953896   -1.53563e-09   1.65088e-08 DIIS
   @DF-RKS iter   8:   -40.51863941954495   -5.98988e-12   1.51205e-09 DIIS
  Energy and wave function converged.


  ==> Post-Iterations <==

    Orbital Energies [Eh]
    ---------------------

    Doubly Occupied:                                                      

       1A1   -10.247124     2A1    -0.823739     1B2    -0.499753  
       1B1    -0.499205     3A1    -0.499052  

    Virtual:                                                              

       4A1     0.029539     2B2     0.049060     2B1     0.049089  
       5A1     0.049116     6A1     0.108198     3B1     0.108238  
       3B2     0.108296     7A1     0.117808     4B1     0.176286  
       8A1     0.176316     4B2     0.176342     1A2     0.199973  
       9A1     0.200031    10A1     0.262164     5B1     0.262277  
       5B2     0.262352    11A1     0.264853     6B2     0.280671  
       6B1     0.280684     2A2     0.280696     7B1     0.292018  
       7B2     0.292056    12A1     0.292144    13A1     0.316306  
       8B1     0.355401    14A1     0.355434     8B2     0.355688  
      15A1     0.393354     3A2     0.393596     4A2     0.521307  
      16A1     0.521414    17A1     0.525497     9B2     0.525670  
       9B1     0.525684    18A1     0.564826    10B2     0.659085  
      10B1     0.659130     5A2     0.659169    11B1     0.672903  
      11B2     0.672961    19A1     0.672980    12B1     0.704876  
      12B2     0.704952    20A1     0.705107    21A1     0.715058  
      22A1     0.736161    13B1     0.736188    13B2     0.736459  
       6A2     0.782530    14B2     0.782944    14B1     0.782968  
      23A1     0.858262    15B2     0.872136    24A1     0.872157  
      15B1     0.872319    25A1     0.889701     7A2     0.889808  
       8A2     0.936814    26A1     0.937208    27A1     1.040543  
      16B1     1.045943    16B2     1.046133     9A2     1.046695  
      28A1     1.095563    17B1     1.095738    17B2     1.095864  
      29A1     1.180360    18B1     1.180721    18B2     1.180801  
      19B1     1.308272    19B2     1.308403    10A2     1.308492  
      20B1     1.405188    30A1     1.405194    20B2     1.405923  
      31A1     1.447589    32A1     1.498611    21B1     1.498612  
      21B2     1.498868    33A1     1.598133    11A2     1.598256  
      22B2     1.749371    22B1     1.749593    34A1     1.750327  
      12A2     1.801574    23B2     1.802247    23B1     1.802611  
      35A1     1.814156    36A1     1.831844    13A2     1.832252  
      24B2     1.861553    24B1     1.862264    37A1     1.863640  
      38A1     1.897120    14A2     1.913066    39A1     1.913704  
      25B2     1.940966    15A2     1.941386    25B1     1.941462  
      26B1     2.013333    40A1     2.013631    26B2     2.014448  
      27B2     2.029703    27B1     2.029781    16A2     2.030416  
      41A1     2.080888    17A2     2.105671    28B1     2.152040  
      42A1     2.152075    28B2     2.152593    43A1     2.196727  
      29B2     2.197019    29B1     2.197113    30B2     2.307541  
      44A1     2.307637    30B1     2.308072    18A2     2.553659  
      31B1     2.553787    31B2     2.554634    19A2     2.579148  
      45A1     2.579313    32B1     2.665996    46A1     2.666231  
      32B2     2.666744    20A2     2.681588    33B1     2.681897  
      33B2     2.682072    47A1     2.683385    48A1     2.887941  
      34B2     2.888228    34B1     2.888385    49A1     2.890586  
      21A2     2.890973    35B1     3.024893    50A1     3.025008  
      35B2     3.026320    51A1     3.064292    52A1     3.223951  
      22A2     3.224246    36B1     3.542804    36B2     3.542872  
      23A2     3.544614    37B1     3.550263    37B2     3.550618  
      53A1     3.550705    54A1     3.701165    38B1     3.751914  
      38B2     3.752525    24A2     3.752960    39B1     3.854475  
      55A1     3.854859    39B2     3.855163    40B2     3.928375  
      40B1     3.929137    56A1     3.929555    57A1     4.002739  
      58A1     4.087019    25A2     4.087344    41B1     4.128348  
      41B2     4.128721    59A1     4.128977    26A2     4.169404  
      60A1     4.170204    61A1     4.533024    42B2     4.535118  
      42B1     4.535306    27A2     4.749429    43B1     4.749739  
      43B2     4.751746    62A1     4.919866    28A2     5.846137  
      63A1     5.847336    44B1     5.887787    64A1     5.887890  
      44B2     5.889360    45B2     5.989731    29A2     5.990150  
      45B1     5.990513    65A1     6.263964    30A2     6.526283  
      46B1     6.562491    46B2     6.563413    31A2     6.563858  
      47B1     6.632227    47B2     6.632391    66A1     6.632415  
      48B2     6.678610    48B1     6.680653    32A2     6.681278  
      49B1     6.738751    67A1     6.739736    49B2     6.743574  
      50B2     6.957885    68A1     6.958577    50B1     6.958837  
      69A1     7.093022    51B1     7.272922    51B2     7.273084  
      70A1     7.273663    71A1     7.288434    72A1     7.487197  
      33A2     7.487583    52B1     7.624720    73A1     7.624889  
      52B2     7.625252    53B1     7.635258    53B2     7.638491  
      34A2     7.638843    74A1     7.793430    35A2     7.794107  
      75A1     8.225928    54B2     8.226157    54B1     8.226588  
      76A1     8.267181    77A1     8.338734    36A2     8.342866  
      78A1     8.391112    55B2     8.392304    55B1     8.393444  
      56B1     8.867277    37A2     8.868765    56B2     8.869087  
      57B1     8.927606    57B2     8.927952    79A1     8.928011  
      58B1     9.011038    38A2     9.012630    58B2     9.012856  
      59B2     9.136500    59B1     9.137782    80A1     9.139375  
      39A2     9.352519    81A1     9.354056    82A1     9.436781  
      40A2     9.683715    83A1     9.686519    60B1     9.760240  
      60B2     9.761048    41A2     9.761928    61B1     9.974645  
      61B2     9.975144    84A1     9.975383    85A1    10.020918  
      42A2    10.021166    86A1    10.277455    62B1    10.278683  
      62B2    10.280490    87A1    10.585039    88A1    10.667409  
      63B2    10.668632    63B1    10.670035    64B1    11.201468  
      43A2    11.203718    64B2    11.206780    65B1    12.781926  
      89A1    12.787113    65B2    12.791535    90A1    13.454012  
      91A1    28.610364  

    Final Occupation by Irrep:
             A1    A2    B1    B2 
    DOCC [     3,    0,    1,    1 ]

  @DF-RKS Final Energy:   -40.51863941954495

   => Energetics <=

    Nuclear Repulsion Energy =             13.4684437698125876
    One-Electron Energy =                 -79.8887897596479490
    Two-Electron Energy =                  30.4102579292433610
    DFT Exchange-Correlation Energy =      -4.5499172288231771
    Empirical Dispersion Energy =           0.0000000000000000
    VV10 Nonlocal Energy =                  0.0413658698702313
    Total Energy =                        -40.5186394195449537

Computation Completed


Properties will be evaluated at   0.000000,   0.000000,   0.000000 [a0]

Properties computed using the SCF density matrix

  Nuclear Dipole Moment: [e a0]
     X:     0.0000      Y:     0.0000      Z:     0.0028

  Electronic Dipole Moment: [e a0]
     X:     0.0000      Y:     0.0000      Z:    -0.0028

  Dipole Moment: [e a0]
     X:     0.0000      Y:     0.0000      Z:     0.0000     Total:     0.0000

  Dipole Moment: [D]
     X:     0.0000      Y:     0.0000      Z:     0.0000     Total:     0.0000


*** tstop() called on bp1-compute00135.data.bp.acrc.priv at Fri Apr 23 09:21:48 2021
Module time:
	user time   =     148.14 seconds =       2.47 minutes
	system time =       3.85 seconds =       0.06 minutes
	total time  =          7 seconds =       0.12 minutes
Total time:
	user time   =     757.17 seconds =      12.62 minutes
	system time =      25.16 seconds =       0.42 minutes
	total time  =         35 seconds =       0.58 minutes

  //>>>>>>>>>>>>>>>>>>>>>>>>>>>>>>>>>>>//
  //    Loading displacement 6 of 9    //
  //<<<<<<<<<<<<<<<<<<<<<<<<<<<<<<<<<<<//

*** tstart() called on bp1-compute00135.data.bp.acrc.priv
*** at Fri Apr 23 09:21:48 2021

   => Loading Basis Set <=

    Name: AUG-CC-PV(Q+D)Z
    Role: ORBITAL
    Keyword: BASIS
    atoms 1, 3-5 entry H          line    56 file /work/zw18965/.conda/envs/p4env/share/psi4/basis/aug-cc-pv_qpd_z.gbs 
    atoms 2      entry C          line   319 file /work/zw18965/.conda/envs/p4env/share/psi4/basis/aug-cc-pv_qpd_z.gbs 


         ---------------------------------------------------------
                                   SCF
               by Justin Turney, Rob Parrish, Andy Simmonett
                          and Daniel G. A. Smith
                              RKS Reference
                       24 Threads, 137329 MiB Core
         ---------------------------------------------------------

  ==> Geometry <==

    Molecular point group: c2v
    Full point group: C2v

    Geometry (in Angstrom), charge = 0, multiplicity = 1:

       Center              X                  Y                   Z               Mass       
    ------------   -----------------  -----------------  -----------------  -----------------
         H           -0.000000000000     0.888266630384    -0.628099357864     1.007825032230
         C           -0.000000000000    -0.000000000000    -0.000289655281    12.000000000000
         H            0.888266630391     0.000000000000     0.629823795766     1.007825032230
         H           -0.888266630391    -0.000000000000     0.629823795766     1.007825032230
         H            0.000000000000    -0.888266630384    -0.628099357864     1.007825032230

  Running in c2v symmetry.

  Rotational constants: A =      5.29986  B =      5.29259  C =      5.29259 [cm^-1]
  Rotational constants: A = 158885.90516  B = 158667.74591  C = 158667.74591 [MHz]
  Nuclear repulsion =   13.455164558213795

  Charge       = 0
  Multiplicity = 1
  Electrons    = 10
  Nalpha       = 5
  Nbeta        = 5

  ==> Algorithm <==

  SCF Algorithm Type is DF.
  DIIS enabled.
  MOM disabled.
  Fractional occupation disabled.
  Guess Type is SAD.
  Energy threshold   = 1.00e-08
  Density threshold  = 1.00e-08
  Integral threshold = 0.00e+00

  ==> Primary Basis <==

  Basis Set: AUG-CC-PV(Q+D)Z
    Blend: AUG-CC-PV(Q+D)Z
    Number of shells: 76
    Number of basis function: 264
    Number of Cartesian functions: 325
    Spherical Harmonics?: true
    Max angular momentum: 4

  ==> DFT Potential <==

   => Composite Functional: WB97X-V <= 

    wB97X-V Hyb-GGA Exchange-Correlation Functional

    N. Mardirossian and M. Head-Gordon, Phys. Chem. Chem. Phys. 16, 9904 (2014)

    Deriv               =              1
    GGA                 =           TRUE
    Meta                =          FALSE

    Exchange Hybrid     =           TRUE
    MP2 Hybrid          =          FALSE

   => Exchange-Correlation Functionals <=

    1.0000   wB97X-V range-separated functional

   => Exact (HF) Exchange <=

    0.8330            HF,LR [omega = 0.3000]
    0.1670               HF 

   => VV10 Non-Local Parameters <=

    VV10 B              =     6.0000E+00
    VV10 C              =     1.0000E-02

   => Molecular Quadrature <=

    Radial Scheme          =       TREUTLER
    Pruning Scheme         =           FLAT
    Nuclear Scheme         =       TREUTLER

    BS radius alpha        =              1
    Pruning alpha          =              1
    Radial Points          =             75
    Spherical Points       =            302
    Total Points           =         113250
    Total Blocks           =            931
    Max Points             =            256
    Max Functions          =            264

   => Loading Basis Set <=

    Name: (AUG-CC-PV(Q+D)Z AUX)
    Role: JKFIT
    Keyword: DF_BASIS_SCF
    atoms 1, 3-5 entry H          line    70 file /work/zw18965/.conda/envs/p4env/share/psi4/basis/aug-cc-pvqz-jkfit.gbs 
    atoms 2      entry C          line   178 file /work/zw18965/.conda/envs/p4env/share/psi4/basis/aug-cc-pvqz-jkfit.gbs 

  ==> Pre-Iterations <==

   -------------------------------------------------------
    Irrep   Nso     Nmo     Nalpha   Nbeta   Ndocc  Nsocc
   -------------------------------------------------------
     A1        91      91       0       0       0       0
     A2        43      43       0       0       0       0
     B1        65      65       0       0       0       0
     B2        65      65       0       0       0       0
   -------------------------------------------------------
    Total     264     264       5       5       5       0
   -------------------------------------------------------

[...]
   @DF-RKS iter   5:   -40.51865376539769   -9.87566e-06   1.56249e-06 DIIS
   @DF-RKS iter   6:   -40.51865389708659   -1.31689e-07   1.80682e-07 DIIS
   @DF-RKS iter   7:   -40.51865389862071   -1.53413e-09   1.18009e-08 DIIS
   @DF-RKS iter   8:   -40.51865389862665   -5.94014e-12   1.07248e-09 DIIS
   @DF-RKS iter   9:   -40.51865389862673   -7.81597e-14   1.17682e-10 DIIS
   @DF-RKS iter  10:   -40.51865389862670    3.55271e-14   1.07992e-11 DIIS
  Energy and wave function converged.


  ==> Post-Iterations <==

    Orbital Energies [Eh]
    ---------------------

    Doubly Occupied:                                                      

       1Ap   -10.248316     2Ap    -0.822947     3Ap    -0.499438  
       1App   -0.498867     4Ap    -0.498295  

    Virtual:                                                              

       5Ap     0.029523     6Ap     0.049101     2App    0.049128  
       7Ap     0.049168     8Ap     0.108169     3App    0.108237  
       9Ap     0.108295    10Ap     0.117736    11Ap     0.176104  
       4App    0.176155    12Ap     0.176206    13Ap     0.199881  
       5App    0.199882    14Ap     0.262109     6App    0.262196  
      15Ap     0.262278    16Ap     0.264606     7App    0.280534  
      17Ap     0.280555     8App    0.280576    18Ap     0.292004  
       9App    0.292053    19Ap     0.292090    20Ap     0.316077  
      21Ap     0.354682    10App    0.354962    22Ap     0.355236  
      23Ap     0.393409    11App    0.393414    12App    0.521915  
      24Ap     0.521920    25Ap     0.525252    13App    0.525270  
      26Ap     0.525273    27Ap     0.563771    14App    0.658636  
      28Ap     0.658708    15App    0.658776    29Ap     0.672315  
      16App    0.672365    30Ap     0.672397    31Ap     0.704673  
      17App    0.704752    32Ap     0.704827    33Ap     0.714618  
      34Ap     0.735752    18App    0.736038    35Ap     0.736324  
      19App    0.782788    36Ap     0.782815    20App    0.782838  
      37Ap     0.858196    38Ap     0.871645    21App    0.871875  
      39Ap     0.872084    22App    0.889236    40Ap     0.889237  
      23App    0.936250    41Ap     0.936256    42Ap     1.039743  
      24App    1.045879    43Ap     1.046075    25App    1.046274  
      44Ap     1.095222    26App    1.095385    45Ap     1.095550  
      46Ap     1.180019    27App    1.180120    47Ap     1.180219  
      28App    1.307773    48Ap     1.307900    29App    1.308038  
      49Ap     1.403104    30App    1.403856    50Ap     1.404590  
      51Ap     1.446612    52Ap     1.497556    31App    1.497870  
      53Ap     1.498133    54Ap     1.598159    32App    1.598161  
      55Ap     1.748477    33App    1.748746    56Ap     1.749026  
      34App    1.801679    57Ap     1.802039    35App    1.802430  
      58Ap     1.814088    36App    1.830392    59Ap     1.830396  
      60Ap     1.860578    37App    1.861483    61Ap     1.862358  
      62Ap     1.895531    63Ap     1.912713    38App    1.912748  
      39App    1.941560    64Ap     1.942135    40App    1.942632  
      65Ap     2.015396    41App    2.016587    66Ap     2.017758  
      42App    2.028214    67Ap     2.028410    43App    2.028594  
      68Ap     2.081168    44App    2.103712    69Ap     2.150212  
      45App    2.150869    70Ap     2.151547    71Ap     2.197656  
      46App    2.197743    72Ap     2.197802    73Ap     2.303807  
      47App    2.304365    74Ap     2.304907    48App    2.552163  
      75Ap     2.553111    49App    2.554129    50App    2.574669  
      76Ap     2.574675    77Ap     2.664069    51App    2.664814  
      78Ap     2.665523    52App    2.678660    79Ap     2.678800  
      53App    2.678947    80Ap     2.680597    81Ap     2.886513  
      54App    2.886644    82Ap     2.886934    83Ap     2.891711  
      55App    2.891783    84Ap     3.019213    56App    3.020639  
      85Ap     3.022044    86Ap     3.062067    87Ap     3.221196  
      57App    3.221200    58App    3.537543    88Ap     3.537552  
      59App    3.537790    89Ap     3.547833    60App    3.548196  
      90Ap     3.548305    91Ap     3.697609    61App    3.749115  
      92Ap     3.749784    62App    3.750542    93Ap     3.848602  
      63App    3.849322    94Ap     3.850036    95Ap     3.927968  
      64App    3.928859    96Ap     3.929744    97Ap     3.999566  
      65App    4.084272    98Ap     4.084293    99Ap     4.125812  
      66App    4.126253   100Ap     4.126670   101Ap     4.171131  
      67App    4.171192   102Ap     4.527654    68App    4.527745  
     103Ap     4.527820    69App    4.746007   104Ap     4.748285  
      70App    4.750546   105Ap     4.914717    71App    5.840812  
     106Ap     5.840856   107Ap     5.896257    72App    5.898031  
     108Ap     5.899723    73App    5.992248   109Ap     5.993036  
      74App    5.993791   110Ap     6.262477    75App    6.525188  
      76App    6.555872   111Ap     6.556449    77App    6.557013  
     112Ap     6.627778    78App    6.627995   113Ap     6.628185  
      79App    6.672841   114Ap     6.675203    80App    6.677634  
     115Ap     6.727115    81App    6.731872   116Ap     6.736637  
     117Ap     6.954118    82App    6.954946   118Ap     6.955754  
     119Ap     7.091958   120Ap     7.271939    83App    7.272409  
     121Ap     7.272483   122Ap     7.283696   123Ap     7.486721  
      84App    7.486740   124Ap     7.614566    85App    7.615519  
     125Ap     7.616505    86App    7.624095   126Ap     7.627789  
      87App    7.631562    88App    7.783400   127Ap     7.783414  
     128Ap     8.220431    89App    8.221052   129Ap     8.221387  
     130Ap     8.247909    90App    8.339657   131Ap     8.339702  
     132Ap     8.385281    91App    8.386466   133Ap     8.387501  
      92App    8.859718   134Ap     8.861596    93App    8.863499  
     135Ap     8.922858    94App    8.923087   136Ap     8.923299  
      95App    9.002267   137Ap     9.004034    96App    9.005885  
     138Ap     9.128636    97App    9.129923   139Ap     9.131309  
     140Ap     9.353995    98App    9.354022   141Ap     9.429886  
     142Ap     9.669539    99App    9.669542   100App    9.752584  
     143Ap     9.753370   101App    9.753948   144Ap     9.970046  
     102App    9.970422   145Ap     9.970823   146Ap    10.005799  
     103App   10.005829   147Ap    10.260552   104App   10.262624  
     148Ap    10.264349   149Ap    10.567617   150Ap    10.658773  
     105App   10.660141   151Ap    10.661549   106App   11.182033  
     152Ap    11.187520   107App   11.192893   153Ap    12.752423  
     108App   12.761268   154Ap    12.770104   155Ap    13.445195  
     156Ap    28.555225  

    Final Occupation by Irrep:
             Ap   App 
    DOCC [     4,    1 ]

  @DF-RKS Final Energy:   -40.51865389862670

   => Energetics <=

    Nuclear Repulsion Energy =             13.4364286688838934
    One-Electron Energy =                 -79.8286689391553352
    Two-Electron Energy =                  30.3792539818758343
    DFT Exchange-Correlation Energy =      -4.5470296298884261
    Empirical Dispersion Energy =           0.0000000000000000
    VV10 Nonlocal Energy =                  0.0413620196573459
    Total Energy =                        -40.5186538986266882

Computation Completed


Properties will be evaluated at   0.000000,   0.000000,   0.000000 [a0]

Properties computed using the SCF density matrix

  Nuclear Dipole Moment: [e a0]
     X:     0.0000      Y:    -0.0060      Z:    -0.0000

  Electronic Dipole Moment: [e a0]
     X:     0.0000      Y:     0.0059      Z:     0.0000

  Dipole Moment: [e a0]
     X:     0.0000      Y:    -0.0001      Z:    -0.0000     Total:     0.0001

  Dipole Moment: [D]
     X:     0.0000      Y:    -0.0003      Z:    -0.0000     Total:     0.0003


*** tstop() called on bp1-compute00135.data.bp.acrc.priv at Fri Apr 23 09:32:06 2021
Module time:
	user time   =     160.05 seconds =       2.67 minutes
	system time =       2.66 seconds =       0.04 minutes
	total time  =          7 seconds =       0.12 minutes
Total time:
	user time   =   14678.04 seconds =     244.63 minutes
	system time =     292.20 seconds =       4.87 minutes
	total time  =        653 seconds =      10.88 minutes

         ----------------------------------------------------------
                                   FINDIF
                     R. A. King and Jonathon Misiewicz
         ---------------------------------------------------------

  Computing second-derivative from energies using projected, 
  symmetry-adapted, cartesian coordinates.

  30 energies passed in, including the reference geometry.
    Using 3-point formula.
    Energy without displacement:  -40.5186574599
    Check energies below for precision!
    0: -1        :       -40.5186542817
    0: 1         :       -40.5186540415
    1: -1        :       -40.5186551128
    1: 1         :       -40.5186553022
    2: -1        :       -40.5186551245
    2: 1         :       -40.5186552715
    3: -1        :       -40.5186542766
    3: 1         :       -40.5186540446
    0: 1, 1: 1   :       -40.5186552390
    0: -1, 1: -1 :       -40.5186553044
    0: 1, 2: 1   :       -40.5186512758
    0: -1, 2: -1 :       -40.5186513443
    1: 1, 2: 1   :       -40.5186531598
    1: -1, 2: -1 :       -40.5186528269
    0: 1, 3: 1   :       -40.5186506007
    0: -1, 3: -1 :       -40.5186510719
    1: 1, 3: 1   :       -40.5186517755
    1: -1, 3: -1 :       -40.5186518256
    2: 1, 3: 1   :       -40.5186552632
    2: -1, 3: -1 :       -40.5186553588
    4: -1        :       -40.5186579771
    5: -1        :       -40.5186568879
    6: -1        :       -40.5186530207
    5: 1, 6: 1   :       -40.5186519383
    5: -1, 6: -1 :       -40.5186519334
    7: -1        :       -40.5186532208
    8: -1        :       -40.5186567009
    7: 1, 8: 1   :       -40.5186539015
    7: -1, 8: -1 :       -40.5186538986

-------------------------------------------------------------


  ==> Harmonic Vibrational Analysis <==

  non-mass-weighted Hessian:       Symmetric? True   Hermitian? True   Lin Dep Dim?  6 (0)
  projection of translations (True) and rotations (True) removed 6 degrees of freedom (6)
  total projector:                 Symmetric? True   Hermitian? True   Lin Dep Dim?  6 (6)
  mass-weighted Hessian:           Symmetric? True   Hermitian? True   Lin Dep Dim?  6 (0)
  pre-proj  low-frequency mode:    0.0000i [cm^-1]
  pre-proj  low-frequency mode:    0.0000i [cm^-1]
  pre-proj  low-frequency mode:    0.0000i [cm^-1]
  pre-proj  low-frequency mode:    0.0000i [cm^-1]
  pre-proj  low-frequency mode:    0.0000i [cm^-1]
  pre-proj  low-frequency mode:    0.0000  [cm^-1]
  pre-proj  low-frequency mode:    0.0000  [cm^-1]
  pre-proj  all modes:['1045.6754i' '0.0000i' '0.0000i' '0.0000i' '0.0000i' '0.0000' '0.0000'
 '1083.2525' '1141.3753' '1336.3103' '1563.5061' '3043.5175' '3045.7485'
 '3069.2137' '3159.6422']
  projected mass-weighted Hessian: Symmetric? True   Hermitian? True   Lin Dep Dim?  6 (6)
  post-proj low-frequency mode: 1045.6754i [cm^-1] (V)
  post-proj low-frequency mode:    0.0000i [cm^-1] (TR)
  post-proj low-frequency mode:    0.0000i [cm^-1] (TR)
  post-proj low-frequency mode:    0.0000  [cm^-1] (TR)
  post-proj low-frequency mode:    0.0000  [cm^-1] (TR)
  post-proj low-frequency mode:    0.0000  [cm^-1] (TR)
  post-proj low-frequency mode:    0.0001  [cm^-1] (TR)
  post-proj  all modes:['1045.6754i' '0.0000i' '0.0000i' '0.0000' '0.0000' '0.0000' '0.0001'
 '1083.2525' '1141.3753' '1336.3103' '1563.5061' '3043.5175' '3045.7485'
 '3069.2137' '3159.6422']

  Vibration                       1                   8                   9           
  Freq [cm^-1]                1045.6754i          1083.2525           1141.3753       
  Irrep                           A2                  B1                  B2          
  Reduced mass [u]              1.0078              1.1895              1.1679        
  Force const [mDyne/A]        -0.6493              0.8224              0.8965        
  Turning point v=0 [a0]        0.0000              0.3057              0.3005        
  RMS dev v=0 [a0 u^1/2]        0.0000              0.2357              0.2297        
  Char temp [K]                 0.0000            1558.5592           1642.1849       
  ----------------------------------------------------------------------------------
      1   H                0.50  0.00  0.00    0.61  0.00 -0.00    0.00  0.12  0.34   
      2   C                0.00  0.00  0.00   -0.13  0.00 -0.00   -0.00 -0.12  0.00   
      3   H               -0.00  0.50  0.00    0.16 -0.00 -0.32    0.00  0.60  0.00   
      4   H               -0.00 -0.50 -0.00    0.16 -0.00  0.32    0.00  0.60  0.00   
      5   H               -0.50  0.00 -0.00    0.61 -0.00  0.00    0.00  0.12 -0.34   

  Vibration                       10                  11                  12          
  Freq [cm^-1]                1336.3103           1563.5061           3043.5175       
  Irrep                           A1                  A1                  B2          
  Reduced mass [u]              1.1787              1.0078              1.1115        
  Force const [mDyne/A]         1.2402              1.4516              6.0660        
  Turning point v=0 [a0]        0.2765              0.2764              0.1887        
  RMS dev v=0 [a0 u^1/2]        0.2122              0.1962              0.1406        
  Char temp [K]               1922.6530           2249.5371           4378.9441       
  ----------------------------------------------------------------------------------
      1   H                0.00 -0.33 -0.37   -0.00  0.29  0.41    0.00  0.58 -0.41   
      2   C               -0.00 -0.00  0.12   -0.00 -0.00  0.00    0.00 -0.10  0.00   
      3   H                0.33  0.00 -0.37    0.29  0.00 -0.41    0.00  0.00  0.00   
      4   H               -0.33  0.00 -0.37   -0.29  0.00 -0.41   -0.00  0.00  0.00   
      5   H                0.00  0.33 -0.37    0.00 -0.29  0.41    0.00  0.58  0.41   

  Vibration                       13                  14                  15          
  Freq [cm^-1]                3045.7485           3069.2137           3159.6422       
  Irrep                           A1                  B1                  A1          
  Reduced mass [u]              1.0078              1.0926              1.1019        
  Force const [mDyne/A]         5.5084              6.0642              6.4811        
  Turning point v=0 [a0]        0.1980              0.1895              0.1860        
  RMS dev v=0 [a0 u^1/2]        0.1406              0.1401              0.1380        
  Char temp [K]               4382.1539           4415.9152           4546.0216       
  ----------------------------------------------------------------------------------
      1   H                0.00  0.41 -0.29   -0.04  0.00 -0.00   -0.00  0.41 -0.27   
      2   C                0.00  0.00  0.00   -0.09 -0.00  0.00    0.00  0.00  0.09   
      3   H                0.41 -0.00  0.29    0.56 -0.00  0.42   -0.42  0.00 -0.28   
      4   H               -0.41 -0.00  0.29    0.56  0.00 -0.42    0.42 -0.00 -0.28   
      5   H                0.00 -0.41 -0.29   -0.04  0.00  0.00    0.00 -0.41 -0.27   

  ==> Thermochemistry Components <==

  Entropy, S
    Electronic S            0.000 [cal/(mol K)]        0.000 [J/(mol K)]       0.00000000 [mEh/K] (multiplicity = 1)
    Translational S        34.261 [cal/(mol K)]      143.349 [J/(mol K)]       0.05459877 [mEh/K] (mol. weight = 16.0313 [u], P = 101325.00 [Pa])
    Rotational S           13.680 [cal/(mol K)]       57.236 [J/(mol K)]       0.02180017 [mEh/K] (symmetry no. = 2)
    Vibrational S           0.152 [cal/(mol K)]        0.635 [J/(mol K)]       0.00024203 [mEh/K]
  Total S                  48.093 [cal/(mol K)]      201.221 [J/(mol K)]       0.07664097 [mEh/K]
  Correction S              0.000 [cal/(mol K)]        0.000 [J/(mol K)]       0.00000000 [mEh/K]

  Constant volume heat capacity, Cv
    Electronic Cv           0.000 [cal/(mol K)]        0.000 [J/(mol K)]       0.00000000 [mEh/K]
    Translational Cv        2.981 [cal/(mol K)]       12.472 [J/(mol K)]       0.00475022 [mEh/K]
    Rotational Cv           2.981 [cal/(mol K)]       12.472 [J/(mol K)]       0.00475022 [mEh/K]
    Vibrational Cv          0.733 [cal/(mol K)]        3.066 [J/(mol K)]       0.00116771 [mEh/K]
  Total Cv                  6.694 [cal/(mol K)]       28.009 [J/(mol K)]       0.01066815 [mEh/K]
  Correction Cv             0.000 [cal/(mol K)]        0.000 [J/(mol K)]       0.00000000 [mEh/K]

  Constant pressure heat capacity, Cp
    Electronic Cp           0.000 [cal/(mol K)]        0.000 [J/(mol K)]       0.00000000 [mEh/K]
    Translational Cp        4.968 [cal/(mol K)]       20.786 [J/(mol K)]       0.00791703 [mEh/K]
    Rotational Cp           2.981 [cal/(mol K)]       12.472 [J/(mol K)]       0.00475022 [mEh/K]
    Vibrational Cp          0.733 [cal/(mol K)]        3.066 [J/(mol K)]       0.00116771 [mEh/K]
  Total Cp                  8.682 [cal/(mol K)]       36.324 [J/(mol K)]       0.01383496 [mEh/K]
  Correction Cp             0.000 [cal/(mol K)]        0.000 [J/(mol K)]       0.00000000 [mEh/K]

  ==> Thermochemistry Energy Analysis <==

  Raw electronic energy, E0
  Total E0, Electronic energy at well bottom at 0 [K]                  -40.51865746 [Eh]

  Zero-point energy, ZPE_vib = Sum_i nu_i / 2
    Electronic ZPE          0.000 [kcal/mol]        0.000 [kJ/mol]       0.00000000 [Eh]
    Translational ZPE       0.000 [kcal/mol]        0.000 [kJ/mol]       0.00000000 [Eh]
    Rotational ZPE          0.000 [kcal/mol]        0.000 [kJ/mol]       0.00000000 [Eh]
    Vibrational ZPE        24.935 [kcal/mol]      104.330 [kJ/mol]       0.03973709 [Eh]        8721.283 [cm^-1]
  Correction ZPE           24.935 [kcal/mol]      104.330 [kJ/mol]       0.03973709 [Eh]        8721.283 [cm^-1]
  Total ZPE, Electronic energy at 0 [K]                                -40.47892037 [Eh]

  Thermal Energy, E (includes ZPE)
    Electronic E            0.000 [kcal/mol]        0.000 [kJ/mol]       0.00000000 [Eh]
    Translational E         0.889 [kcal/mol]        3.718 [kJ/mol]       0.00141628 [Eh]
    Rotational E            0.889 [kcal/mol]        3.718 [kJ/mol]       0.00141628 [Eh]
    Vibrational E          24.974 [kcal/mol]      104.491 [kJ/mol]       0.03979834 [Eh]
  Correction E             26.751 [kcal/mol]      111.927 [kJ/mol]       0.04263089 [Eh]
  Total E, Electronic energy at  298.15 [K]                            -40.47602657 [Eh]

  Enthalpy, H_trans = E_trans + k_B * T
    Electronic H            0.000 [kcal/mol]        0.000 [kJ/mol]       0.00000000 [Eh]
    Translational H         1.481 [kcal/mol]        6.197 [kJ/mol]       0.00236046 [Eh]
    Rotational H            0.889 [kcal/mol]        3.718 [kJ/mol]       0.00141628 [Eh]
    Vibrational H          24.974 [kcal/mol]      104.491 [kJ/mol]       0.03979834 [Eh]
  Correction H             27.344 [kcal/mol]      114.406 [kJ/mol]       0.04357507 [Eh]
  Total H, Enthalpy at  298.15 [K]                                     -40.47508239 [Eh]

  Gibbs free energy, G = H - T * S
    Electronic G            0.000 [kcal/mol]        0.000 [kJ/mol]       0.00000000 [Eh]
    Translational G        -8.734 [kcal/mol]      -36.542 [kJ/mol]      -0.01391816 [Eh]
    Rotational G           -3.190 [kcal/mol]      -13.347 [kJ/mol]      -0.00508345 [Eh]
    Vibrational G          24.929 [kcal/mol]      104.301 [kJ/mol]       0.03972618 [Eh]
  Correction G             13.005 [kcal/mol]       54.412 [kJ/mol]       0.02072457 [Eh]
  Total G, Free enthalpy at  298.15 [K]                                -40.49793289 [Eh]

    Psi4 stopped on: Friday, 23 April 2021 09:32AM
    Psi4 wall time for execution: 0:10:53.99

*** Psi4 exiting successfully. Buy a developer a beer!
