
    -----------------------------------------------------------------------
          Psi4: An Open-Source Ab Initio Electronic Structure Package
                               Psi4 1.3.2 release

                         Git: Rev {HEAD} ecbda83 


    R. M. Parrish, L. A. Burns, D. G. A. Smith, A. C. Simmonett,
    A. E. DePrince III, E. G. Hohenstein, U. Bozkaya, A. Yu. Sokolov,
    R. Di Remigio, R. M. Richard, J. F. Gonthier, A. M. James,
    H. R. McAlexander, A. Kumar, M. Saitow, X. Wang, B. P. Pritchard,
    P. Verma, H. F. Schaefer III, K. Patkowski, R. A. King, E. F. Valeev,
    F. A. Evangelista, J. M. Turney, T. D. Crawford, and C. D. Sherrill,
    J. Chem. Theory Comput. 13(7) pp 3185--3197 (2017).
    (doi: 10.1021/acs.jctc.7b00174)


                         Additional Contributions by
    P. Kraus, H. Kruse, M. H. Lechner, M. C. Schieber, R. A. Shaw,
    A. Alenaizan, R. Galvelis, Z. L. Glick, S. Lehtola, and J. P. Misiewicz

    -----------------------------------------------------------------------


    Psi4 started on: Tuesday, 27 April 2021 04:33PM

    Process ID: 63101
    Host:       bp1-compute00065.data.bp.acrc.priv
    PSIDATADIR: /work/zw18965/.conda/envs/p4env/share/psi4
    Memory:     500.0 MiB
    Threads:    24
    
  ==> Input File <==

--------------------------------------------------------------------------
memory 144 GB

molecule {
0 1
Cl 0.0000000000 0.0000000000 0.0000000000
Cl 0.0000000000 0.0000000000 1.9965761200
}

set dynamic_level 1
set basis aug-cc-pV(Q+d)Z
 
optimize("wB97X-V")
frequencies("wB97X-V")
--------------------------------------------------------------------------

  Memory set to 134.110 GiB by Python driver.
gradient() will perform gradient computation by finite difference of analytic energies.

         ----------------------------------------------------------
                                   FINDIF
                     R. A. King and Jonathon Misiewicz
         ---------------------------------------------------------

  Using finite-differences of energies to determine gradients.
    Generating geometries for use with 3-point formula.
    Displacement size will be 5.00e-03.
    Number of atoms is 2.
    Number of symmetric SALCs is 1.
    Translations projected? 1. Rotations projected? 1.
    Number of geometries (including reference) is 3.

  //>>>>>>>>>>>>>>>>>>>>>>>>>>>>>>>>>>>//
  //    Loading displacement 1 of 3    //
  //<<<<<<<<<<<<<<<<<<<<<<<<<<<<<<<<<<<//

*** tstart() called on bp1-compute00065.data.bp.acrc.priv
*** at Tue Apr 27 16:33:03 2021

   => Loading Basis Set <=

    Name: AUG-CC-PV(Q+D)Z
    Role: ORBITAL
    Keyword: BASIS
    atoms 1-2 entry CL         line  1246 file /work/zw18965/.conda/envs/p4env/share/psi4/basis/aug-cc-pv_qpd_z.gbs 


         ---------------------------------------------------------
                                   SCF
               by Justin Turney, Rob Parrish, Andy Simmonett
                          and Daniel G. A. Smith
                              RKS Reference
                       24 Threads, 137329 MiB Core
         ---------------------------------------------------------

  ==> Geometry <==

    Molecular point group: d2h
    Full point group: D_inf_h

    Geometry (in Angstrom), charge = 0, multiplicity = 1:

       Center              X                  Y                   Z               Mass       
    ------------   -----------------  -----------------  -----------------  -----------------
         CL           0.000000000000     0.000000000000    -0.998288060000    34.968852682000
         CL           0.000000000000     0.000000000000     0.998288060000    34.968852682000

  Running in d2h symmetry.

  Rotational constants: A = ************  B =      0.24187  C =      0.24187 [cm^-1]
  Rotational constants: A = ************  B =   7250.93591  C =   7250.93591 [MHz]
  Nuclear repulsion =   76.597236815408763

  Charge       = 0
  Multiplicity = 1
  Electrons    = 34
  Nalpha       = 17
  Nbeta        = 17

  ==> Algorithm <==

  SCF Algorithm Type is DF.
  DIIS enabled.
  MOM disabled.
  Fractional occupation disabled.
  Guess Type is SAD.
  Energy threshold   = 1.00e-08
  Density threshold  = 1.00e-08
  Integral threshold = 0.00e+00

  ==> Primary Basis <==

  Basis Set: AUG-CC-PV(Q+D)Z
    Blend: AUG-CC-PV(Q+D)Z
    Number of shells: 46
    Number of basis function: 178
    Number of Cartesian functions: 230
    Spherical Harmonics?: true
    Max angular momentum: 4

  ==> DFT Potential <==

   => Composite Functional: WB97X-V <= 

    wB97X-V Hyb-GGA Exchange-Correlation Functional

    N. Mardirossian and M. Head-Gordon, Phys. Chem. Chem. Phys. 16, 9904 (2014)

    Deriv               =              1
    GGA                 =           TRUE
    Meta                =          FALSE

    Exchange Hybrid     =           TRUE
    MP2 Hybrid          =          FALSE

   => Exchange-Correlation Functionals <=

    1.0000   wB97X-V range-separated functional

   => Exact (HF) Exchange <=

    0.8330            HF,LR [omega = 0.3000]
    0.1670               HF 

   => VV10 Non-Local Parameters <=

    VV10 B              =     6.0000E+00
    VV10 C              =     1.0000E-02

   => Molecular Quadrature <=

    Radial Scheme          =       TREUTLER
    Pruning Scheme         =           FLAT
    Nuclear Scheme         =       TREUTLER

    BS radius alpha        =              1
    Pruning alpha          =              1
    Radial Points          =             75
    Spherical Points       =            302
    Total Points           =          44898
    Total Blocks           =            422
    Max Points             =            255
    Max Functions          =            178

   => Loading Basis Set <=

    Name: (AUG-CC-PV(Q+D)Z AUX)
    Role: JKFIT
    Keyword: DF_BASIS_SCF
    atoms 1-2 entry CL         line   904 file /work/zw18965/.conda/envs/p4env/share/psi4/basis/aug-cc-pvqz-jkfit.gbs 

  ==> Pre-Iterations <==

   -------------------------------------------------------
    Irrep   Nso     Nmo     Nalpha   Nbeta   Ndocc  Nsocc
   -------------------------------------------------------
     Ag        35      35       0       0       0       0
     B1g       12      12       0       0       0       0
     B2g       21      21       0       0       0       0
     B3g       21      21       0       0       0       0
     Au        12      12       0       0       0       0
     B1u       35      35       0       0       0       0
     B2u       21      21       0       0       0       0
     B3u       21      21       0       0       0       0
   -------------------------------------------------------
    Total     178     178      17      17      17       0
   -------------------------------------------------------

  ==> Integral Setup <==

  ==> DiskDFJK: Density-Fitted J/K Matrices <==

    J tasked:                  Yes
    K tasked:                  Yes
    wK tasked:                 Yes
    Omega:               3.000E-01
    OpenMP threads:             24
    Integrals threads:          24
    Memory [MiB]:           102788
    Algorithm:                Core
    Integral Cache:           NONE
    Schwarz Cutoff:          1E-12
    Fitting Condition:       1E-10

   => Auxiliary Basis Set <=

  Basis Set: (AUG-CC-PV(Q+D)Z AUX)
    Blend: AUG-CC-PVQZ-JKFIT
    Number of shells: 92
    Number of basis function: 368
    Number of Cartesian functions: 494
    Spherical Harmonics?: true
    Max angular momentum: 5

  Cached 100.0% of DFT collocation blocks in 0.203 [GiB].

  Minimum eigenvalue in the overlap matrix is 1.0544460959E-04.
  Using Symmetric Orthogonalization.

  SCF Guess: Superposition of Atomic Densities via on-the-fly atomic UHF.

  ==> Iterations <==

                           Total Energy        Delta E     RMS |[F,P]|

   @DF-RKS iter SAD:  -920.13689750537822   -9.20137e+02   0.00000e+00 
   @DF-RKS iter   1:  -920.25769520397637   -1.20798e-01   3.61885e-03 DIIS
   @DF-RKS iter   2:  -920.27130089044101   -1.36057e-02   1.88725e-03 DIIS
   @DF-RKS iter   3:  -920.27520771428544   -3.90682e-03   2.52935e-04 DIIS
   @DF-RKS iter   4:  -920.27532950978787   -1.21796e-04   8.06869e-05 DIIS
   @DF-RKS iter   5:  -920.27534765269320   -1.81429e-05   1.12387e-05 DIIS
   @DF-RKS iter   6:  -920.27534832247181   -6.69779e-07   1.19347e-06 DIIS
   @DF-RKS iter   7:  -920.27534832981996   -7.34815e-09   2.05250e-07 DIIS
   @DF-RKS iter   8:  -920.27534832997469   -1.54728e-10   2.50163e-08 DIIS
   @DF-RKS iter   9:  -920.27534832997674   -2.04636e-12   1.77000e-09 DIIS
  Energy and wave function converged.


  ==> Post-Iterations <==

    Orbital Energies [Eh]
    ---------------------

    Doubly Occupied:                                                      

       1B1u -101.606405     1Ag  -101.606401     2Ag    -9.619293  
       2B1u   -9.619250     3Ag    -7.379350     3B1u   -7.379210  
       1B3g   -7.364857     1B2g   -7.364857     1B2u   -7.364855  
       1B3u   -7.364855     4Ag    -1.067379     4B1u   -0.894472  
       5Ag    -0.572136     2B2u   -0.523321     2B3u   -0.523321  
       2B3g   -0.411224     2B2g   -0.411224  

    Virtual:                                                              

       5B1u   -0.033525     6B1u    0.068400     6Ag     0.081634  
       3B2u    0.093354     3B3u    0.093354     7Ag     0.112141  
       3B2g    0.118954     3B3g    0.118954     8Ag     0.201269  
       1B1g    0.201271     7B1u    0.201532     4B2u    0.242240  
       4B3u    0.242240     9Ag     0.287571     1Au     0.296802  
       8B1u    0.296804     9B1u    0.319781     4B3g    0.345816  
       4B2g    0.345816     5B2u    0.422999     5B3u    0.422999  
      10Ag     0.471362     6B3u    0.480354     6B2u    0.480354  
      10B1u    0.513507     5B3g    0.514261     5B2g    0.514261  
      11Ag     0.515385     2B1g    0.515386    12Ag     0.531703  
       2Au     0.588739    11B1u    0.588746    13Ag     0.628251  
       6B2g    0.676918     6B3g    0.676918     7B3u    0.709738  
       7B2u    0.709738    12B1u    0.721710     3B1g    0.771188  
      14Ag     0.771201     7B2g    0.850834     7B3g    0.850834  
      13B1u    0.975884     8B2u    0.986127     8B3u    0.986127  
      14B1u    1.025540     3Au     1.025555    15Ag     1.053553  
       8B3g    1.088391     8B2g    1.088391    15B1u    1.146684  
       9B2u    1.387208     9B3u    1.387208     4B1g    1.398762  
      16Ag     1.398763    16B1u    1.424990    17Ag     1.432459  
      17B1u    1.474423     4Au     1.474426     9B3g    1.485171  
       9B2g    1.485171    10B3u    1.587036    10B2u    1.587036  
      18Ag     1.632409    11B3u    1.636824    11B2u    1.636824  
       5B1g    1.676972    19Ag     1.676975     6B1g    1.689313  
      20Ag     1.689316    10B2g    1.815599    10B3g    1.815599  
      12B2u    1.819834    12B3u    1.819834    18B1u    1.826096  
       5Au     1.826097    13B2u    1.862214    13B3u    1.862214  
      11B3g    1.935301    11B2g    1.935301    21Ag     2.017267  
       7B1g    2.019367    22Ag     2.019384    19B1u    2.060686  
       6Au     2.060687    12B2g    2.068049    12B3g    2.068049  
      20B1u    2.096816    13B3g    2.147721    13B2g    2.147721  
      21B1u    2.324606    14B2u    2.345276    14B3u    2.345276  
      23Ag     2.391108     7Au     2.474326    22B1u    2.474327  
      23B1u    2.631904    24Ag     2.799102    14B3g    2.938054  
      14B2g    2.938054    24B1u    3.152733     8B1g    3.439071  
      25Ag     3.439103     8Au     3.509917    25B1u    3.509946  
      15B3u    3.523010    15B2u    3.523010    26Ag     3.604905  
      15B3g    3.693951    15B2g    3.693951    27Ag     4.191638  
      16B2u    4.289938    16B3u    4.289938    26B1u    4.318829  
      17B2u    4.365317    17B3u    4.365317     9B1g    4.378174  
      28Ag     4.378189    18B2u    4.405070    18B3u    4.405070  
      10B1g    4.405122    29Ag     4.405123    11B1g    4.414970  
      30Ag     4.415006    16B3g    4.421121    16B2g    4.421121  
       9Au     4.470855    27B1u    4.470893    28B1u    4.475710  
      10Au     4.514594    29B1u    4.514616    17B3g    4.563443  
      17B2g    4.563443    18B2g    4.587829    18B3g    4.587829  
      19B3u    4.610389    19B2u    4.610389    31Ag     4.760584  
      11Au     4.793104    30B1u    4.793105    19B3g    5.096323  
      19B2g    5.096323    31B1u    5.592592    20B3u    5.730917  
      20B2u    5.730917    20B2g    6.336039    20B3g    6.336039  
      32Ag     6.903878    32B1u    6.955602    12B1g   10.771505  
      33Ag    10.771578    21B3u   10.798868    21B2u   10.798868  
      12Au    10.827996    33B1u   10.828067    34Ag    10.951484  
      21B3g   11.040294    21B2g   11.040294    34B1u   11.500708  
      35Ag    22.641817    35B1u   25.446010  

    Final Occupation by Irrep:
             Ag   B1g   B2g   B3g    Au   B1u   B2u   B3u 
    DOCC [     5,    0,    2,    2,    0,    4,    2,    2 ]

  @DF-RKS Final Energy:  -920.27534832997674

   => Energetics <=

    Nuclear Repulsion Energy =             76.5972368154087633
    One-Electron Energy =               -1422.4874378428769433
    Two-Electron Energy =                 468.1682113628015713
    DFT Exchange-Correlation Energy =     -42.6957175593265958
    Empirical Dispersion Energy =           0.0000000000000000
    VV10 Nonlocal Energy =                  0.1423588940165952
    Total Energy =                       -920.2753483299766231

Computation Completed


Properties will be evaluated at   0.000000,   0.000000,   0.000000 [a0]

Properties computed using the SCF density matrix

  Nuclear Dipole Moment: [e a0]
     X:     0.0000      Y:     0.0000      Z:     0.0000

  Electronic Dipole Moment: [e a0]
     X:     0.0000      Y:     0.0000      Z:     0.0000

  Dipole Moment: [e a0]
     X:     0.0000      Y:     0.0000      Z:     0.0000     Total:     0.0000

  Dipole Moment: [D]
     X:     0.0000      Y:     0.0000      Z:     0.0000     Total:     0.0000


*** tstop() called on bp1-compute00065.data.bp.acrc.priv at Tue Apr 27 16:33:08 2021
Module time:
	user time   =      75.48 seconds =       1.26 minutes
	system time =       4.21 seconds =       0.07 minutes
	total time  =          5 seconds =       0.08 minutes
Total time:
	user time   =      75.48 seconds =       1.26 minutes
	system time =       4.21 seconds =       0.07 minutes
	total time  =          5 seconds =       0.08 minutes

  //>>>>>>>>>>>>>>>>>>>>>>>>>>>>>>>>>>>//
  //    Loading displacement 2 of 3    //
  //<<<<<<<<<<<<<<<<<<<<<<<<<<<<<<<<<<<//

*** tstart() called on bp1-compute00065.data.bp.acrc.priv
*** at Tue Apr 27 16:33:08 2021

   => Loading Basis Set <=

    Name: AUG-CC-PV(Q+D)Z
    Role: ORBITAL
    Keyword: BASIS
    atoms 1-2 entry CL         line  1246 file /work/zw18965/.conda/envs/p4env/share/psi4/basis/aug-cc-pv_qpd_z.gbs 


         ---------------------------------------------------------
                                   SCF
               by Justin Turney, Rob Parrish, Andy Simmonett
                          and Daniel G. A. Smith
                              RKS Reference
                       24 Threads, 137329 MiB Core
         ---------------------------------------------------------

  ==> Geometry <==

    Molecular point group: d2h
    Full point group: D_inf_h

    Geometry (in Angstrom), charge = 0, multiplicity = 1:

       Center              X                  Y                   Z               Mass       
    ------------   -----------------  -----------------  -----------------  -----------------
         CL           0.000000000000     0.000000000000    -0.998604444681    34.968852682000
         CL           0.000000000000     0.000000000000     0.998604444681    34.968852682000

  Running in d2h symmetry.

  Rotational constants: A = ************  B =      0.24171  C =      0.24171 [cm^-1]
  Rotational constants: A = ************  B =   7246.34206  C =   7246.34206 [MHz]
  Nuclear repulsion =   76.572968755638541

  Charge       = 0
  Multiplicity = 1
  Electrons    = 34
  Nalpha       = 17
  Nbeta        = 17

  ==> Algorithm <==

  SCF Algorithm Type is DF.
  DIIS enabled.
  MOM disabled.
  Fractional occupation disabled.
  Guess Type is SAD.
  Energy threshold   = 1.00e-08
  Density threshold  = 1.00e-08
  Integral threshold = 0.00e+00

  ==> Primary Basis <==

  Basis Set: AUG-CC-PV(Q+D)Z
    Blend: AUG-CC-PV(Q+D)Z
    Number of shells: 46
    Number of basis function: 178
    Number of Cartesian functions: 230
    Spherical Harmonics?: true
    Max angular momentum: 4

  ==> DFT Potential <==

   => Composite Functional: WB97X-V <= 

    wB97X-V Hyb-GGA Exchange-Correlation Functional

    N. Mardirossian and M. Head-Gordon, Phys. Chem. Chem. Phys. 16, 9904 (2014)

    Deriv               =              1
    GGA                 =           TRUE
    Meta                =          FALSE

    Exchange Hybrid     =           TRUE
    MP2 Hybrid          =          FALSE

   => Exchange-Correlation Functionals <=

    1.0000   wB97X-V range-separated functional

   => Exact (HF) Exchange <=

    0.8330            HF,LR [omega = 0.3000]
    0.1670               HF 

   => VV10 Non-Local Parameters <=

    VV10 B              =     6.0000E+00
    VV10 C              =     1.0000E-02

   => Molecular Quadrature <=

    Radial Scheme          =       TREUTLER
    Pruning Scheme         =           FLAT
    Nuclear Scheme         =       TREUTLER

    BS radius alpha        =              1
    Pruning alpha          =              1
    Radial Points          =             75
    Spherical Points       =            302
    Total Points           =          44898
    Total Blocks           =            422
    Max Points             =            255
    Max Functions          =            178

   => Loading Basis Set <=

    Name: (AUG-CC-PV(Q+D)Z AUX)
    Role: JKFIT
    Keyword: DF_BASIS_SCF
    atoms 1-2 entry CL         line   904 file /work/zw18965/.conda/envs/p4env/share/psi4/basis/aug-cc-pvqz-jkfit.gbs 

  ==> Pre-Iterations <==

   -------------------------------------------------------
    Irrep   Nso     Nmo     Nalpha   Nbeta   Ndocc  Nsocc
   -------------------------------------------------------
     Ag        35      35       0       0       0       0
     B1g       12      12       0       0       0       0
     B2g       21      21       0       0       0       0
     B3g       21      21       0       0       0       0
     Au        12      12       0       0       0       0
     B1u       35      35       0       0       0       0
     B2u       21      21       0       0       0       0
     B3u       21      21       0       0       0       0
   -------------------------------------------------------
    Total     178     178      17      17      17       0
   -------------------------------------------------------

  ==> Integral Setup <==

  ==> DiskDFJK: Density-Fitted J/K Matrices <==

    J tasked:                  Yes
    K tasked:                  Yes
    wK tasked:                 Yes
    Omega:               3.000E-01
    OpenMP threads:             24
    Integrals threads:          24
    Memory [MiB]:           102788
    Algorithm:                Core
    Integral Cache:           NONE
    Schwarz Cutoff:          1E-12
    Fitting Condition:       1E-10

   => Auxiliary Basis Set <=

  Basis Set: (AUG-CC-PV(Q+D)Z AUX)
    Blend: AUG-CC-PVQZ-JKFIT
    Number of shells: 92
    Number of basis function: 368
    Number of Cartesian functions: 494
    Spherical Harmonics?: true
    Max angular momentum: 5

  Cached 100.0% of DFT collocation blocks in 0.203 [GiB].

  Minimum eigenvalue in the overlap matrix is 1.0559793086E-04.
  Using Symmetric Orthogonalization.

  SCF Guess: Superposition of Atomic Densities via on-the-fly atomic UHF.

  ==> Iterations <==

                           Total Energy        Delta E     RMS |[F,P]|

   @DF-RKS iter SAD:  -920.13609201566317   -9.20136e+02   0.00000e+00 
   @DF-RKS iter   1:  -920.25769816743650   -1.21606e-01   3.61796e-03 DIIS
   @DF-RKS iter   2:  -920.27129368266719   -1.35955e-02   1.88646e-03 DIIS
   @DF-RKS iter   3:  -920.27519766299815   -3.90398e-03   2.52902e-04 DIIS
   @DF-RKS iter   4:  -920.27531940258200   -1.21740e-04   8.06234e-05 DIIS
   @DF-RKS iter   5:  -920.27533752526961   -1.81227e-05   1.12365e-05 DIIS
   @DF-RKS iter   6:  -920.27533819503276   -6.69763e-07   1.19339e-06 DIIS
   @DF-RKS iter   7:  -920.27533820237397   -7.34121e-09   2.05208e-07 DIIS
   @DF-RKS iter   8:  -920.27533820252904   -1.55069e-10   2.50098e-08 DIIS
   @DF-RKS iter   9:  -920.27533820253086   -1.81899e-12   1.76982e-09 DIIS
  Energy and wave function converged.


  ==> Post-Iterations <==

    Orbital Energies [Eh]
    ---------------------

    Doubly Occupied:                                                      

       1B1u -101.606433     1Ag  -101.606430     2Ag    -9.619313  
       2B1u   -9.619269     3Ag    -7.379372     3B1u   -7.379233  
       1B3g   -7.364876     1B2g   -7.364876     1B2u   -7.364874  
       1B3u   -7.364874     4Ag    -1.067220     4B1u   -0.894539  
       5Ag    -0.572062     2B3u   -0.523243     2B2u   -0.523243  
       2B2g   -0.411282     2B3g   -0.411282  

    Virtual:                                                              

       5B1u   -0.033719     6B1u    0.068385     6Ag     0.081633  
       3B3u    0.093359     3B2u    0.093359     7Ag     0.112152  
       3B3g    0.118953     3B2g    0.118953     8Ag     0.201281  
       1B1g    0.201283     7B1u    0.201527     4B3u    0.242218  
       4B2u    0.242218     9Ag     0.287601     1Au     0.296780  
       8B1u    0.296781     9B1u    0.319725     4B2g    0.345813  
       4B3g    0.345813     5B3u    0.423021     5B2u    0.423021  
      10Ag     0.471408     6B3u    0.480370     6B2u    0.480370  
      10B1u    0.513542     5B2g    0.514262     5B3g    0.514262  
      11Ag     0.515428     2B1g    0.515428    12Ag     0.531727  
       2Au     0.588710    11B1u    0.588717    13Ag     0.628119  
       6B2g    0.676795     6B3g    0.676795     7B3u    0.709759  
       7B2u    0.709759    12B1u    0.721512     3B1g    0.771105  
      14Ag     0.771118     7B2g    0.850787     7B3g    0.850787  
      13B1u    0.975755     8B2u    0.986028     8B3u    0.986028  
      14B1u    1.025468     3Au     1.025484    15Ag     1.053588  
       8B3g    1.088381     8B2g    1.088381    15B1u    1.146645  
       9B2u    1.387249     9B3u    1.387249     4B1g    1.398767  
      16Ag     1.398768    16B1u    1.424961    17Ag     1.432569  
      17B1u    1.474368     4Au     1.474370     9B3g    1.485373  
       9B2g    1.485373    10B3u    1.587026    10B2u    1.587026  
      18Ag     1.632347    11B3u    1.636785    11B2u    1.636785  
       5B1g    1.676916    19Ag     1.676919     6B1g    1.689382  
      20Ag     1.689385    10B2g    1.815248    10B3g    1.815248  
      12B3u    1.819565    12B2u    1.819565    18B1u    1.826022  
       5Au     1.826023    13B2u    1.862234    13B3u    1.862234  
      11B3g    1.935240    11B2g    1.935240    21Ag     2.017086  
       7B1g    2.019182    22Ag     2.019199    19B1u    2.060585  
       6Au     2.060586    12B2g    2.067848    12B3g    2.067848  
      20B1u    2.096633    13B3g    2.147621    13B2g    2.147621  
      21B1u    2.324238    14B3u    2.345065    14B2u    2.345065  
      23Ag     2.390245     7Au     2.473941    22B1u    2.473942  
      23B1u    2.632257    24Ag     2.799006    14B2g    2.937839  
      14B3g    2.937839    24B1u    3.152622     8B1g    3.439089  
      25Ag     3.439121     8Au     3.509877    25B1u    3.509906  
      15B3u    3.522950    15B2u    3.522950    26Ag     3.605294  
      15B3g    3.693640    15B2g    3.693640    27Ag     4.191979  
      16B2u    4.290619    16B3u    4.290619    26B1u    4.317721  
      17B2u    4.365334    17B3u    4.365334     9B1g    4.378053  
      28Ag     4.378067    18B3u    4.405125    18B2u    4.405125  
      10B1g    4.405561    29Ag     4.405562    11B1g    4.414991  
      30Ag     4.415028    16B3g    4.421103    16B2g    4.421103  
       9Au     4.470832    27B1u    4.470870    28B1u    4.475553  
      10Au     4.514483    29B1u    4.514504    17B3g    4.563302  
      17B2g    4.563302    18B2g    4.587671    18B3g    4.587671  
      19B3u    4.609937    19B2u    4.609937    31Ag     4.760187  
      11Au     4.792595    30B1u    4.792596    19B3g    5.095595  
      19B2g    5.095595    31B1u    5.591059    20B3u    5.730834  
      20B2u    5.730834    20B2g    6.335204    20B3g    6.335204  
      32Ag     6.902663    32B1u    6.956337    12B1g   10.771507  
      33Ag    10.771580    21B2u   10.798782    21B3u   10.798782  
      12Au    10.827932    33B1u   10.828004    34Ag    10.951086  
      21B3g   11.039967    21B2g   11.039967    34B1u   11.500138  
      35Ag    22.641762    35B1u   25.440416  

    Final Occupation by Irrep:
             Ag   B1g   B2g   B3g    Au   B1u   B2u   B3u 
    DOCC [     5,    0,    2,    2,    0,    4,    2,    2 ]

  @DF-RKS Final Energy:  -920.27533820253086

   => Energetics <=

    Nuclear Repulsion Energy =             76.5729687556385414
    One-Electron Energy =               -1422.4389731246278643
    Two-Electron Energy =                 468.1438316098115138
    DFT Exchange-Correlation Energy =     -42.6955255530100999
    Empirical Dispersion Energy =           0.0000000000000000
    VV10 Nonlocal Energy =                  0.1423601096569915
    Total Energy =                       -920.2753382025308611

Computation Completed


Properties will be evaluated at   0.000000,   0.000000,   0.000000 [a0]

Properties computed using the SCF density matrix

  Nuclear Dipole Moment: [e a0]
     X:     0.0000      Y:     0.0000      Z:     0.0000

  Electronic Dipole Moment: [e a0]
     X:     0.0000      Y:     0.0000      Z:     0.0000

  Dipole Moment: [e a0]
     X:     0.0000      Y:     0.0000      Z:     0.0000     Total:     0.0000

  Dipole Moment: [D]
     X:     0.0000      Y:     0.0000      Z:     0.0000     Total:     0.0000


*** tstop() called on bp1-compute00065.data.bp.acrc.priv at Tue Apr 27 16:33:11 2021
Module time:
	user time   =      79.78 seconds =       1.33 minutes
	system time =       3.24 seconds =       0.05 minutes
	total time  =          3 seconds =       0.05 minutes
Total time:
	user time   =     155.43 seconds =       2.59 minutes
	system time =       7.46 seconds =       0.12 minutes
	total time  =          8 seconds =       0.13 minutes

  //>>>>>>>>>>>>>>>>>>>>>>>>>>>>>>>>>>>//
  //    Loading displacement 3 of 3    //
  //<<<<<<<<<<<<<<<<<<<<<<<<<<<<<<<<<<<//

*** tstart() called on bp1-compute00065.data.bp.acrc.priv
*** at Tue Apr 27 16:33:11 2021

   => Loading Basis Set <=

    Name: AUG-CC-PV(Q+D)Z
    Role: ORBITAL
    Keyword: BASIS
    atoms 1-2 entry CL         line  1246 file /work/zw18965/.conda/envs/p4env/share/psi4/basis/aug-cc-pv_qpd_z.gbs 


         ---------------------------------------------------------
                                   SCF
               by Justin Turney, Rob Parrish, Andy Simmonett
                          and Daniel G. A. Smith
                              RKS Reference
                       24 Threads, 137329 MiB Core
         ---------------------------------------------------------

  ==> Geometry <==

    Molecular point group: d2h
    Full point group: D_inf_h

    Geometry (in Angstrom), charge = 0, multiplicity = 1:

       Center              X                  Y                   Z               Mass       
    ------------   -----------------  -----------------  -----------------  -----------------
         CL           0.000000000000     0.000000000000    -0.997971675319    34.968852682000
         CL           0.000000000000     0.000000000000     0.997971675319    34.968852682000

  Running in d2h symmetry.

  Rotational constants: A = ************  B =      0.24202  C =      0.24202 [cm^-1]
  Rotational constants: A = ************  B =   7255.53414  C =   7255.53414 [MHz]
  Nuclear repulsion =   76.621520262474121

  Charge       = 0
  Multiplicity = 1
  Electrons    = 34
  Nalpha       = 17
  Nbeta        = 17

  ==> Algorithm <==

  SCF Algorithm Type is DF.
  DIIS enabled.
  MOM disabled.
  Fractional occupation disabled.
  Guess Type is SAD.
  Energy threshold   = 1.00e-08
  Density threshold  = 1.00e-08
  Integral threshold = 0.00e+00

  ==> Primary Basis <==

  Basis Set: AUG-CC-PV(Q+D)Z
    Blend: AUG-CC-PV(Q+D)Z
    Number of shells: 46
    Number of basis function: 178
    Number of Cartesian functions: 230
    Spherical Harmonics?: true
    Max angular momentum: 4

  ==> DFT Potential <==

   => Composite Functional: WB97X-V <= 

    wB97X-V Hyb-GGA Exchange-Correlation Functional

    N. Mardirossian and M. Head-Gordon, Phys. Chem. Chem. Phys. 16, 9904 (2014)

    Deriv               =              1
    GGA                 =           TRUE
    Meta                =          FALSE

    Exchange Hybrid     =           TRUE
    MP2 Hybrid          =          FALSE

   => Exchange-Correlation Functionals <=

    1.0000   wB97X-V range-separated functional

   => Exact (HF) Exchange <=

    0.8330            HF,LR [omega = 0.3000]
    0.1670               HF 

   => VV10 Non-Local Parameters <=

    VV10 B              =     6.0000E+00
    VV10 C              =     1.0000E-02

   => Molecular Quadrature <=

    Radial Scheme          =       TREUTLER
    Pruning Scheme         =           FLAT
    Nuclear Scheme         =       TREUTLER

    BS radius alpha        =              1
    Pruning alpha          =              1
    Radial Points          =             75
    Spherical Points       =            302
    Total Points           =          44898
    Total Blocks           =            422
    Max Points             =            255
    Max Functions          =            178

   => Loading Basis Set <=

    Name: (AUG-CC-PV(Q+D)Z AUX)
    Role: JKFIT
    Keyword: DF_BASIS_SCF
    atoms 1-2 entry CL         line   904 file /work/zw18965/.conda/envs/p4env/share/psi4/basis/aug-cc-pvqz-jkfit.gbs 

  ==> Pre-Iterations <==

   -------------------------------------------------------
    Irrep   Nso     Nmo     Nalpha   Nbeta   Ndocc  Nsocc
   -------------------------------------------------------
     Ag        35      35       0       0       0       0
     B1g       12      12       0       0       0       0
     B2g       21      21       0       0       0       0
     B3g       21      21       0       0       0       0
     Au        12      12       0       0       0       0
     B1u       35      35       0       0       0       0
     B2u       21      21       0       0       0       0
     B3u       21      21       0       0       0       0
   -------------------------------------------------------
    Total     178     178      17      17      17       0
   -------------------------------------------------------

  ==> Integral Setup <==

  ==> DiskDFJK: Density-Fitted J/K Matrices <==

    J tasked:                  Yes
    K tasked:                  Yes
    wK tasked:                 Yes
    Omega:               3.000E-01
    OpenMP threads:             24
    Integrals threads:          24
    Memory [MiB]:           102788
    Algorithm:                Core
    Integral Cache:           NONE
    Schwarz Cutoff:          1E-12
    Fitting Condition:       1E-10

   => Auxiliary Basis Set <=

  Basis Set: (AUG-CC-PV(Q+D)Z AUX)
    Blend: AUG-CC-PVQZ-JKFIT
    Number of shells: 92
    Number of basis function: 368
    Number of Cartesian functions: 494
    Spherical Harmonics?: true
    Max angular momentum: 5

  Cached 100.0% of DFT collocation blocks in 0.204 [GiB].

  Minimum eigenvalue in the overlap matrix is 1.0529146854E-04.
  Using Symmetric Orthogonalization.

  SCF Guess: Superposition of Atomic Densities via on-the-fly atomic UHF.

  ==> Iterations <==

                           Total Energy        Delta E     RMS |[F,P]|

   @DF-RKS iter SAD:  -920.13772505161069   -9.20138e+02   0.00000e+00 
   @DF-RKS iter   1:  -920.25769165845259   -1.19967e-01   3.61972e-03 DIIS
   @DF-RKS iter   2:  -920.27130779043216   -1.36161e-02   1.88804e-03 DIIS
   @DF-RKS iter   3:  -920.27521745275476   -3.90966e-03   2.52967e-04 DIIS
   @DF-RKS iter   4:  -920.27533930903235   -1.21856e-04   8.07527e-05 DIIS
   @DF-RKS iter   5:  -920.27535747382240   -1.81648e-05   1.12410e-05 DIIS
   @DF-RKS iter   6:  -920.27535814363000   -6.69808e-07   1.19358e-06 DIIS
   @DF-RKS iter   7:  -920.27535815098508   -7.35508e-09   2.05292e-07 DIIS
   @DF-RKS iter   8:  -920.27535815113981   -1.54728e-10   2.50237e-08 DIIS
   @DF-RKS iter   9:  -920.27535815114175   -1.93268e-12   1.77030e-09 DIIS
  Energy and wave function converged.


  ==> Post-Iterations <==

    Orbital Energies [Eh]
    ---------------------

    Doubly Occupied:                                                      

       1B1u -101.606376     1Ag  -101.606372     2Ag    -9.619273  
       2B1u   -9.619230     3Ag    -7.379328     3B1u   -7.379187  
       1B2g   -7.364837     1B3g   -7.364837     1B3u   -7.364835  
       1B2u   -7.364835     4Ag    -1.067539     4B1u   -0.894405  
       5Ag    -0.572210     2B2u   -0.523398     2B3u   -0.523398  
       2B2g   -0.411166     2B3g   -0.411166  

    Virtual:                                                              

       5B1u   -0.033330     6B1u    0.068416     6Ag     0.081635  
       3B3u    0.093349     3B2u    0.093349     7Ag     0.112131  
       3B2g    0.118954     3B3g    0.118954     8Ag     0.201258  
       1B1g    0.201260     7B1u    0.201537     4B2u    0.242262  
       4B3u    0.242262     9Ag     0.287541     1Au     0.296824  
       8B1u    0.296826     9B1u    0.319838     4B2g    0.345818  
       4B3g    0.345818     5B3u    0.422977     5B2u    0.422977  
      10Ag     0.471316     6B2u    0.480339     6B3u    0.480339  
      10B1u    0.513472     5B2g    0.514261     5B3g    0.514261  
      11Ag     0.515343     2B1g    0.515343    12Ag     0.531680  
       2Au     0.588768    11B1u    0.588774    13Ag     0.628382  
       6B2g    0.677040     6B3g    0.677040     7B3u    0.709717  
       7B2u    0.709717    12B1u    0.721909     3B1g    0.771271  
      14Ag     0.771284     7B2g    0.850881     7B3g    0.850881  
      13B1u    0.976013     8B3u    0.986225     8B2u    0.986225  
      14B1u    1.025611     3Au     1.025626    15Ag     1.053519  
       8B2g    1.088402     8B3g    1.088402    15B1u    1.146724  
       9B3u    1.387167     9B2u    1.387167     4B1g    1.398756  
      16Ag     1.398757    16B1u    1.425021    17Ag     1.432349  
      17B1u    1.474479     4Au     1.474481     9B2g    1.484969  
       9B3g    1.484969    10B2u    1.587047    10B3u    1.587047  
      18Ag     1.632472    11B2u    1.636863    11B3u    1.636863  
       5B1g    1.677028    19Ag     1.677031     6B1g    1.689244  
      20Ag     1.689247    10B2g    1.815950    10B3g    1.815950  
      12B3u    1.820103    12B2u    1.820103    18B1u    1.826170  
       5Au     1.826171    13B3u    1.862194    13B2u    1.862194  
      11B2g    1.935362    11B3g    1.935362    21Ag     2.017448  
       7B1g    2.019552    22Ag     2.019570    19B1u    2.060787  
       6Au     2.060788    12B3g    2.068250    12B2g    2.068250  
      20B1u    2.096998    13B2g    2.147821    13B3g    2.147821  
      21B1u    2.324975    14B3u    2.345487    14B2u    2.345487  
      23Ag     2.391971     7Au     2.474712    22B1u    2.474713  
      23B1u    2.631551    24Ag     2.799199    14B2g    2.938267  
      14B3g    2.938267    24B1u    3.152844     8B1g    3.439052  
      25Ag     3.439084     8Au     3.509957    25B1u    3.509986  
      15B2u    3.523071    15B3u    3.523071    26Ag     3.604517  
      15B2g    3.694263    15B3g    3.694263    27Ag     4.191297  
      16B2u    4.289256    16B3u    4.289256    26B1u    4.319934  
      17B2u    4.365301    17B3u    4.365301     9B1g    4.378296  
      28Ag     4.378310    10B1g    4.404682    29Ag     4.404684  
      18B2u    4.405015    18B3u    4.405015    11B1g    4.414948  
      30Ag     4.414984    16B3g    4.421139    16B2g    4.421139  
       9Au     4.470879    27B1u    4.470916    28B1u    4.475869  
      10Au     4.514706    29B1u    4.514727    17B3g    4.563585  
      17B2g    4.563585    18B3g    4.587987    18B2g    4.587987  
      19B2u    4.610842    19B3u    4.610842    31Ag     4.760982  
      11Au     4.793614    30B1u    4.793616    19B2g    5.097052  
      19B3g    5.097052    31B1u    5.594125    20B2u    5.731000  
      20B3u    5.731000    20B3g    6.336874    20B2g    6.336874  
      32Ag     6.905090    32B1u    6.954872    12B1g   10.771503  
      33Ag    10.771576    21B2u   10.798956    21B3u   10.798956  
      12Au    10.828059    33B1u   10.828131    34Ag    10.951884  
      21B2g   11.040622    21B3g   11.040622    34B1u   11.501275  
      35Ag    22.641876    35B1u   25.451605  

    Final Occupation by Irrep:
             Ag   B1g   B2g   B3g    Au   B1u   B2u   B3u 
    DOCC [     5,    0,    2,    2,    0,    4,    2,    2 ]

  @DF-RKS Final Energy:  -920.27535815114175

   => Energetics <=

    Nuclear Repulsion Energy =             76.6215202624741210
    One-Electron Energy =               -1422.5359324704179471
    Two-Electron Energy =                 468.1926061893974520
    DFT Exchange-Correlation Energy =     -42.6959098110473505
    Empirical Dispersion Energy =           0.0000000000000000
    VV10 Nonlocal Energy =                  0.1423576784518149
    Total Energy =                       -920.2753581511418588

Computation Completed


Properties will be evaluated at   0.000000,   0.000000,   0.000000 [a0]

Properties computed using the SCF density matrix

  Nuclear Dipole Moment: [e a0]
     X:     0.0000      Y:     0.0000      Z:     0.0000

  Electronic Dipole Moment: [e a0]
     X:     0.0000      Y:     0.0000      Z:     0.0000

  Dipole Moment: [e a0]
     X:     0.0000      Y:     0.0000      Z:     0.0000     Total:     0.0000

  Dipole Moment: [D]
     X:     0.0000      Y:     0.0000      Z:     0.0000     Total:     0.0000


*** tstop() called on bp1-compute00065.data.bp.acrc.priv at Tue Apr 27 16:33:15 2021
Module time:
	user time   =      73.77 seconds =       1.23 minutes
	system time =       2.25 seconds =       0.04 minutes
	total time  =          4 seconds =       0.07 minutes
Total time:
	user time   =     229.35 seconds =       3.82 minutes
	system time =       9.72 seconds =       0.16 minutes
	total time  =         12 seconds =       0.20 minutes

         ----------------------------------------------------------
                                   FINDIF
                     R. A. King and Jonathon Misiewicz
         ---------------------------------------------------------

  Computing gradient from energies.
    Using 3-point formula.
    Energy without displacement: -920.2753483300
    Check energies below for precision!
    Forces are for mass-weighted, symmetry-adapted cartesians (in au).

     Coord      Energy(-1)        Energy(+1)            Force
        0   -920.2753382025   -920.2753581511     -0.0019948611


-------------------------------------------------------------
  ## New Matrix (Symmetry 0) ##
  Irrep: 1 Size: 2 x 3

                 1                   2                   3

    1     0.00000000000000     0.00000000000000    -0.00834138857835
    2     0.00000000000000     0.00000000000000     0.00834138857835




			-----------------------------------------
			 OPTKING 2.0: for geometry optimizations 
			  - R.A. King,  Bethel University        
			-----------------------------------------
	At level 1: Red. Int., RFO, no backsteps, dynamic trust

	Internal coordinates to be generated automatically.
	Detected frag 1 with atoms:  1 2
	---Fragment 1 Bond Connectivity---
	 1 : 2
	 2 : 1

	---Fragment 1 Geometry and Gradient---
	 CL          0.0000000000        0.0000000000       -1.8864910277
	 CL          0.0000000000        0.0000000000        1.8864910277
	             0.0000000000        0.0000000000       -0.0083413886
	             0.0000000000        0.0000000000        0.0083413886

	Previous optimization step data not found.  Starting new optimization.

	---Fragment 1 Intrafragment Coordinates---
	 - Coordinate -           - BOHR/RAD -       - ANG/DEG -
	 R(1,2)           =         3.772982	       1.996576

	Current energy   :      -920.2753483300

	Generating empirical Hessian (Schlegel '84) for each fragment.
	Taking RFO optimization step.
	Going to follow RFO solution 1.
	Using RFO vector 1.
	Norm of target step-size    0.02383
	Projected energy change by RFO approximation:         0.0000850921

	Back-transformation to cartesian coordinates...
	Successfully converged to displaced geometry.

	--- Internal Coordinate Step in ANG or DEG, aJ/ANG or AJ/DEG ---
	 ---------------------------------------------------------------------------
	   Coordinate                Previous        Force       Change         New 
	   ----------                --------       ------       ------       ------
	    1 R(1,2)          =      1.996576    -0.068722    -0.012610     1.983966
	 ---------------------------------------------------------------------------
	Successfully symmetrized geometry.

  ==> Convergence Check <==

  Measures of convergence in internal coordinates in au.
  Criteria marked as inactive (o), active & met (*), and active & unmet ( ).
  --------------------------------------------------------------------------------------------- ~
   Step     Total Energy     Delta E     MAX Force     RMS Force      MAX Disp      RMS Disp    ~
  --------------------------------------------------------------------------------------------- ~
    Convergence Criteria    1.00e-06 *    3.00e-04 *             o    1.20e-03 *             o  ~
  --------------------------------------------------------------------------------------------- ~
      1    -920.27534833   -9.20e+02      8.34e-03      8.34e-03 o    2.38e-02      2.38e-02 o  ~
  ---------------------------------------------------------------------------------------------

	Writing optimization data to binary file.
	Structure for next step:
	Cartesian Geometry (in Angstrom)
	   CL     0.0000000000   0.0000000000  -0.9919832292
	   CL     0.0000000000   0.0000000000   0.9919832292
			--------------------------
			 OPTKING Finished Execution 
			--------------------------

    Structure for next step:
    Molecular point group: d2h
    Full point group: D_inf_h

    Geometry (in Angstrom), charge = 0, multiplicity = 1:

    CL           0.000000000000     0.000000000000    -0.991983233105
    CL           0.000000000000     0.000000000000     0.991983233105

gradient() will perform gradient computation by finite difference of analytic energies.

         ----------------------------------------------------------
                                   FINDIF
                     R. A. King and Jonathon Misiewicz
         ---------------------------------------------------------

  Using finite-differences of energies to determine gradients.
    Generating geometries for use with 3-point formula.
    Displacement size will be 5.00e-03.
    Number of atoms is 2.
    Number of symmetric SALCs is 1.
    Translations projected? 1. Rotations projected? 1.
    Number of geometries (including reference) is 3.

  //>>>>>>>>>>>>>>>>>>>>>>>>>>>>>>>>>>>//
  //    Loading displacement 1 of 3    //
  //<<<<<<<<<<<<<<<<<<<<<<<<<<<<<<<<<<<//

*** tstart() called on bp1-compute00065.data.bp.acrc.priv
*** at Tue Apr 27 16:33:15 2021

   => Loading Basis Set <=

    Name: AUG-CC-PV(Q+D)Z
    Role: ORBITAL
    Keyword: BASIS
    atoms 1-2 entry CL         line  1246 file /work/zw18965/.conda/envs/p4env/share/psi4/basis/aug-cc-pv_qpd_z.gbs 


         ---------------------------------------------------------
                                   SCF
               by Justin Turney, Rob Parrish, Andy Simmonett
                          and Daniel G. A. Smith
                              RKS Reference
                       24 Threads, 137329 MiB Core
         ---------------------------------------------------------

  ==> Geometry <==

    Molecular point group: d2h
    Full point group: D_inf_h

    Geometry (in Angstrom), charge = 0, multiplicity = 1:

       Center              X                  Y                   Z               Mass       
    ------------   -----------------  -----------------  -----------------  -----------------
         CL           0.000000000000     0.000000000000    -0.991983233105    34.968852682000
         CL           0.000000000000     0.000000000000     0.991983233105    34.968852682000

  Running in d2h symmetry.

  Rotational constants: A = ************  B =      0.24495  C =      0.24495 [cm^-1]
  Rotational constants: A = ************  B =   7343.39952  C =   7343.39952 [MHz]
  Nuclear repulsion =   77.084071978160836

  Charge       = 0
  Multiplicity = 1
  Electrons    = 34
  Nalpha       = 17
  Nbeta        = 17

  ==> Algorithm <==

  SCF Algorithm Type is DF.
  DIIS enabled.
  MOM disabled.
  Fractional occupation disabled.
  Guess Type is READ.
  Energy threshold   = 1.00e-08
  Density threshold  = 1.00e-08
  Integral threshold = 0.00e+00

  ==> Primary Basis <==

  Basis Set: AUG-CC-PV(Q+D)Z
    Blend: AUG-CC-PV(Q+D)Z
    Number of shells: 46
    Number of basis function: 178
    Number of Cartesian functions: 230
    Spherical Harmonics?: true
    Max angular momentum: 4

  ==> DFT Potential <==

   => Composite Functional: WB97X-V <= 

    wB97X-V Hyb-GGA Exchange-Correlation Functional

    N. Mardirossian and M. Head-Gordon, Phys. Chem. Chem. Phys. 16, 9904 (2014)

    Deriv               =              1
    GGA                 =           TRUE
    Meta                =          FALSE

    Exchange Hybrid     =           TRUE
    MP2 Hybrid          =          FALSE

   => Exchange-Correlation Functionals <=

    1.0000   wB97X-V range-separated functional

   => Exact (HF) Exchange <=

    0.8330            HF,LR [omega = 0.3000]
    0.1670               HF 

   => VV10 Non-Local Parameters <=

    VV10 B              =     6.0000E+00
    VV10 C              =     1.0000E-02

   => Molecular Quadrature <=

    Radial Scheme          =       TREUTLER
    Pruning Scheme         =           FLAT
    Nuclear Scheme         =       TREUTLER

    BS radius alpha        =              1
    Pruning alpha          =              1
    Radial Points          =             75
    Spherical Points       =            302
    Total Points           =          44898
    Total Blocks           =            422
    Max Points             =            255
    Max Functions          =            178

   => Loading Basis Set <=

    Name: (AUG-CC-PV(Q+D)Z AUX)
    Role: JKFIT
    Keyword: DF_BASIS_SCF
    atoms 1-2 entry CL         line   904 file /work/zw18965/.conda/envs/p4env/share/psi4/basis/aug-cc-pvqz-jkfit.gbs 

   => Loading Basis Set <=

    Name: AUG-CC-PV(Q+D)Z
    Role: ORBITAL
    Keyword: BASIS
    atoms 1-2 entry CL         line  1246 file /work/zw18965/.conda/envs/p4env/share/psi4/basis/aug-cc-pv_qpd_z.gbs 

  Reading orbitals from file 180, no projection.

  ==> Pre-Iterations <==

   -------------------------------------------------------
    Irrep   Nso     Nmo     Nalpha   Nbeta   Ndocc  Nsocc
   -------------------------------------------------------
     Ag        35      35       0       0       0       0
     B1g       12      12       0       0       0       0
     B2g       21      21       0       0       0       0
     B3g       21      21       0       0       0       0
     Au        12      12       0       0       0       0
     B1u       35      35       0       0       0       0
     B2u       21      21       0       0       0       0
     B3u       21      21       0       0       0       0
   -------------------------------------------------------
    Total     178     178      17      17      17       0
   -------------------------------------------------------

  ==> Integral Setup <==

  ==> DiskDFJK: Density-Fitted J/K Matrices <==

    J tasked:                  Yes
    K tasked:                  Yes
    wK tasked:                 Yes
    Omega:               3.000E-01
    OpenMP threads:             24
    Integrals threads:          24
    Memory [MiB]:           102788
    Algorithm:                Core
    Integral Cache:           NONE
    Schwarz Cutoff:          1E-12
    Fitting Condition:       1E-10

   => Auxiliary Basis Set <=

  Basis Set: (AUG-CC-PV(Q+D)Z AUX)
    Blend: AUG-CC-PVQZ-JKFIT
    Number of shells: 92
    Number of basis function: 368
    Number of Cartesian functions: 494
    Spherical Harmonics?: true
    Max angular momentum: 5

  Cached 100.0% of DFT collocation blocks in 0.204 [GiB].

  Minimum eigenvalue in the overlap matrix is 1.0242668904E-04.
  Using Symmetric Orthogonalization.

  SCF Guess: Orbitals guess was supplied from a previous computation.

  ==> Iterations <==

                           Total Energy        Delta E     RMS |[F,P]|

   @DF-RKS iter   0:  -920.28242593500443   -9.20282e+02   4.13194e-04 
   @DF-RKS iter   1:  -920.27547429042340    6.95164e-03   7.64399e-05 DIIS
   @DF-RKS iter   2:  -920.27548062969947   -6.33928e-06   5.81366e-05 DIIS
   @DF-RKS iter   3:  -920.27548526979990   -4.64010e-06   3.35764e-06 DIIS
   @DF-RKS iter   4:  -920.27548530707566   -3.72758e-08   8.62799e-07 DIIS
   @DF-RKS iter   5:  -920.27548530933143   -2.25577e-09   2.48583e-07 DIIS
   @DF-RKS iter   6:  -920.27548530945273   -1.21304e-10   1.48761e-08 DIIS
   @DF-RKS iter   7:  -920.27548530945410   -1.36424e-12   1.44502e-09 DIIS
  Energy and wave function converged.


  ==> Post-Iterations <==

    Orbital Energies [Eh]
    ---------------------

    Doubly Occupied:                                                      

       1B1u -101.605824     1Ag  -101.605820     2Ag    -9.618899  
       2B1u   -9.618853     3Ag    -7.378909     3B1u   -7.378756  
       1B3g   -7.364464     1B2g   -7.364464     1B2u   -7.364463  
       1B3u   -7.364463     4Ag    -1.070602     4B1u   -0.893121  
       5Ag    -0.573607     2B3u   -0.524886     2B2u   -0.524886  
       2B3g   -0.410057     2B2g   -0.410057  

    Virtual:                                                              

       5B1u   -0.029634     6B1u    0.068725     6Ag     0.081655  
       3B2u    0.093249     3B3u    0.093249     7Ag     0.111937  
       3B2g    0.118958     3B3g    0.118958     8Ag     0.201047  
       1B1g    0.201048     7B1u    0.201637     4B3u    0.242670  
       4B2u    0.242670     9Ag     0.286968     1Au     0.297243  
       8B1u    0.297244     9B1u    0.320911     4B3g    0.345856  
       4B2g    0.345856     5B3u    0.422541     5B2u    0.422541  
      10Ag     0.470439     6B3u    0.480062     6B2u    0.480062  
      10B1u    0.512816     5B2g    0.514256     5B3g    0.514256  
      11Ag     0.514531     2B1g    0.514532    12Ag     0.531238  
       2Au     0.589319    11B1u    0.589326    13Ag     0.630877  
       6B2g    0.679379     6B3g    0.679379     7B3u    0.709325  
       7B2u    0.709325    12B1u    0.725708     3B1g    0.772851  
      14Ag     0.772863     7B2g    0.851773     7B3g    0.851773  
      13B1u    0.978444     8B3u    0.988059     8B2u    0.988059  
      14B1u    1.026948     3Au     1.026963    15Ag     1.052844  
       8B3g    1.088615     8B2g    1.088615    15B1u    1.147481  
       9B3u    1.386388     9B2u    1.386388     4B1g    1.398636  
      16Ag     1.398637    16B1u    1.425673    17Ag     1.430274  
      17B1u    1.475540     4Au     1.475544     9B3g    1.481117  
       9B2g    1.481117    10B3u    1.587217    10B2u    1.587217  
      18Ag     1.633667    11B3u    1.637625    11B2u    1.637625  
       5B1g    1.678103    19Ag     1.678106     6B1g    1.687936  
      20Ag     1.687939    10B2g    1.822640    10B3g    1.822640  
      12B2u    1.825224    12B3u    1.825224    18B1u    1.827581  
       5Au     1.827582    13B3u    1.861817    13B2u    1.861817  
      11B2g    1.936512    11B3g    1.936512    21Ag     2.020876  
       7B1g    2.023076    22Ag     2.023095     6Au     2.062680  
      19B1u    2.062681    12B2g    2.072078    12B3g    2.072078  
      20B1u    2.100416    13B3g    2.149741    13B2g    2.149741  
      21B1u    2.331961    14B3u    2.349535    14B2u    2.349535  
      23Ag     2.408246     7Au     2.482053    22B1u    2.482054  
      23B1u    2.624926    24Ag     2.801153    14B3g    2.941987  
      14B2g    2.941987    24B1u    3.154952     8B1g    3.438696  
      25Ag     3.438728     8Au     3.510718    25B1u    3.510746  
      15B3u    3.524249    15B2u    3.524249    26Ag     3.597491  
      15B2g    3.700504    15B3g    3.700504    27Ag     4.184858  
      16B3u    4.276439    16B2u    4.276439    26B1u    4.340484  
      17B2u    4.364987    17B3u    4.364987     9B1g    4.380576  
      28Ag     4.380588    10B1g    4.396280    29Ag     4.396284  
      18B2u    4.403885    18B3u    4.403885    11B1g    4.414533  
      30Ag     4.414560    16B3g    4.421474    16B2g    4.421474  
       9Au     4.471329    27B1u    4.471356    28B1u    4.479173  
      10Au     4.516861    29B1u    4.516882    17B3g    4.566339  
      17B2g    4.566339    18B2g    4.590982    18B3g    4.590982  
      19B3u    4.619524    19B2u    4.619524    31Ag     4.768605  
      11Au     4.803417    30B1u    4.803420    19B2g    5.110950  
      19B3g    5.110950    31B1u    5.622889    20B2u    5.732588  
      20B3u    5.732588    20B3g    6.352703    20B2g    6.352703  
      32Ag     6.927655    32B1u    6.941889    12B1g   10.771471  
      33Ag    10.771545    21B3u   10.800715    21B2u   10.800715  
      12Au    10.829269    33B1u   10.829342    34Ag    10.959936  
      21B2g   11.046990    21B3g   11.046990    34B1u   11.511479  
      35Ag    22.643714    35B1u   25.557739  

    Final Occupation by Irrep:
             Ag   B1g   B2g   B3g    Au   B1u   B2u   B3u 
    DOCC [     5,    0,    2,    2,    0,    4,    2,    2 ]

  @DF-RKS Final Energy:  -920.27548530945410

   => Energetics <=

    Nuclear Repulsion Energy =             77.0840719781608357
    One-Electron Energy =               -1423.4595016962389309
    Two-Electron Energy =                 468.6572051036835660
    DFT Exchange-Correlation Energy =     -42.6995953804923403
    Empirical Dispersion Energy =           0.0000000000000000
    VV10 Nonlocal Energy =                  0.1423346854327202
    Total Energy =                       -920.2754853094542113

Computation Completed


Properties will be evaluated at   0.000000,   0.000000,   0.000000 [a0]

Properties computed using the SCF density matrix

  Nuclear Dipole Moment: [e a0]
     X:     0.0000      Y:     0.0000      Z:     0.0000

  Electronic Dipole Moment: [e a0]
     X:     0.0000      Y:     0.0000      Z:     0.0000

  Dipole Moment: [e a0]
     X:     0.0000      Y:     0.0000      Z:     0.0000     Total:     0.0000

  Dipole Moment: [D]
     X:     0.0000      Y:     0.0000      Z:     0.0000     Total:     0.0000


*** tstop() called on bp1-compute00065.data.bp.acrc.priv at Tue Apr 27 16:33:18 2021
Module time:
	user time   =      58.95 seconds =       0.98 minutes
	system time =       1.94 seconds =       0.03 minutes
	total time  =          3 seconds =       0.05 minutes
Total time:
	user time   =     290.63 seconds =       4.84 minutes
	system time =      11.76 seconds =       0.20 minutes
	total time  =         15 seconds =       0.25 minutes

  //>>>>>>>>>>>>>>>>>>>>>>>>>>>>>>>>>>>//
  //    Loading displacement 2 of 3    //
  //<<<<<<<<<<<<<<<<<<<<<<<<<<<<<<<<<<<//

*** tstart() called on bp1-compute00065.data.bp.acrc.priv
*** at Tue Apr 27 16:33:18 2021

   => Loading Basis Set <=

    Name: AUG-CC-PV(Q+D)Z
    Role: ORBITAL
    Keyword: BASIS
    atoms 1-2 entry CL         line  1246 file /work/zw18965/.conda/envs/p4env/share/psi4/basis/aug-cc-pv_qpd_z.gbs 


         ---------------------------------------------------------
                                   SCF
               by Justin Turney, Rob Parrish, Andy Simmonett
                          and Daniel G. A. Smith
                              RKS Reference
                       24 Threads, 137329 MiB Core
         ---------------------------------------------------------

  ==> Geometry <==

    Molecular point group: d2h
    Full point group: D_inf_h

    Geometry (in Angstrom), charge = 0, multiplicity = 1:

       Center              X                  Y                   Z               Mass       
    ------------   -----------------  -----------------  -----------------  -----------------
         CL           0.000000000000     0.000000000000    -0.992299617786    34.968852682000
         CL           0.000000000000     0.000000000000     0.992299617786    34.968852682000

  Running in d2h symmetry.

  Rotational constants: A = ************  B =      0.24479  C =      0.24479 [cm^-1]
  Rotational constants: A = ************  B =   7338.71753  C =   7338.71753 [MHz]
  Nuclear repulsion =   77.059494502667604

  Charge       = 0
  Multiplicity = 1
  Electrons    = 34
  Nalpha       = 17
  Nbeta        = 17

  ==> Algorithm <==

  SCF Algorithm Type is DF.
  DIIS enabled.
  MOM disabled.
  Fractional occupation disabled.
  Guess Type is READ.
  Energy threshold   = 1.00e-08
  Density threshold  = 1.00e-08
  Integral threshold = 0.00e+00

  ==> Primary Basis <==

  Basis Set: AUG-CC-PV(Q+D)Z
    Blend: AUG-CC-PV(Q+D)Z
    Number of shells: 46
    Number of basis function: 178
    Number of Cartesian functions: 230
    Spherical Harmonics?: true
    Max angular momentum: 4

  ==> DFT Potential <==

   => Composite Functional: WB97X-V <= 

    wB97X-V Hyb-GGA Exchange-Correlation Functional

    N. Mardirossian and M. Head-Gordon, Phys. Chem. Chem. Phys. 16, 9904 (2014)

    Deriv               =              1
    GGA                 =           TRUE
    Meta                =          FALSE

    Exchange Hybrid     =           TRUE
    MP2 Hybrid          =          FALSE

   => Exchange-Correlation Functionals <=

    1.0000   wB97X-V range-separated functional

   => Exact (HF) Exchange <=

    0.8330            HF,LR [omega = 0.3000]
    0.1670               HF 

   => VV10 Non-Local Parameters <=

    VV10 B              =     6.0000E+00
    VV10 C              =     1.0000E-02

   => Molecular Quadrature <=

    Radial Scheme          =       TREUTLER
    Pruning Scheme         =           FLAT
    Nuclear Scheme         =       TREUTLER

    BS radius alpha        =              1
    Pruning alpha          =              1
    Radial Points          =             75
    Spherical Points       =            302
    Total Points           =          44898
    Total Blocks           =            422
    Max Points             =            255
    Max Functions          =            178

   => Loading Basis Set <=

    Name: (AUG-CC-PV(Q+D)Z AUX)
    Role: JKFIT
    Keyword: DF_BASIS_SCF
    atoms 1-2 entry CL         line   904 file /work/zw18965/.conda/envs/p4env/share/psi4/basis/aug-cc-pvqz-jkfit.gbs 

   => Loading Basis Set <=

    Name: AUG-CC-PV(Q+D)Z
    Role: ORBITAL
    Keyword: BASIS
    atoms 1-2 entry CL         line  1246 file /work/zw18965/.conda/envs/p4env/share/psi4/basis/aug-cc-pv_qpd_z.gbs 

  Reading orbitals from file 180, no projection.

  ==> Pre-Iterations <==

   -------------------------------------------------------
    Irrep   Nso     Nmo     Nalpha   Nbeta   Ndocc  Nsocc
   -------------------------------------------------------
     Ag        35      35       0       0       0       0
     B1g       12      12       0       0       0       0
     B2g       21      21       0       0       0       0
     B3g       21      21       0       0       0       0
     Au        12      12       0       0       0       0
     B1u       35      35       0       0       0       0
     B2u       21      21       0       0       0       0
     B3u       21      21       0       0       0       0
   -------------------------------------------------------
    Total     178     178      17      17      17       0
   -------------------------------------------------------

  ==> Integral Setup <==

  ==> DiskDFJK: Density-Fitted J/K Matrices <==

    J tasked:                  Yes
    K tasked:                  Yes
    wK tasked:                 Yes
    Omega:               3.000E-01
    OpenMP threads:             24
    Integrals threads:          24
    Memory [MiB]:           102788
    Algorithm:                Core
    Integral Cache:           NONE
    Schwarz Cutoff:          1E-12
    Fitting Condition:       1E-10

   => Auxiliary Basis Set <=

  Basis Set: (AUG-CC-PV(Q+D)Z AUX)
    Blend: AUG-CC-PVQZ-JKFIT
    Number of shells: 92
    Number of basis function: 368
    Number of Cartesian functions: 494
    Spherical Harmonics?: true
    Max angular momentum: 5

  Cached 100.0% of DFT collocation blocks in 0.204 [GiB].

  Minimum eigenvalue in the overlap matrix is 1.0257644133E-04.
  Using Symmetric Orthogonalization.

  SCF Guess: Orbitals guess was supplied from a previous computation.

  ==> Iterations <==

                           Total Energy        Delta E     RMS |[F,P]|

   @DF-RKS iter   0:  -920.27513080469691   -9.20275e+02   2.10047e-05 
   @DF-RKS iter   1:  -920.27548140696092   -3.50602e-04   3.82890e-06 DIIS
   @DF-RKS iter   2:  -920.27548142292721   -1.59663e-08   2.90654e-06 DIIS
   @DF-RKS iter   3:  -920.27548143450815   -1.15809e-08   1.69364e-07 DIIS
   @DF-RKS iter   4:  -920.27548143460263   -9.44738e-11   4.39980e-08 DIIS
   @DF-RKS iter   5:  -920.27548143460808   -5.45697e-12   1.26411e-08 DIIS
   @DF-RKS iter   6:  -920.27548143460820   -1.13687e-13   7.44075e-10 DIIS
  Energy and wave function converged.


  ==> Post-Iterations <==

    Orbital Energies [Eh]
    ---------------------

    Doubly Occupied:                                                      

       1B1u -101.605853     1Ag  -101.605850     2Ag    -9.618919  
       2B1u   -9.618873     3Ag    -7.378931     3B1u   -7.378779  
       1B3g   -7.364484     1B2g   -7.364484     1B2u   -7.364483  
       1B3u   -7.364483     4Ag    -1.070438     4B1u   -0.893190  
       5Ag    -0.573533     2B3u   -0.524806     2B2u   -0.524806  
       2B2g   -0.410117     2B3g   -0.410117  

    Virtual:                                                              

       5B1u   -0.029830     6B1u    0.068708     6Ag     0.081654  
       3B2u    0.093254     3B3u    0.093254     7Ag     0.111948  
       3B2g    0.118957     3B3g    0.118957     8Ag     0.201058  
       1B1g    0.201060     7B1u    0.201631     4B2u    0.242648  
       4B3u    0.242648     9Ag     0.286998     1Au     0.297220  
       8B1u    0.297222     9B1u    0.320854     4B2g    0.345854  
       4B3g    0.345854     5B2u    0.422564     5B3u    0.422564  
      10Ag     0.470486     6B2u    0.480076     6B3u    0.480076  
      10B1u    0.512851     5B3g    0.514256     5B2g    0.514256  
      11Ag     0.514575     2B1g    0.514575    12Ag     0.531262  
       2Au     0.589290    11B1u    0.589297    13Ag     0.630745  
       6B2g    0.679255     6B3g    0.679255     7B2u    0.709346  
       7B3u    0.709346    12B1u    0.725506     3B1g    0.772767  
      14Ag     0.772780     7B3g    0.851726     7B2g    0.851726  
      13B1u    0.978316     8B2u    0.987963     8B3u    0.987963  
      14B1u    1.026878     3Au     1.026893    15Ag     1.052881  
       8B3g    1.088603     8B2g    1.088603    15B1u    1.147440  
       9B3u    1.386429     9B2u    1.386429     4B1g    1.398643  
      16Ag     1.398644    16B1u    1.425634    17Ag     1.430383  
      17B1u    1.475484     4Au     1.475487     9B3g    1.481321  
       9B2g    1.481321    10B3u    1.587209    10B2u    1.587209  
      18Ag     1.633604    11B2u    1.637584    11B3u    1.637584  
       5B1g    1.678046    19Ag     1.678048     6B1g    1.688005  
      20Ag     1.688008    10B3g    1.822284    10B2g    1.822284  
      12B2u    1.824952    12B3u    1.824952    18B1u    1.827506  
       5Au     1.827507    13B2u    1.861836    13B3u    1.861836  
      11B3g    1.936451    11B2g    1.936451    21Ag     2.020695  
       7B1g    2.022889    22Ag     2.022908     6Au     2.062581  
      19B1u    2.062582    12B3g    2.071875    12B2g    2.071875  
      20B1u    2.100237    13B3g    2.149638    13B2g    2.149638  
      21B1u    2.331592    14B2u    2.349319    14B3u    2.349319  
      23Ag     2.407389     7Au     2.481663    22B1u    2.481664  
      23B1u    2.625273    24Ag     2.801044    14B3g    2.941805  
      14B2g    2.941805    24B1u    3.154841     8B1g    3.438715  
      25Ag     3.438747     8Au     3.510677    25B1u    3.510706  
      15B3u    3.524186    15B2u    3.524186    26Ag     3.597847  
      15B3g    3.700159    15B2g    3.700159    27Ag     4.185198  
      16B3u    4.277112    16B2u    4.277112    26B1u    4.339418  
      17B2u    4.365004    17B3u    4.365004     9B1g    4.380459  
      28Ag     4.380472    10B1g    4.396725    29Ag     4.396729  
      18B2u    4.403949    18B3u    4.403949    11B1g    4.414556  
      30Ag     4.414583    16B3g    4.421456    16B2g    4.421456  
       9Au     4.471305    27B1u    4.471333    28B1u    4.478983  
      10Au     4.516746    29B1u    4.516766    17B3g    4.566190  
      17B2g    4.566190    18B2g    4.590824    18B3g    4.590824  
      19B2u    4.619060    19B3u    4.619060    31Ag     4.768198  
      11Au     4.802892    30B1u    4.802895    19B3g    5.110211  
      19B2g    5.110211    31B1u    5.621383    20B3u    5.732503  
      20B2u    5.732503    20B2g    6.351866    20B3g    6.351866  
      32Ag     6.926481    32B1u    6.942532    12B1g   10.771472  
      33Ag    10.771547    21B3u   10.800617    21B2u   10.800617  
      12Au    10.829204    33B1u   10.829278    34Ag    10.959488  
      21B3g   11.046646    21B2g   11.046646    34B1u   11.510966  
      35Ag    22.643581    35B1u   25.552124  

    Final Occupation by Irrep:
             Ag   B1g   B2g   B3g    Au   B1u   B2u   B3u 
    DOCC [     5,    0,    2,    2,    0,    4,    2,    2 ]

  @DF-RKS Final Energy:  -920.27548143460820

   => Energetics <=

    Nuclear Repulsion Energy =             77.0594945026676044
    One-Electron Energy =               -1423.4104360894423280
    Two-Electron Energy =                 468.6325226944430256
    DFT Exchange-Correlation Energy =     -42.6993984417819377
    Empirical Dispersion Energy =           0.0000000000000000
    VV10 Nonlocal Energy =                  0.1423358995054221
    Total Energy =                       -920.2754814346083094

Computation Completed


Properties will be evaluated at   0.000000,   0.000000,   0.000000 [a0]

Properties computed using the SCF density matrix

  Nuclear Dipole Moment: [e a0]
     X:     0.0000      Y:     0.0000      Z:     0.0000

  Electronic Dipole Moment: [e a0]
     X:     0.0000      Y:     0.0000      Z:     0.0000

  Dipole Moment: [e a0]
     X:     0.0000      Y:     0.0000      Z:     0.0000     Total:     0.0000

  Dipole Moment: [D]
     X:     0.0000      Y:     0.0000      Z:     0.0000     Total:     0.0000


*** tstop() called on bp1-compute00065.data.bp.acrc.priv at Tue Apr 27 16:33:21 2021
Module time:
	user time   =      60.92 seconds =       1.02 minutes
	system time =       2.32 seconds =       0.04 minutes
	total time  =          3 seconds =       0.05 minutes
Total time:
	user time   =     351.71 seconds =       5.86 minutes
	system time =      14.09 seconds =       0.23 minutes
	total time  =         18 seconds =       0.30 minutes

  //>>>>>>>>>>>>>>>>>>>>>>>>>>>>>>>>>>>//
  //    Loading displacement 3 of 3    //
  //<<<<<<<<<<<<<<<<<<<<<<<<<<<<<<<<<<<//

*** tstart() called on bp1-compute00065.data.bp.acrc.priv
*** at Tue Apr 27 16:33:21 2021

   => Loading Basis Set <=

    Name: AUG-CC-PV(Q+D)Z
    Role: ORBITAL
    Keyword: BASIS
    atoms 1-2 entry CL         line  1246 file /work/zw18965/.conda/envs/p4env/share/psi4/basis/aug-cc-pv_qpd_z.gbs 


         ---------------------------------------------------------
                                   SCF
               by Justin Turney, Rob Parrish, Andy Simmonett
                          and Daniel G. A. Smith
                              RKS Reference
                       24 Threads, 137329 MiB Core
         ---------------------------------------------------------

  ==> Geometry <==

    Molecular point group: d2h
    Full point group: D_inf_h

    Geometry (in Angstrom), charge = 0, multiplicity = 1:

       Center              X                  Y                   Z               Mass       
    ------------   -----------------  -----------------  -----------------  -----------------
         CL           0.000000000000     0.000000000000    -0.991666848424    34.968852682000
         CL           0.000000000000     0.000000000000     0.991666848424    34.968852682000

  Running in d2h symmetry.

  Rotational constants: A = ************  B =      0.24511  C =      0.24511 [cm^-1]
  Rotational constants: A = ************  B =   7348.08600  C =   7348.08600 [MHz]
  Nuclear repulsion =   77.108665136212693

  Charge       = 0
  Multiplicity = 1
  Electrons    = 34
  Nalpha       = 17
  Nbeta        = 17

  ==> Algorithm <==

  SCF Algorithm Type is DF.
  DIIS enabled.
  MOM disabled.
  Fractional occupation disabled.
  Guess Type is READ.
  Energy threshold   = 1.00e-08
  Density threshold  = 1.00e-08
  Integral threshold = 0.00e+00

  ==> Primary Basis <==

  Basis Set: AUG-CC-PV(Q+D)Z
    Blend: AUG-CC-PV(Q+D)Z
    Number of shells: 46
    Number of basis function: 178
    Number of Cartesian functions: 230
    Spherical Harmonics?: true
    Max angular momentum: 4

  ==> DFT Potential <==

   => Composite Functional: WB97X-V <= 

    wB97X-V Hyb-GGA Exchange-Correlation Functional

    N. Mardirossian and M. Head-Gordon, Phys. Chem. Chem. Phys. 16, 9904 (2014)

    Deriv               =              1
    GGA                 =           TRUE
    Meta                =          FALSE

    Exchange Hybrid     =           TRUE
    MP2 Hybrid          =          FALSE

   => Exchange-Correlation Functionals <=

    1.0000   wB97X-V range-separated functional

   => Exact (HF) Exchange <=

    0.8330            HF,LR [omega = 0.3000]
    0.1670               HF 

   => VV10 Non-Local Parameters <=

    VV10 B              =     6.0000E+00
    VV10 C              =     1.0000E-02

   => Molecular Quadrature <=

    Radial Scheme          =       TREUTLER
    Pruning Scheme         =           FLAT
    Nuclear Scheme         =       TREUTLER

    BS radius alpha        =              1
    Pruning alpha          =              1
    Radial Points          =             75
    Spherical Points       =            302
    Total Points           =          44898
    Total Blocks           =            422
    Max Points             =            255
    Max Functions          =            178

   => Loading Basis Set <=

    Name: (AUG-CC-PV(Q+D)Z AUX)
    Role: JKFIT
    Keyword: DF_BASIS_SCF
    atoms 1-2 entry CL         line   904 file /work/zw18965/.conda/envs/p4env/share/psi4/basis/aug-cc-pvqz-jkfit.gbs 

   => Loading Basis Set <=

    Name: AUG-CC-PV(Q+D)Z
    Role: ORBITAL
    Keyword: BASIS
    atoms 1-2 entry CL         line  1246 file /work/zw18965/.conda/envs/p4env/share/psi4/basis/aug-cc-pv_qpd_z.gbs 

  Reading orbitals from file 180, no projection.

  ==> Pre-Iterations <==

   -------------------------------------------------------
    Irrep   Nso     Nmo     Nalpha   Nbeta   Ndocc  Nsocc
   -------------------------------------------------------
     Ag        35      35       0       0       0       0
     B1g       12      12       0       0       0       0
     B2g       21      21       0       0       0       0
     B3g       21      21       0       0       0       0
     Au        12      12       0       0       0       0
     B1u       35      35       0       0       0       0
     B2u       21      21       0       0       0       0
     B3u       21      21       0       0       0       0
   -------------------------------------------------------
    Total     178     178      17      17      17       0
   -------------------------------------------------------

  ==> Integral Setup <==

  ==> DiskDFJK: Density-Fitted J/K Matrices <==

    J tasked:                  Yes
    K tasked:                  Yes
    wK tasked:                 Yes
    Omega:               3.000E-01
    OpenMP threads:             24
    Integrals threads:          24
    Memory [MiB]:           102788
    Algorithm:                Core
    Integral Cache:           NONE
    Schwarz Cutoff:          1E-12
    Fitting Condition:       1E-10

   => Auxiliary Basis Set <=

  Basis Set: (AUG-CC-PV(Q+D)Z AUX)
    Blend: AUG-CC-PVQZ-JKFIT
    Number of shells: 92
    Number of basis function: 368
    Number of Cartesian functions: 494
    Spherical Harmonics?: true
    Max angular momentum: 5

  Cached 100.0% of DFT collocation blocks in 0.204 [GiB].

  Minimum eigenvalue in the overlap matrix is 1.0227711461E-04.
  Using Symmetric Orthogonalization.

  SCF Guess: Orbitals guess was supplied from a previous computation.

  ==> Iterations <==

                           Total Energy        Delta E     RMS |[F,P]|

   @DF-RKS iter   0:  -920.27584012763089   -9.20276e+02   2.10350e-05 
   @DF-RKS iter   1:  -920.27548883457177    3.51293e-04   3.82941e-06 DIIS
   @DF-RKS iter   2:  -920.27548885054659   -1.59748e-08   2.90683e-06 DIIS
   @DF-RKS iter   3:  -920.27548886212685   -1.15803e-08   1.69581e-07 DIIS
   @DF-RKS iter   4:  -920.27548886222064   -9.37916e-11   4.40497e-08 DIIS
   @DF-RKS iter   5:  -920.27548886222667   -6.02540e-12   1.26516e-08 DIIS
   @DF-RKS iter   6:  -920.27548886222689   -2.27374e-13   7.43281e-10 DIIS
  Energy and wave function converged.


  ==> Post-Iterations <==

    Orbital Energies [Eh]
    ---------------------

    Doubly Occupied:                                                      

       1B1u -101.605794     1Ag  -101.605791     2Ag    -9.618879  
       2B1u   -9.618833     3Ag    -7.378887     3B1u   -7.378733  
       1B3g   -7.364444     1B2g   -7.364444     1B2u   -7.364443  
       1B3u   -7.364443     4Ag    -1.070766     4B1u   -0.893053  
       5Ag    -0.573680     2B3u   -0.524966     2B2u   -0.524966  
       2B2g   -0.409998     2B3g   -0.409998  

    Virtual:                                                              

       5B1u   -0.029438     6B1u    0.068742     6Ag     0.081656  
       3B2u    0.093244     3B3u    0.093244     7Ag     0.111927  
       3B3g    0.118958     3B2g    0.118958     8Ag     0.201035  
       1B1g    0.201037     7B1u    0.201642     4B3u    0.242691  
       4B2u    0.242691     9Ag     0.286937     1Au     0.297265  
       8B1u    0.297266     9B1u    0.320968     4B3g    0.345858  
       4B2g    0.345858     5B2u    0.422517     5B3u    0.422517  
      10Ag     0.470393     6B2u    0.480049     6B3u    0.480049  
      10B1u    0.512782     5B3g    0.514255     5B2g    0.514255  
      11Ag     0.514488     2B1g    0.514488    12Ag     0.531215  
       2Au     0.589349    11B1u    0.589355    13Ag     0.631009  
       6B3g    0.679504     6B2g    0.679504     7B2u    0.709305  
       7B3u    0.709305    12B1u    0.725911     3B1g    0.772934  
      14Ag     0.772947     7B3g    0.851821     7B2g    0.851821  
      13B1u    0.978572     8B2u    0.988154     8B3u    0.988154  
      14B1u    1.027019     3Au     1.027033    15Ag     1.052808  
       8B3g    1.088628     8B2g    1.088628    15B1u    1.147521  
       9B2u    1.386346     9B3u    1.386346     4B1g    1.398629  
      16Ag     1.398630    16B1u    1.425711    17Ag     1.430165  
      17B1u    1.475597     4Au     1.475601     9B3g    1.480912  
       9B2g    1.480912    10B2u    1.587224    10B3u    1.587224  
      18Ag     1.633731    11B2u    1.637666    11B3u    1.637666  
       5B1g    1.678161    19Ag     1.678163     6B1g    1.687867  
      20Ag     1.687869    10B3g    1.822995    10B2g    1.822995  
      12B2u    1.825496    12B3u    1.825496    18B1u    1.827656  
       5Au     1.827657    13B2u    1.861797    13B3u    1.861797  
      11B3g    1.936572    11B2g    1.936572    21Ag     2.021057  
       7B1g    2.023263    22Ag     2.023282     6Au     2.062779  
      19B1u    2.062780    12B2g    2.072281    12B3g    2.072281  
      20B1u    2.100595    13B3g    2.149843    13B2g    2.149843  
      21B1u    2.332330    14B2u    2.349752    14B3u    2.349752  
      23Ag     2.409102     7Au     2.482443    22B1u    2.482444  
      23B1u    2.624579    24Ag     2.801263    14B3g    2.942166  
      14B2g    2.942166    24B1u    3.155063     8B1g    3.438677  
      25Ag     3.438709     8Au     3.510758    25B1u    3.510787  
      15B2u    3.524313    15B3u    3.524313    26Ag     3.597137  
      15B3g    3.700852    15B2g    3.700852    27Ag     4.184519  
      16B2u    4.275766    16B3u    4.275766    26B1u    4.341548  
      17B2u    4.364971    17B3u    4.364971     9B1g    4.380692  
      28Ag     4.380704    10B1g    4.395835    29Ag     4.395839  
      18B3u    4.403821    18B2u    4.403821    11B1g    4.414511  
      30Ag     4.414537    16B3g    4.421492    16B2g    4.421492  
       9Au     4.471353    27B1u    4.471380    28B1u    4.479366  
      10Au     4.516978    29B1u    4.516998    17B2g    4.566488  
      17B3g    4.566488    18B3g    4.591140    18B2g    4.591140  
      19B3u    4.619989    19B2u    4.619989    31Ag     4.769012  
      11Au     4.803942    30B1u    4.803946    19B3g    5.111690  
      19B2g    5.111690    31B1u    5.624393    20B2u    5.732673  
      20B3u    5.732673    20B3g    6.353540    20B2g    6.353540  
      32Ag     6.928826    32B1u    6.941251    12B1g   10.771469  
      33Ag    10.771544    21B2u   10.800814    21B3u   10.800814  
      12Au    10.829334    33B1u   10.829407    34Ag    10.960387  
      21B3g   11.047335    21B2g   11.047335    34B1u   11.511990  
      35Ag    22.643850    35B1u   25.563356  

    Final Occupation by Irrep:
             Ag   B1g   B2g   B3g    Au   B1u   B2u   B3u 
    DOCC [     5,    0,    2,    2,    0,    4,    2,    2 ]

  @DF-RKS Final Energy:  -920.27548886222689

   => Energetics <=

    Nuclear Repulsion Energy =             77.1086651362126929
    One-Electron Energy =               -1423.5085985155062644
    Two-Electron Energy =                 468.6819036653531043
    DFT Exchange-Correlation Energy =     -42.6997926198161650
    Empirical Dispersion Energy =           0.0000000000000000
    VV10 Nonlocal Energy =                  0.1423334715298035
    Total Energy =                       -920.2754888622268936

Computation Completed


Properties will be evaluated at   0.000000,   0.000000,   0.000000 [a0]

Properties computed using the SCF density matrix

  Nuclear Dipole Moment: [e a0]
     X:     0.0000      Y:     0.0000      Z:    -0.0000

  Electronic Dipole Moment: [e a0]
     X:     0.0000      Y:     0.0000      Z:     0.0000

  Dipole Moment: [e a0]
     X:     0.0000      Y:     0.0000      Z:    -0.0000     Total:     0.0000

  Dipole Moment: [D]
[...]
     X:     0.0000      Y:     0.0000      Z:     0.0000     Total:     0.0000

  Dipole Moment: [D]
     X:     0.0000      Y:     0.0000      Z:     0.0000     Total:     0.0000


*** tstop() called on bp1-compute00065.data.bp.acrc.priv at Tue Apr 27 16:33:50 2021
Module time:
	user time   =      83.98 seconds =       1.40 minutes
	system time =       2.74 seconds =       0.05 minutes
	total time  =          4 seconds =       0.07 minutes
Total time:
	user time   =     968.15 seconds =      16.14 minutes
	system time =      34.61 seconds =       0.58 minutes
	total time  =         47 seconds =       0.78 minutes

  //>>>>>>>>>>>>>>>>>>>>>>>>>>>>>>>>>>>//
  //    Loading displacement 3 of 3    //
  //<<<<<<<<<<<<<<<<<<<<<<<<<<<<<<<<<<<//

*** tstart() called on bp1-compute00065.data.bp.acrc.priv
*** at Tue Apr 27 16:33:50 2021

   => Loading Basis Set <=

    Name: AUG-CC-PV(Q+D)Z
    Role: ORBITAL
    Keyword: BASIS
    atoms 1-2 entry CL         line  1246 file /work/zw18965/.conda/envs/p4env/share/psi4/basis/aug-cc-pv_qpd_z.gbs 


         ---------------------------------------------------------
                                   SCF
               by Justin Turney, Rob Parrish, Andy Simmonett
                          and Daniel G. A. Smith
                              RKS Reference
                       24 Threads, 137329 MiB Core
         ---------------------------------------------------------

  ==> Geometry <==

    Molecular point group: d2h
    Full point group: D_inf_h

    Geometry (in Angstrom), charge = 0, multiplicity = 1:

       Center              X                  Y                   Z               Mass       
    ------------   -----------------  -----------------  -----------------  -----------------
         CL           0.000000000000     0.000000000000    -0.987927488482    34.968852682000
         CL           0.000000000000     0.000000000000     0.987927488482    34.968852682000

  Running in d2h symmetry.

  Rotational constants: A = ************  B =      0.24696  C =      0.24696 [cm^-1]
  Rotational constants: A = ************  B =   7403.81709  C =   7403.81709 [MHz]
  Nuclear repulsion =   77.400525679550611

  Charge       = 0
  Multiplicity = 1
  Electrons    = 34
  Nalpha       = 17
  Nbeta        = 17

  ==> Algorithm <==

  SCF Algorithm Type is DF.
  DIIS enabled.
  MOM disabled.
  Fractional occupation disabled.
  Guess Type is SAD.
  Energy threshold   = 1.00e-10
  Density threshold  = 1.00e-10
  Integral threshold = 0.00e+00

  ==> Primary Basis <==

  Basis Set: AUG-CC-PV(Q+D)Z
    Blend: AUG-CC-PV(Q+D)Z
    Number of shells: 46
    Number of basis function: 178
    Number of Cartesian functions: 230
    Spherical Harmonics?: true
    Max angular momentum: 4

  ==> DFT Potential <==

   => Composite Functional: WB97X-V <= 

    wB97X-V Hyb-GGA Exchange-Correlation Functional

    N. Mardirossian and M. Head-Gordon, Phys. Chem. Chem. Phys. 16, 9904 (2014)

    Deriv               =              1
    GGA                 =           TRUE
    Meta                =          FALSE

    Exchange Hybrid     =           TRUE
    MP2 Hybrid          =          FALSE

   => Exchange-Correlation Functionals <=

    1.0000   wB97X-V range-separated functional

   => Exact (HF) Exchange <=

    0.8330            HF,LR [omega = 0.3000]
    0.1670               HF 

   => VV10 Non-Local Parameters <=

    VV10 B              =     6.0000E+00
    VV10 C              =     1.0000E-02

   => Molecular Quadrature <=

    Radial Scheme          =       TREUTLER
    Pruning Scheme         =           FLAT
    Nuclear Scheme         =       TREUTLER

    BS radius alpha        =              1
    Pruning alpha          =              1
    Radial Points          =             75
    Spherical Points       =            302
    Total Points           =          44898
    Total Blocks           =            422
    Max Points             =            255
    Max Functions          =            178

   => Loading Basis Set <=

    Name: (AUG-CC-PV(Q+D)Z AUX)
    Role: JKFIT
    Keyword: DF_BASIS_SCF
    atoms 1-2 entry CL         line   904 file /work/zw18965/.conda/envs/p4env/share/psi4/basis/aug-cc-pvqz-jkfit.gbs 

  ==> Pre-Iterations <==

   -------------------------------------------------------
    Irrep   Nso     Nmo     Nalpha   Nbeta   Ndocc  Nsocc
   -------------------------------------------------------
     Ag        35      35       0       0       0       0
     B1g       12      12       0       0       0       0
     B2g       21      21       0       0       0       0
     B3g       21      21       0       0       0       0
     Au        12      12       0       0       0       0
     B1u       35      35       0       0       0       0
     B2u       21      21       0       0       0       0
     B3u       21      21       0       0       0       0
   -------------------------------------------------------
    Total     178     178      17      17      17       0
   -------------------------------------------------------

  ==> Integral Setup <==

  ==> DiskDFJK: Density-Fitted J/K Matrices <==

    J tasked:                  Yes
    K tasked:                  Yes
    wK tasked:                 Yes
    Omega:               3.000E-01
    OpenMP threads:             24
    Integrals threads:          24
    Memory [MiB]:           102788
    Algorithm:                Core
    Integral Cache:           NONE
    Schwarz Cutoff:          1E-12
    Fitting Condition:       1E-10

   => Auxiliary Basis Set <=

  Basis Set: (AUG-CC-PV(Q+D)Z AUX)
    Blend: AUG-CC-PVQZ-JKFIT
    Number of shells: 92
    Number of basis function: 368
    Number of Cartesian functions: 494
    Spherical Harmonics?: true
    Max angular momentum: 5

  Cached 100.0% of DFT collocation blocks in 0.204 [GiB].

  Minimum eigenvalue in the overlap matrix is 1.0052272292E-04.
  Using Symmetric Orthogonalization.

  SCF Guess: Superposition of Atomic Densities via on-the-fly atomic UHF.

  ==> Iterations <==

                           Total Energy        Delta E     RMS |[F,P]|

   @DF-RKS iter SAD:  -920.16423891661213   -9.20164e+02   0.00000e+00 
   @DF-RKS iter   1:  -920.25741756536388   -9.31786e-02   3.64766e-03 DIIS
   @DF-RKS iter   2:  -920.27136532828831   -1.39478e-02   1.91274e-03 DIIS
   @DF-RKS iter   3:  -920.27536279125684   -3.99746e-03   2.54024e-04 DIIS
   @DF-RKS iter   4:  -920.27548648161246   -1.23690e-04   8.28274e-05 DIIS
   @DF-RKS iter   5:  -920.27550531498844   -1.88334e-05   1.13158e-05 DIIS
   @DF-RKS iter   6:  -920.27550598555445   -6.70566e-07   1.19811e-06 DIIS
   @DF-RKS iter   7:  -920.27550599306062   -7.50617e-09   2.06347e-07 DIIS
   @DF-RKS iter   8:  -920.27550599321694   -1.56319e-10   2.52717e-08 DIIS
   @DF-RKS iter   9:  -920.27550599321989   -2.95586e-12   1.78332e-09 DIIS
   @DF-RKS iter  10:  -920.27550599321989    0.00000e+00   2.08130e-10 DIIS
   @DF-RKS iter  11:  -920.27550599321921    6.82121e-13   2.97385e-11 DIIS
  Energy and wave function converged.


  ==> Post-Iterations <==

    Orbital Energies [Eh]
    ---------------------

    Doubly Occupied:                                                      

       1B1u -101.605443     1Ag  -101.605439     2Ag    -9.618643  
       2B1u   -9.618595     3Ag    -7.378622     3B1u   -7.378460  
       1B2g   -7.364208     1B3g   -7.364208     1B3u   -7.364207  
       1B2u   -7.364207     4Ag    -1.072722     4B1u   -0.892242  
       5Ag    -0.574547     2B3u   -0.525916     2B2u   -0.525916  
       2B2g   -0.409295     2B3g   -0.409295  

    Virtual:                                                              

       5B1u   -0.027117     6B1u    0.068950     6Ag     0.081669  
       3B2u    0.093179     3B3u    0.093179     7Ag     0.111805  
       3B3g    0.118960     3B2g    0.118960     8Ag     0.200901  
       1B1g    0.200903     7B1u    0.201708     4B2u    0.242946  
       4B3u    0.242946     9Ag     0.286571     1Au     0.297526  
       8B1u    0.297528     9B1u    0.321647     4B3g    0.345880  
       4B2g    0.345880     5B2u    0.422226     5B3u    0.422226  
      10Ag     0.469847     6B3u    0.479892     6B2u    0.479892  
      10B1u    0.512379    11Ag     0.513973     2B1g    0.513974  
       5B3g    0.514248     5B2g    0.514248    12Ag     0.530937  
       2Au     0.589699    11B1u    0.589705    13Ag     0.632570  
       6B3g    0.680984     6B2g    0.680984     7B2u    0.709061  
       7B3u    0.709061    12B1u    0.728325     3B1g    0.773928  
      14Ag     0.773941     7B3g    0.852380     7B2g    0.852380  
      13B1u    0.980078     8B3u    0.989270     8B2u    0.989270  
      14B1u    1.027845     3Au     1.027858    15Ag     1.052366  
       8B3g    1.088783     8B2g    1.088783    15B1u    1.148005  
       9B3u    1.385858     9B2u    1.385858     4B1g    1.398537  
      16Ag     1.398537    16B1u    1.426205    17Ag     1.428881  
      17B1u    1.476272     4Au     1.476276     9B2g    1.478486  
       9B3g    1.478486    10B3u    1.587309    10B2u    1.587309  
      18Ag     1.634491    11B2u    1.638159    11B3u    1.638159  
       5B1g    1.678849    19Ag     1.678851     6B1g    1.687046  
      20Ag     1.687048    10B3g    1.827214    10B2g    1.827214  
      18B1u    1.828545     5Au     1.828547    12B2u    1.828721  
      12B3u    1.828721    13B2u    1.861564    13B3u    1.861564  
      11B3g    1.937288    11B2g    1.937288    21Ag     2.023195  
       7B1g    2.025477    22Ag     2.025496     6Au     2.063946  
      19B1u    2.063948    12B2g    2.074690    12B3g    2.074690  
      20B1u    2.102703    13B3g    2.151065    13B2g    2.151065  
      21B1u    2.336692    14B3u    2.352344    14B2u    2.352344  
      23Ag     2.419176     7Au     2.487068    22B1u    2.487070  
      23B1u    2.620500    24Ag     2.802624    14B3g    2.944160  
      14B2g    2.944160    24B1u    3.156381     8B1g    3.438448  
      25Ag     3.438481     8Au     3.511239    25B1u    3.511268  
      15B2u    3.525083    15B3u    3.525083    26Ag     3.593083  
      15B3g    3.705095    15B2g    3.705095    27Ag     4.180510  
      16B3u    4.267849    16B2u    4.267849    26B1u    4.353925  
      17B3u    4.364776    17B2u    4.364776     9B1g    4.381910  
      28Ag     4.381918    10B1g    4.390693    29Ag     4.390701  
      18B2u    4.403029    18B3u    4.403029    11B1g    4.414243  
      30Ag     4.414263    16B2g    4.421704    16B3g    4.421704  
       9Au     4.471637    27B1u    4.471659    28B1u    4.481808  
      10Au     4.518367    29B1u    4.518387    17B3g    4.568277  
      17B2g    4.568277    18B2g    4.593010    18B3g    4.593010  
      19B2u    4.625529    19B3u    4.625529    31Ag     4.773864  
      11Au     4.810213    30B1u    4.810217    19B3g    5.120476  
      19B2g    5.120476    31B1u    5.642020    20B3u    5.733687  
      20B2u    5.733687    20B2g    6.363438    20B3g    6.363438  
      32B1u    6.934120    32Ag     6.942499    12B1g   10.771451  
      33Ag    10.771527    21B2u   10.802026    21B3u   10.802026  
      12Au    10.830103    33B1u   10.830177    34Ag    10.965907  
      21B3g   11.051476    21B2g   11.051476    34B1u   11.517811  
      35Ag    22.645783    35B1u   25.629761  

    Final Occupation by Irrep:
             Ag   B1g   B2g   B3g    Au   B1u   B2u   B3u 
    DOCC [     5,    0,    2,    2,    0,    4,    2,    2 ]

  @DF-RKS Final Energy:  -920.27550599321921

   => Energetics <=

    Nuclear Repulsion Energy =             77.4005256795506114
    One-Electron Energy =               -1424.0911844259092049
    Two-Electron Energy =                 468.9749761099664056
    DFT Exchange-Correlation Energy =     -42.7021424869515585
    Empirical Dispersion Energy =           0.0000000000000000
    VV10 Nonlocal Energy =                  0.1423191301246577
    Total Energy =                       -920.2755059932190989

Computation Completed


Properties will be evaluated at   0.000000,   0.000000,   0.000000 [a0]

Properties computed using the SCF density matrix

  Nuclear Dipole Moment: [e a0]
     X:     0.0000      Y:     0.0000      Z:    -0.0000

  Electronic Dipole Moment: [e a0]
     X:     0.0000      Y:     0.0000      Z:     0.0000

  Dipole Moment: [e a0]
     X:     0.0000      Y:     0.0000      Z:    -0.0000     Total:     0.0000

  Dipole Moment: [D]
     X:     0.0000      Y:     0.0000      Z:    -0.0000     Total:     0.0000


*** tstop() called on bp1-compute00065.data.bp.acrc.priv at Tue Apr 27 16:33:54 2021
Module time:
	user time   =      78.80 seconds =       1.31 minutes
	system time =       3.89 seconds =       0.06 minutes
	total time  =          4 seconds =       0.07 minutes
Total time:
	user time   =    1047.10 seconds =      17.45 minutes
	system time =      38.51 seconds =       0.64 minutes
	total time  =         51 seconds =       0.85 minutes

         ----------------------------------------------------------
                                   FINDIF
                     R. A. King and Jonathon Misiewicz
         ---------------------------------------------------------

  Computing second-derivative from energies using projected, 
  symmetry-adapted, cartesian coordinates.

  3 energies passed in, including the reference geometry.
    Using 3-point formula.
    Energy without displacement: -920.2755063373
    Check energies below for precision!
    0: -1 :      -920.2755063437
    0: 1  :      -920.2755059932

-------------------------------------------------------------


  ==> Harmonic Vibrational Analysis <==

  non-mass-weighted Hessian:       Symmetric? True   Hermitian? True   Lin Dep Dim?  5 (0)
  projection of translations (True) and rotations (True) removed 5 degrees of freedom (5)
  total projector:                 Symmetric? True   Hermitian? True   Lin Dep Dim?  5 (5)
  mass-weighted Hessian:           Symmetric? True   Hermitian? True   Lin Dep Dim?  5 (0)
  pre-proj  low-frequency mode:    0.0000i [cm^-1]
  pre-proj  low-frequency mode:    0.0000  [cm^-1]
  pre-proj  low-frequency mode:    0.0000  [cm^-1]
  pre-proj  low-frequency mode:    0.0000  [cm^-1]
  pre-proj  low-frequency mode:    0.0000  [cm^-1]
  pre-proj  all modes:['0.0000i' '0.0000' '0.0000' '0.0000' '0.0000' '597.4322']
  projected mass-weighted Hessian: Symmetric? True   Hermitian? True   Lin Dep Dim?  5 (5)
  post-proj low-frequency mode:    0.0000i [cm^-1] (TR)
  post-proj low-frequency mode:    0.0000  [cm^-1] (TR)
  post-proj low-frequency mode:    0.0000  [cm^-1] (TR)
  post-proj low-frequency mode:    0.0000  [cm^-1] (TR)
  post-proj low-frequency mode:    0.0000  [cm^-1] (TR)
  post-proj  all modes:['0.0000i' '0.0000' '0.0000' '0.0000' '0.0000' '597.4322']

  Vibration                       6           
  Freq [cm^-1]                 597.4322       
  Irrep                           Ag          
  Reduced mass [u]             34.9689        
  Force const [mDyne/A]         7.3538        
  Turning point v=0 [a0]        0.0759        
  RMS dev v=0 [a0 u^1/2]        0.3174        
  Char temp [K]                859.5720       
  ----------------------------------------------------------------------------------
      1   CL               0.00  0.00  0.71   
      2   CL              -0.00  0.00 -0.71   

  ==> Thermochemistry Components <==

  Entropy, S
    Electronic S            0.000 [cal/(mol K)]        0.000 [J/(mol K)]       0.00000000 [mEh/K] (multiplicity = 1)
    Translational S        38.652 [cal/(mol K)]      161.721 [J/(mol K)]       0.06159614 [mEh/K] (mol. weight = 69.9377 [u], P = 101325.00 [Pa])
    Rotational S           13.990 [cal/(mol K)]       58.532 [J/(mol K)]       0.02229373 [mEh/K] (symmetry no. = 2)
    Vibrational S           0.454 [cal/(mol K)]        1.900 [J/(mol K)]       0.00072364 [mEh/K]
  Total S                  53.096 [cal/(mol K)]      222.153 [J/(mol K)]       0.08461351 [mEh/K]
  Correction S              0.000 [cal/(mol K)]        0.000 [J/(mol K)]       0.00000000 [mEh/K]

  Constant volume heat capacity, Cv
    Electronic Cv           0.000 [cal/(mol K)]        0.000 [J/(mol K)]       0.00000000 [mEh/K]
    Translational Cv        2.981 [cal/(mol K)]       12.472 [J/(mol K)]       0.00475022 [mEh/K]
    Rotational Cv           1.987 [cal/(mol K)]        8.314 [J/(mol K)]       0.00316681 [mEh/K]
    Vibrational Cv          1.037 [cal/(mol K)]        4.340 [J/(mol K)]       0.00165296 [mEh/K]
  Total Cv                  6.005 [cal/(mol K)]       25.126 [J/(mol K)]       0.00956999 [mEh/K]
  Correction Cv             0.000 [cal/(mol K)]        0.000 [J/(mol K)]       0.00000000 [mEh/K]

  Constant pressure heat capacity, Cp
    Electronic Cp           0.000 [cal/(mol K)]        0.000 [J/(mol K)]       0.00000000 [mEh/K]
    Translational Cp        4.968 [cal/(mol K)]       20.786 [J/(mol K)]       0.00791703 [mEh/K]
    Rotational Cp           1.987 [cal/(mol K)]        8.314 [J/(mol K)]       0.00316681 [mEh/K]
    Vibrational Cp          1.037 [cal/(mol K)]        4.340 [J/(mol K)]       0.00165296 [mEh/K]
  Total Cp                  7.992 [cal/(mol K)]       33.440 [J/(mol K)]       0.01273680 [mEh/K]
  Correction Cp             0.000 [cal/(mol K)]        0.000 [J/(mol K)]       0.00000000 [mEh/K]

  ==> Thermochemistry Energy Analysis <==

  Raw electronic energy, E0
  Total E0, Electronic energy at well bottom at 0 [K]                 -920.27550634 [Eh]

  Zero-point energy, ZPE_vib = Sum_i nu_i / 2
    Electronic ZPE          0.000 [kcal/mol]        0.000 [kJ/mol]       0.00000000 [Eh]
    Translational ZPE       0.000 [kcal/mol]        0.000 [kJ/mol]       0.00000000 [Eh]
    Rotational ZPE          0.000 [kcal/mol]        0.000 [kJ/mol]       0.00000000 [Eh]
    Vibrational ZPE         0.854 [kcal/mol]        3.573 [kJ/mol]       0.00136105 [Eh]         298.716 [cm^-1]
  Correction ZPE            0.854 [kcal/mol]        3.573 [kJ/mol]       0.00136105 [Eh]         298.716 [cm^-1]
  Total ZPE, Electronic energy at 0 [K]                               -920.27414529 [Eh]

  Thermal Energy, E (includes ZPE)
    Electronic E            0.000 [kcal/mol]        0.000 [kJ/mol]       0.00000000 [Eh]
    Translational E         0.889 [kcal/mol]        3.718 [kJ/mol]       0.00141628 [Eh]
    Rotational E            0.592 [kcal/mol]        2.479 [kJ/mol]       0.00094418 [Eh]
    Vibrational E           0.955 [kcal/mol]        3.997 [kJ/mol]       0.00152243 [Eh]
  Correction E              2.437 [kcal/mol]       10.195 [kJ/mol]       0.00388289 [Eh]
  Total E, Electronic energy at  298.15 [K]                           -920.27162345 [Eh]

  Enthalpy, H_trans = E_trans + k_B * T
    Electronic H            0.000 [kcal/mol]        0.000 [kJ/mol]       0.00000000 [Eh]
    Translational H         1.481 [kcal/mol]        6.197 [kJ/mol]       0.00236046 [Eh]
    Rotational H            0.592 [kcal/mol]        2.479 [kJ/mol]       0.00094418 [Eh]
    Vibrational H           0.955 [kcal/mol]        3.997 [kJ/mol]       0.00152243 [Eh]
  Correction H              3.029 [kcal/mol]       12.673 [kJ/mol]       0.00482707 [Eh]
  Total H, Enthalpy at  298.15 [K]                                    -920.27067927 [Eh]

  Gibbs free energy, G = H - T * S
    Electronic G            0.000 [kcal/mol]        0.000 [kJ/mol]       0.00000000 [Eh]
    Translational G       -10.043 [kcal/mol]      -42.020 [kJ/mol]      -0.01600443 [Eh]
    Rotational G           -3.578 [kcal/mol]      -14.972 [kJ/mol]      -0.00570269 [Eh]
    Vibrational G           0.820 [kcal/mol]        3.431 [kJ/mol]       0.00130667 [Eh]
  Correction G            -12.801 [kcal/mol]      -53.561 [kJ/mol]      -0.02040045 [Eh]
  Total G, Free enthalpy at  298.15 [K]                               -920.29590678 [Eh]

    Psi4 stopped on: Tuesday, 27 April 2021 04:33PM
    Psi4 wall time for execution: 0:00:53.83

*** Psi4 exiting successfully. Buy a developer a beer!
