
    -----------------------------------------------------------------------
          Psi4: An Open-Source Ab Initio Electronic Structure Package
                               Psi4 1.3.2 release

                         Git: Rev {HEAD} ecbda83 


    R. M. Parrish, L. A. Burns, D. G. A. Smith, A. C. Simmonett,
    A. E. DePrince III, E. G. Hohenstein, U. Bozkaya, A. Yu. Sokolov,
    R. Di Remigio, R. M. Richard, J. F. Gonthier, A. M. James,
    H. R. McAlexander, A. Kumar, M. Saitow, X. Wang, B. P. Pritchard,
    P. Verma, H. F. Schaefer III, K. Patkowski, R. A. King, E. F. Valeev,
    F. A. Evangelista, J. M. Turney, T. D. Crawford, and C. D. Sherrill,
    J. Chem. Theory Comput. 13(7) pp 3185--3197 (2017).
    (doi: 10.1021/acs.jctc.7b00174)


                         Additional Contributions by
    P. Kraus, H. Kruse, M. H. Lechner, M. C. Schieber, R. A. Shaw,
    A. Alenaizan, R. Galvelis, Z. L. Glick, S. Lehtola, and J. P. Misiewicz

    -----------------------------------------------------------------------


    Psi4 started on: Tuesday, 20 April 2021 11:01AM

    Process ID: 48937
    Host:       bp1-compute00155.data.bp.acrc.priv
    PSIDATADIR: /work/zw18965/.conda/envs/p4env/share/psi4
    Memory:     500.0 MiB
    Threads:    24
    
  ==> Input File <==

--------------------------------------------------------------------------
memory 144 GB

molecule {
0 1
Cl    0.834210788250   0.000000000000   0.000000000000
F    -0.834210788250   0.000000000000   0.000000000000}

set basis aug-cc-pV(Q+d)Z
 
optimize("wB97X-V")
frequencies("wB97X-V")--------------------------------------------------------------------------

  Memory set to 134.110 GiB by Python driver.
gradient() will perform gradient computation by finite difference of analytic energies.

         ----------------------------------------------------------
                                   FINDIF
                     R. A. King and Jonathon Misiewicz
         ---------------------------------------------------------

  Using finite-differences of energies to determine gradients.
    Generating geometries for use with 3-point formula.
    Displacement size will be 5.00e-03.
    Number of atoms is 2.
    Number of symmetric SALCs is 1.
    Translations projected? 1. Rotations projected? 1.
    Number of geometries (including reference) is 3.

  //>>>>>>>>>>>>>>>>>>>>>>>>>>>>>>>>>>>//
  //    Loading displacement 1 of 3    //
  //<<<<<<<<<<<<<<<<<<<<<<<<<<<<<<<<<<<//

*** tstart() called on bp1-compute00155.data.bp.acrc.priv
*** at Tue Apr 20 11:01:42 2021

   => Loading Basis Set <=

    Name: AUG-CC-PV(Q+D)Z
    Role: ORBITAL
    Keyword: BASIS
    atoms 1 entry CL         line  1246 file /work/zw18965/.conda/envs/p4env/share/psi4/basis/aug-cc-pv_qpd_z.gbs 
    atoms 2 entry F          line   499 file /work/zw18965/.conda/envs/p4env/share/psi4/basis/aug-cc-pv_qpd_z.gbs 


         ---------------------------------------------------------
                                   SCF
               by Justin Turney, Rob Parrish, Andy Simmonett
                          and Daniel G. A. Smith
                              RKS Reference
                       24 Threads, 137329 MiB Core
         ---------------------------------------------------------

  ==> Geometry <==

    Molecular point group: c2v
    Full point group: C_inf_v

    Geometry (in Angstrom), charge = 0, multiplicity = 1:

       Center              X                  Y                   Z               Mass       
    ------------   -----------------  -----------------  -----------------  -----------------
         CL           0.000000000000     0.000000000000     0.587344034074    34.968852682000
         F            0.000000000000     0.000000000000    -1.081077542426    18.998403162730

  Running in c2v symmetry.

  Rotational constants: A = ************  B =      0.49195  C =      0.49195 [cm^-1]
  Rotational constants: A = ************  B =  14748.14696  C =  14748.14696 [MHz]
  Nuclear repulsion =   48.527371242917987

  Charge       = 0
  Multiplicity = 1
  Electrons    = 26
  Nalpha       = 13
  Nbeta        = 13

  ==> Algorithm <==

  SCF Algorithm Type is DF.
  DIIS enabled.
  MOM disabled.
  Fractional occupation disabled.
  Guess Type is SAD.
  Energy threshold   = 1.00e-08
  Density threshold  = 1.00e-08
  Integral threshold = 0.00e+00

  ==> Primary Basis <==

  Basis Set: AUG-CC-PV(Q+D)Z
    Blend: AUG-CC-PV(Q+D)Z
    Number of shells: 43
    Number of basis function: 169
    Number of Cartesian functions: 220
    Spherical Harmonics?: true
    Max angular momentum: 4

  ==> DFT Potential <==

   => Composite Functional: WB97X-V <= 

    wB97X-V Hyb-GGA Exchange-Correlation Functional

    N. Mardirossian and M. Head-Gordon, Phys. Chem. Chem. Phys. 16, 9904 (2014)

    Deriv               =              1
    GGA                 =           TRUE
    Meta                =          FALSE

    Exchange Hybrid     =           TRUE
    MP2 Hybrid          =          FALSE

   => Exchange-Correlation Functionals <=

    1.0000   wB97X-V range-separated functional

   => Exact (HF) Exchange <=

    0.8330            HF,LR [omega = 0.3000]
    0.1670               HF 

   => VV10 Non-Local Parameters <=

    VV10 B              =     6.0000E+00
    VV10 C              =     1.0000E-02

   => Molecular Quadrature <=

    Radial Scheme          =       TREUTLER
    Pruning Scheme         =           FLAT
    Nuclear Scheme         =       TREUTLER

    BS radius alpha        =              1
    Pruning alpha          =              1
    Radial Points          =             75
    Spherical Points       =            302
    Total Points           =          45099
    Total Blocks           =            423
    Max Points             =            255
    Max Functions          =            169

   => Loading Basis Set <=

    Name: (AUG-CC-PV(Q+D)Z AUX)
    Role: JKFIT
    Keyword: DF_BASIS_SCF
    atoms 1 entry CL         line   904 file /work/zw18965/.conda/envs/p4env/share/psi4/basis/aug-cc-pvqz-jkfit.gbs 
    atoms 2 entry F          line   388 file /work/zw18965/.conda/envs/p4env/share/psi4/basis/aug-cc-pvqz-jkfit.gbs 

  ==> Pre-Iterations <==

   -------------------------------------------------------
    Irrep   Nso     Nmo     Nalpha   Nbeta   Ndocc  Nsocc
   -------------------------------------------------------
     A1        66      66       0       0       0       0
     A2        23      23       0       0       0       0
     B1        40      40       0       0       0       0
     B2        40      40       0       0       0       0
   -------------------------------------------------------
    Total     169     169      13      13      13       0
   -------------------------------------------------------

  ==> Integral Setup <==

  ==> DiskDFJK: Density-Fitted J/K Matrices <==

    J tasked:                  Yes
    K tasked:                  Yes
    wK tasked:                 Yes
    Omega:               3.000E-01
    OpenMP threads:             24
    Integrals threads:          24
    Memory [MiB]:           102802
    Algorithm:                Core
    Integral Cache:           NONE
    Schwarz Cutoff:          1E-12
    Fitting Condition:       1E-10

   => Auxiliary Basis Set <=

  Basis Set: (AUG-CC-PV(Q+D)Z AUX)
    Blend: AUG-CC-PVQZ-JKFIT
    Number of shells: 80
    Number of basis function: 326
    Number of Cartesian functions: 445
    Spherical Harmonics?: true
    Max angular momentum: 5

  Cached 100.0% of DFT collocation blocks in 0.190 [GiB].

  Minimum eigenvalue in the overlap matrix is 3.0143615087E-04.
  Using Symmetric Orthogonalization.

  SCF Guess: Superposition of Atomic Densities via on-the-fly atomic UHF.

  ==> Iterations <==

                           Total Energy        Delta E     RMS |[F,P]|

   @DF-RKS iter SAD:  -559.62951811910511   -5.59630e+02   0.00000e+00 
   @DF-RKS iter   1:  -559.90420544896426   -2.74687e-01   3.07730e-03 DIIS
   @DF-RKS iter   2:  -559.91611528215230   -1.19098e-02   2.32140e-03 DIIS
   @DF-RKS iter   3:  -559.92587800962008   -9.76273e-03   7.37383e-04 DIIS
   @DF-RKS iter   4:  -559.92708836654526   -1.21036e-03   1.03896e-04 DIIS
   @DF-RKS iter   5:  -559.92713951497603   -5.11484e-05   3.43254e-05 DIIS
   @DF-RKS iter   6:  -559.92714485762451   -5.34265e-06   6.75059e-06 DIIS
   @DF-RKS iter   7:  -559.92714529994987   -4.42325e-07   1.52057e-06 DIIS
   @DF-RKS iter   8:  -559.92714531741717   -1.74673e-08   4.58456e-07 DIIS
   @DF-RKS iter   9:  -559.92714531837601   -9.58835e-10   4.64076e-08 DIIS
   @DF-RKS iter  10:  -559.92714531839420   -1.81899e-11   6.19247e-09 DIIS
  Energy and wave function converged.


  ==> Post-Iterations <==

    Orbital Energies [Eh]
    ---------------------

    Doubly Occupied:                                                      

       1A1  -101.641003     2A1   -24.814305     3A1    -9.650328  
       4A1    -7.413519     1B2    -7.394633     1B1    -7.394633  
       5A1    -1.362988     6A1    -0.968296     7A1    -0.640406  
       2B2    -0.601167     2B1    -0.601167     3B1    -0.446406  
       3B2    -0.446406  

    Virtual:                                                              

       8A1    -0.041908     9A1     0.073984     4B1     0.093359  
       4B2     0.093359    10A1     0.095605    11A1     0.176288  
       5B1     0.199650     5B2     0.199650     1A2     0.227703  
      12A1     0.227703     6B1     0.291297     6B2     0.291297  
      13A1     0.312553    14A1     0.319990     7B2     0.424493  
       7B1     0.424493    15A1     0.431600    16A1     0.537024  
       2A2     0.537026     8B1     0.546512     8B2     0.546512  
      17A1     0.574986    18A1     0.629661     3A2     0.629662  
      19A1     0.681593     9B1     0.756895     9B2     0.756895  
      10B2     0.761391    10B1     0.761391    20A1     0.824660  
      11B2     0.863372    11B1     0.863372     4A2     0.893473  
      21A1     0.893479    22A1     0.952726    12B2     1.078795  
      12B1     1.078795    23A1     1.082532    24A1     1.332350  
      25A1     1.403518     5A2     1.403519    13B1     1.479308  
      13B2     1.479308    26A1     1.484370    14B1     1.633461  
      14B2     1.633461    15B1     1.643523    15B2     1.643523  
       6A2     1.662461    27A1     1.662464    16B1     1.689539  
      16B2     1.689539    28A1     1.747414     7A2     1.747415  
      17B2     1.878295    17B1     1.878295    29A1     1.901408  
      30A1     1.932357     8A2     1.932361    31A1     2.007307  
      18B1     2.010824    18B2     2.010824    32A1     2.018225  
       9A2     2.018239    19B1     2.064573    19B2     2.064573  
      33A1     2.284531    20B1     2.322879    20B2     2.322879  
      34A1     2.347014    10A2     2.459192    35A1     2.459213  
      36A1     2.594050    21B1     2.813723    21B2     2.813723  
      37A1     2.869884    22B1     3.326167    22B2     3.326167  
      38A1     3.430287    11A2     3.430298    39A1     3.465245  
      23B1     3.614004    23B2     3.614004    40A1     4.112671  
      24B2     4.118786    24B1     4.118786    12A2     4.228830  
      41A1     4.228833    25B2     4.362096    25B1     4.362096  
      42A1     4.398911    13A2     4.398914    26B1     4.409547  
      26B2     4.409547    43A1     4.417852    14A2     4.417878  
      44A1     4.452498    45A1     4.519945    15A2     4.520026  
      27B2     4.616023    27B1     4.616023    28B1     4.646949  
      28B2     4.646949    46A1     4.970131    47A1     5.068093  
      16A2     5.130838    48A1     5.130850    29B2     5.247620  
      29B1     5.247620    30B2     5.282330    30B1     5.282330  
      49A1     5.292683    17A2     5.453429    50A1     5.453437  
      18A2     5.537939    51A1     5.537983    31B2     5.645428  
      31B1     5.645428    52A1     5.979561    32B2     6.065441  
      32B1     6.065441    53A1     6.403840    33B1     6.435003  
      33B2     6.435003    54A1     7.788468    19A2    10.766331  
      55A1    10.766354    34B1    10.919704    34B2    10.919704  
      56A1    11.114661    35B1    12.518691    35B2    12.518691  
      57A1    13.154914    20A2    13.155646    36B1    13.184544  
      36B2    13.184544    58A1    13.354862    21A2    13.355066  
      37B1    13.555705    37B2    13.555705    59A1    13.564572  
      60A1    13.702427    38B2    15.238487    38B1    15.238487  
      61A1    15.354811    22A2    15.355026    39B1    15.489637  
      39B2    15.489637    62A1    15.629827    23A2    16.098055  
      63A1    16.098224    40B2    16.549390    40B1    16.549390  
      64A1    16.797418    65A1    23.978754    66A1    52.860294  

    Final Occupation by Irrep:
             A1    A2    B1    B2 
    DOCC [     7,    0,    3,    3 ]

  @DF-RKS Final Energy:  -559.92714531839420

   => Energetics <=

    Nuclear Repulsion Energy =             48.5273712429179866
    One-Electron Energy =                -870.5253605681341469
    Two-Electron Energy =                 290.8307043499594329
    DFT Exchange-Correlation Energy =     -28.8697957249972106
    Empirical Dispersion Energy =           0.0000000000000000
    VV10 Nonlocal Energy =                  0.1099353818598432
    Total Energy =                       -559.9271453183940821

Computation Completed


Properties will be evaluated at   0.000000,   0.000000,   0.000000 [a0]

Properties computed using the SCF density matrix

  Nuclear Dipole Moment: [e a0]
     X:     0.0000      Y:     0.0000      Z:     0.4822

  Electronic Dipole Moment: [e a0]
     X:     0.0000      Y:     0.0000      Z:    -0.0923

  Dipole Moment: [e a0]
     X:     0.0000      Y:     0.0000      Z:     0.3898     Total:     0.3898

  Dipole Moment: [D]
     X:     0.0000      Y:     0.0000      Z:     0.9908     Total:     0.9908


*** tstop() called on bp1-compute00155.data.bp.acrc.priv at Tue Apr 20 11:01:47 2021
Module time:
	user time   =      78.92 seconds =       1.32 minutes
	system time =       4.44 seconds =       0.07 minutes
	total time  =          5 seconds =       0.08 minutes
Total time:
	user time   =      78.92 seconds =       1.32 minutes
	system time =       4.44 seconds =       0.07 minutes
	total time  =          5 seconds =       0.08 minutes

  //>>>>>>>>>>>>>>>>>>>>>>>>>>>>>>>>>>>//
  //    Loading displacement 2 of 3    //
  //<<<<<<<<<<<<<<<<<<<<<<<<<<<<<<<<<<<//

*** tstart() called on bp1-compute00155.data.bp.acrc.priv
*** at Tue Apr 20 11:01:47 2021

   => Loading Basis Set <=

    Name: AUG-CC-PV(Q+D)Z
    Role: ORBITAL
    Keyword: BASIS
    atoms 1 entry CL         line  1246 file /work/zw18965/.conda/envs/p4env/share/psi4/basis/aug-cc-pv_qpd_z.gbs 
    atoms 2 entry F          line   499 file /work/zw18965/.conda/envs/p4env/share/psi4/basis/aug-cc-pv_qpd_z.gbs 


         ---------------------------------------------------------
                                   SCF
               by Justin Turney, Rob Parrish, Andy Simmonett
                          and Daniel G. A. Smith
                              RKS Reference
                       24 Threads, 137329 MiB Core
         ---------------------------------------------------------

  ==> Geometry <==

    Molecular point group: c2v
    Full point group: C_inf_v

    Geometry (in Angstrom), charge = 0, multiplicity = 1:

       Center              X                  Y                   Z               Mass       
    ------------   -----------------  -----------------  -----------------  -----------------
         CL           0.000000000000     0.000000000000     0.587078558953    34.968852682000
         F            0.000000000000     0.000000000000    -1.080588903443    18.998403162730

  Running in c2v symmetry.

  Rotational constants: A = ************  B =      0.49239  C =      0.49239 [cm^-1]
  Rotational constants: A = ************  B =  14761.48811  C =  14761.48811 [MHz]
  Nuclear repulsion =   48.549315171131560

  Charge       = 0
  Multiplicity = 1
  Electrons    = 26
  Nalpha       = 13
  Nbeta        = 13

  ==> Algorithm <==

  SCF Algorithm Type is DF.
  DIIS enabled.
  MOM disabled.
  Fractional occupation disabled.
  Guess Type is SAD.
  Energy threshold   = 1.00e-08
  Density threshold  = 1.00e-08
  Integral threshold = 0.00e+00

  ==> Primary Basis <==

  Basis Set: AUG-CC-PV(Q+D)Z
    Blend: AUG-CC-PV(Q+D)Z
    Number of shells: 43
    Number of basis function: 169
    Number of Cartesian functions: 220
    Spherical Harmonics?: true
    Max angular momentum: 4

  ==> DFT Potential <==

   => Composite Functional: WB97X-V <= 

    wB97X-V Hyb-GGA Exchange-Correlation Functional

    N. Mardirossian and M. Head-Gordon, Phys. Chem. Chem. Phys. 16, 9904 (2014)

    Deriv               =              1
    GGA                 =           TRUE
    Meta                =          FALSE

    Exchange Hybrid     =           TRUE
    MP2 Hybrid          =          FALSE

   => Exchange-Correlation Functionals <=

    1.0000   wB97X-V range-separated functional

   => Exact (HF) Exchange <=

    0.8330            HF,LR [omega = 0.3000]
    0.1670               HF 

   => VV10 Non-Local Parameters <=

    VV10 B              =     6.0000E+00
    VV10 C              =     1.0000E-02

   => Molecular Quadrature <=

    Radial Scheme          =       TREUTLER
    Pruning Scheme         =           FLAT
    Nuclear Scheme         =       TREUTLER

    BS radius alpha        =              1
    Pruning alpha          =              1
    Radial Points          =             75
    Spherical Points       =            302
    Total Points           =          45099
    Total Blocks           =            423
    Max Points             =            255
    Max Functions          =            169

   => Loading Basis Set <=

    Name: (AUG-CC-PV(Q+D)Z AUX)
    Role: JKFIT
    Keyword: DF_BASIS_SCF
    atoms 1 entry CL         line   904 file /work/zw18965/.conda/envs/p4env/share/psi4/basis/aug-cc-pvqz-jkfit.gbs 
    atoms 2 entry F          line   388 file /work/zw18965/.conda/envs/p4env/share/psi4/basis/aug-cc-pvqz-jkfit.gbs 

  ==> Pre-Iterations <==

   -------------------------------------------------------
    Irrep   Nso     Nmo     Nalpha   Nbeta   Ndocc  Nsocc
   -------------------------------------------------------
     A1        66      66       0       0       0       0
     A2        23      23       0       0       0       0
     B1        40      40       0       0       0       0
     B2        40      40       0       0       0       0
   -------------------------------------------------------
    Total     169     169      13      13      13       0
   -------------------------------------------------------

  ==> Integral Setup <==

  ==> DiskDFJK: Density-Fitted J/K Matrices <==

    J tasked:                  Yes
    K tasked:                  Yes
    wK tasked:                 Yes
    Omega:               3.000E-01
    OpenMP threads:             24
    Integrals threads:          24
    Memory [MiB]:           102802
    Algorithm:                Core
    Integral Cache:           NONE
    Schwarz Cutoff:          1E-12
    Fitting Condition:       1E-10

   => Auxiliary Basis Set <=

  Basis Set: (AUG-CC-PV(Q+D)Z AUX)
    Blend: AUG-CC-PVQZ-JKFIT
    Number of shells: 80
    Number of basis function: 326
    Number of Cartesian functions: 445
    Spherical Harmonics?: true
    Max angular momentum: 5

  Cached 100.0% of DFT collocation blocks in 0.190 [GiB].

  Minimum eigenvalue in the overlap matrix is 3.0098865276E-04.
  Using Symmetric Orthogonalization.

  SCF Guess: Superposition of Atomic Densities via on-the-fly atomic UHF.

  ==> Iterations <==

                           Total Energy        Delta E     RMS |[F,P]|

   @DF-RKS iter SAD:  -559.63051331700638   -5.59631e+02   0.00000e+00 
   @DF-RKS iter   1:  -559.90423090605361   -2.73718e-01   3.07803e-03 DIIS
   @DF-RKS iter   2:  -559.91618580373165   -1.19549e-02   2.31872e-03 DIIS
   @DF-RKS iter   3:  -559.92591847661708   -9.73267e-03   7.36657e-04 DIIS
   @DF-RKS iter   4:  -559.92712615825474   -1.20768e-03   1.04028e-04 DIIS
   @DF-RKS iter   5:  -559.92717741324100   -5.12550e-05   3.43406e-05 DIIS
   @DF-RKS iter   6:  -559.92718276080416   -5.34756e-06   6.75022e-06 DIIS
   @DF-RKS iter   7:  -559.92718320321683   -4.42413e-07   1.52103e-06 DIIS
   @DF-RKS iter   8:  -559.92718322069243   -1.74756e-08   4.58078e-07 DIIS
   @DF-RKS iter   9:  -559.92718322165069   -9.58266e-10   4.64182e-08 DIIS
   @DF-RKS iter  10:  -559.92718322166832   -1.76215e-11   6.19397e-09 DIIS
  Energy and wave function converged.


  ==> Post-Iterations <==

    Orbital Energies [Eh]
    ---------------------

    Doubly Occupied:                                                      

       1A1  -101.640943     2A1   -24.814333     3A1    -9.650275  
       4A1    -7.413464     1B2    -7.394581     1B1    -7.394581  
       5A1    -1.363237     6A1    -0.968241     7A1    -0.640543  
       2B1    -0.601321     2B2    -0.601321     3B1    -0.446318  
       3B2    -0.446318  

    Virtual:                                                              

       8A1    -0.041637     9A1     0.073978     4B2     0.093357  
       4B1     0.093357    10A1     0.095637    11A1     0.176302  
       5B2     0.199643     5B1     0.199643     1A2     0.227708  
      12A1     0.227708     6B2     0.291342     6B1     0.291342  
      13A1     0.312530    14A1     0.320047     7B1     0.424473  
       7B2     0.424473    15A1     0.431583    16A1     0.537027  
       2A2     0.537029     8B1     0.546573     8B2     0.546573  
      17A1     0.575038    18A1     0.629695     3A2     0.629696  
      19A1     0.681738     9B1     0.756852     9B2     0.756852  
      10B1     0.761400    10B2     0.761400    20A1     0.824785  
      11B1     0.863495    11B2     0.863495     4A2     0.893552  
      21A1     0.893557    22A1     0.952612    12B1     1.078688  
      12B2     1.078688    23A1     1.082555    24A1     1.332404  
      25A1     1.403551     5A2     1.403551    13B1     1.479281  
      13B2     1.479281    26A1     1.484359    14B2     1.633450  
      14B1     1.633450    15B1     1.643806    15B2     1.643806  
       6A2     1.662437    27A1     1.662440    16B1     1.689667  
      16B2     1.689667    28A1     1.747427     7A2     1.747427  
      17B1     1.878317    17B2     1.878317    29A1     1.901612  
      30A1     1.932498     8A2     1.932503    31A1     2.007482  
      18B2     2.011029    18B1     2.011029    32A1     2.018342  
       9A2     2.018356    19B1     2.064711    19B2     2.064711  
      33A1     2.284990    20B1     2.323150    20B2     2.323150  
      34A1     2.346921    10A2     2.459653    35A1     2.459674  
      36A1     2.594993    21B1     2.813279    21B2     2.813279  
      37A1     2.869836    22B1     3.326575    22B2     3.326575  
      38A1     3.430302    11A2     3.430314    39A1     3.464912  
      23B1     3.614864    23B2     3.614864    40A1     4.112579  
      24B1     4.118677    24B2     4.118677    12A2     4.228448  
      41A1     4.228451    25B2     4.362101    25B1     4.362101  
      42A1     4.399098    13A2     4.399101    26B2     4.409382  
      26B1     4.409382    43A1     4.417877    14A2     4.417904  
      44A1     4.453316    45A1     4.519874    15A2     4.519955  
      27B2     4.616364    27B1     4.616364    28B1     4.647443  
      28B2     4.647443    46A1     4.971301    47A1     5.068888  
      16A2     5.131845    48A1     5.131857    29B2     5.247650  
      29B1     5.247650    30B1     5.282364    30B2     5.282364  
      49A1     5.293482    17A2     5.453618    50A1     5.453626  
      18A2     5.538434    51A1     5.538478    31B1     5.645661  
      31B2     5.645661    52A1     5.978138    32B1     6.066379  
      32B2     6.066379    53A1     6.406211    33B1     6.436608  
      33B2     6.436608    54A1     7.789715    19A2    10.766403  
      55A1    10.766426    34B1    10.919908    34B2    10.919908  
      56A1    11.115379    35B1    12.519368    35B2    12.519368  
      57A1    13.154835    20A2    13.155562    36B2    13.184578  
      36B1    13.184578    58A1    13.355204    21A2    13.355408  
      37B1    13.555826    37B2    13.555826    59A1    13.564517  
      60A1    13.704513    38B1    15.238462    38B2    15.238462  
      61A1    15.354921    22A2    15.355137    39B1    15.489860  
      39B2    15.489860    62A1    15.630706    23A2    16.098145  
      63A1    16.098313    40B1    16.550130    40B2    16.550130  
      64A1    16.797580    65A1    23.982232    66A1    52.861812  

    Final Occupation by Irrep:
             A1    A2    B1    B2 
    DOCC [     7,    0,    3,    3 ]

  @DF-RKS Final Energy:  -559.92718322166832

   => Energetics <=

    Nuclear Repulsion Energy =             48.5493151711315605
    One-Electron Energy =                -870.5687230976038791
    Two-Electron Energy =                 290.8523490923600434
    DFT Exchange-Correlation Energy =     -28.8700584855390545
    Empirical Dispersion Energy =           0.0000000000000000
    VV10 Nonlocal Energy =                  0.1099340979830338
    Total Energy =                       -559.9271832216684288

Computation Completed


Properties will be evaluated at   0.000000,   0.000000,   0.000000 [a0]

Properties computed using the SCF density matrix

  Nuclear Dipole Moment: [e a0]
     X:     0.0000      Y:     0.0000      Z:     0.4819

  Electronic Dipole Moment: [e a0]
     X:     0.0000      Y:     0.0000      Z:    -0.0930

  Dipole Moment: [e a0]
     X:     0.0000      Y:     0.0000      Z:     0.3889     Total:     0.3889

  Dipole Moment: [D]
     X:     0.0000      Y:     0.0000      Z:     0.9886     Total:     0.9886


*** tstop() called on bp1-compute00155.data.bp.acrc.priv at Tue Apr 20 11:01:51 2021
Module time:
	user time   =      84.84 seconds =       1.41 minutes
	system time =       2.88 seconds =       0.05 minutes
	total time  =          4 seconds =       0.07 minutes
Total time:
	user time   =     163.90 seconds =       2.73 minutes
	system time =       7.32 seconds =       0.12 minutes
	total time  =          9 seconds =       0.15 minutes

  //>>>>>>>>>>>>>>>>>>>>>>>>>>>>>>>>>>>//
  //    Loading displacement 3 of 3    //
  //<<<<<<<<<<<<<<<<<<<<<<<<<<<<<<<<<<<//

*** tstart() called on bp1-compute00155.data.bp.acrc.priv
*** at Tue Apr 20 11:01:51 2021

   => Loading Basis Set <=

    Name: AUG-CC-PV(Q+D)Z
    Role: ORBITAL
    Keyword: BASIS
    atoms 1 entry CL         line  1246 file /work/zw18965/.conda/envs/p4env/share/psi4/basis/aug-cc-pv_qpd_z.gbs 
    atoms 2 entry F          line   499 file /work/zw18965/.conda/envs/p4env/share/psi4/basis/aug-cc-pv_qpd_z.gbs 


         ---------------------------------------------------------
                                   SCF
               by Justin Turney, Rob Parrish, Andy Simmonett
                          and Daniel G. A. Smith
                              RKS Reference
                       24 Threads, 137329 MiB Core
         ---------------------------------------------------------

  ==> Geometry <==

    Molecular point group: c2v
    Full point group: C_inf_v

    Geometry (in Angstrom), charge = 0, multiplicity = 1:

       Center              X                  Y                   Z               Mass       
    ------------   -----------------  -----------------  -----------------  -----------------
         CL           0.000000000000     0.000000000000     0.587609509195    34.968852682000
         F            0.000000000000     0.000000000000    -1.081566181409    18.998403162730

  Running in c2v symmetry.

  Rotational constants: A = ************  B =      0.49150  C =      0.49150 [cm^-1]
  Rotational constants: A = ************  B =  14734.82389  C =  14734.82389 [MHz]
  Nuclear repulsion =   48.505447142725956

  Charge       = 0
  Multiplicity = 1
  Electrons    = 26
  Nalpha       = 13
  Nbeta        = 13

  ==> Algorithm <==

  SCF Algorithm Type is DF.
  DIIS enabled.
  MOM disabled.
  Fractional occupation disabled.
  Guess Type is SAD.
  Energy threshold   = 1.00e-08
  Density threshold  = 1.00e-08
  Integral threshold = 0.00e+00

  ==> Primary Basis <==

  Basis Set: AUG-CC-PV(Q+D)Z
    Blend: AUG-CC-PV(Q+D)Z
    Number of shells: 43
    Number of basis function: 169
    Number of Cartesian functions: 220
    Spherical Harmonics?: true
    Max angular momentum: 4

  ==> DFT Potential <==

   => Composite Functional: WB97X-V <= 

    wB97X-V Hyb-GGA Exchange-Correlation Functional

    N. Mardirossian and M. Head-Gordon, Phys. Chem. Chem. Phys. 16, 9904 (2014)

    Deriv               =              1
    GGA                 =           TRUE
    Meta                =          FALSE

    Exchange Hybrid     =           TRUE
    MP2 Hybrid          =          FALSE

   => Exchange-Correlation Functionals <=

    1.0000   wB97X-V range-separated functional

   => Exact (HF) Exchange <=

    0.8330            HF,LR [omega = 0.3000]
    0.1670               HF 

   => VV10 Non-Local Parameters <=

    VV10 B              =     6.0000E+00
    VV10 C              =     1.0000E-02

   => Molecular Quadrature <=

    Radial Scheme          =       TREUTLER
    Pruning Scheme         =           FLAT
    Nuclear Scheme         =       TREUTLER

    BS radius alpha        =              1
    Pruning alpha          =              1
    Radial Points          =             75
    Spherical Points       =            302
    Total Points           =          45099
    Total Blocks           =            423
    Max Points             =            255
    Max Functions          =            169

   => Loading Basis Set <=

    Name: (AUG-CC-PV(Q+D)Z AUX)
    Role: JKFIT
    Keyword: DF_BASIS_SCF
    atoms 1 entry CL         line   904 file /work/zw18965/.conda/envs/p4env/share/psi4/basis/aug-cc-pvqz-jkfit.gbs 
    atoms 2 entry F          line   388 file /work/zw18965/.conda/envs/p4env/share/psi4/basis/aug-cc-pvqz-jkfit.gbs 

  ==> Pre-Iterations <==

   -------------------------------------------------------
    Irrep   Nso     Nmo     Nalpha   Nbeta   Ndocc  Nsocc
   -------------------------------------------------------
     A1        66      66       0       0       0       0
     A2        23      23       0       0       0       0
     B1        40      40       0       0       0       0
     B2        40      40       0       0       0       0
   -------------------------------------------------------
    Total     169     169      13      13      13       0
   -------------------------------------------------------

  ==> Integral Setup <==

  ==> DiskDFJK: Density-Fitted J/K Matrices <==

    J tasked:                  Yes
    K tasked:                  Yes
    wK tasked:                 Yes
    Omega:               3.000E-01
    OpenMP threads:             24
    Integrals threads:          24
    Memory [MiB]:           102802
    Algorithm:                Core
    Integral Cache:           NONE
    Schwarz Cutoff:          1E-12
    Fitting Condition:       1E-10

   => Auxiliary Basis Set <=

  Basis Set: (AUG-CC-PV(Q+D)Z AUX)
    Blend: AUG-CC-PVQZ-JKFIT
    Number of shells: 80
    Number of basis function: 326
    Number of Cartesian functions: 445
    Spherical Harmonics?: true
    Max angular momentum: 5

  Cached 100.0% of DFT collocation blocks in 0.190 [GiB].

  Minimum eigenvalue in the overlap matrix is 3.0188418051E-04.
  Using Symmetric Orthogonalization.

  SCF Guess: Superposition of Atomic Densities via on-the-fly atomic UHF.

  ==> Iterations <==

                           Total Energy        Delta E     RMS |[F,P]|

   @DF-RKS iter SAD:  -559.62853778780334   -5.59629e+02   0.00000e+00 
   @DF-RKS iter   1:  -559.90417956246245   -2.75642e-01   3.07656e-03 DIIS
   @DF-RKS iter   2:  -559.91604457948040   -1.18650e-02   2.32404e-03 DIIS
   @DF-RKS iter   3:  -559.92583706425637   -9.79248e-03   7.38097e-04 DIIS
   @DF-RKS iter   4:  -559.92705006085794   -1.21300e-03   1.03765e-04 DIIS
   @DF-RKS iter   5:  -559.92710110148039   -5.10406e-05   3.43097e-05 DIIS
   @DF-RKS iter   6:  -559.92710643854980   -5.33707e-06   6.75057e-06 DIIS
   @DF-RKS iter   7:  -559.92710688071338   -4.42164e-07   1.52011e-06 DIIS
   @DF-RKS iter   8:  -559.92710689817227   -1.74589e-08   4.58838e-07 DIIS
   @DF-RKS iter   9:  -559.92710689913349   -9.61222e-10   4.63996e-08 DIIS
   @DF-RKS iter  10:  -559.92710689915066   -1.71667e-11   6.19142e-09 DIIS
  Energy and wave function converged.


  ==> Post-Iterations <==

    Orbital Energies [Eh]
    ---------------------

    Doubly Occupied:                                                      

       1A1  -101.641064     2A1   -24.814278     3A1    -9.650380  
       4A1    -7.413573     1B1    -7.394686     1B2    -7.394686  
       5A1    -1.362740     6A1    -0.968351     7A1    -0.640269  
       2B2    -0.601013     2B1    -0.601013     3B1    -0.446494  
       3B2    -0.446494  

    Virtual:                                                              

       8A1    -0.042179     9A1     0.073991     4B2     0.093360  
       4B1     0.093360    10A1     0.095573    11A1     0.176275  
       5B1     0.199658     5B2     0.199658     1A2     0.227698  
      12A1     0.227698     6B1     0.291253     6B2     0.291253  
      13A1     0.312577    14A1     0.319933     7B2     0.424513  
       7B1     0.424513    15A1     0.431617    16A1     0.537021  
       2A2     0.537023     8B1     0.546451     8B2     0.546451  
      17A1     0.574933    18A1     0.629627     3A2     0.629628  
      19A1     0.681449     9B1     0.756938     9B2     0.756938  
      10B2     0.761383    10B1     0.761383    20A1     0.824535  
      11B1     0.863250    11B2     0.863250     4A2     0.893395  
      21A1     0.893401    22A1     0.952840    12B1     1.078902  
      12B2     1.078902    23A1     1.082509    24A1     1.332296  
      25A1     1.403486     5A2     1.403486    13B1     1.479334  
      13B2     1.479334    26A1     1.484382    14B1     1.633472  
      14B2     1.633472    15B1     1.643241    15B2     1.643241  
       6A2     1.662485    27A1     1.662487    16B1     1.689412  
      16B2     1.689412    28A1     1.747402     7A2     1.747402  
      17B1     1.878274    17B2     1.878274    29A1     1.901204  
      30A1     1.932215     8A2     1.932220    31A1     2.007132  
      18B1     2.010618    18B2     2.010618    32A1     2.018108  
       9A2     2.018122    19B1     2.064435    19B2     2.064435  
      33A1     2.284068    20B1     2.322608    20B2     2.322608  
      34A1     2.347109    10A2     2.458731    35A1     2.458752  
      36A1     2.593110    21B1     2.814166    21B2     2.814166  
      37A1     2.869933    22B1     3.325760    22B2     3.325760  
      38A1     3.430272    11A2     3.430284    39A1     3.465581  
      23B1     3.613145    23B2     3.613145    40A1     4.112762  
      24B1     4.118897    24B2     4.118897    12A2     4.229212  
      41A1     4.229215    25B1     4.362091    25B2     4.362091  
      42A1     4.398724    13A2     4.398727    26B1     4.409712  
      26B2     4.409712    43A1     4.417826    14A2     4.417853  
      44A1     4.451677    45A1     4.520015    15A2     4.520096  
      27B1     4.615685    27B2     4.615685    28B1     4.646456  
      28B2     4.646456    46A1     4.968953    47A1     5.067307  
      16A2     5.129831    48A1     5.129842    29B1     5.247590  
      29B2     5.247590    30B1     5.282295    30B2     5.282295  
      49A1     5.291885    17A2     5.453242    50A1     5.453250  
      18A2     5.537446    51A1     5.537489    31B1     5.645195  
      31B2     5.645195    52A1     5.980984    32B1     6.064500  
      32B2     6.064500    53A1     6.401474    33B1     6.433402  
      33B2     6.433402    54A1     7.787213    19A2    10.766260  
      55A1    10.766283    34B1    10.919498    34B2    10.919498  
      56A1    11.113947    35B2    12.518017    35B1    12.518017  
      57A1    13.154994    20A2    13.155729    36B2    13.184511  
      36B1    13.184511    58A1    13.354519    21A2    13.354724  
      37B1    13.555583    37B2    13.555583    59A1    13.564626  
      60A1    13.700341    38B2    15.238511    38B1    15.238511  
      61A1    15.354701    22A2    15.354916    39B2    15.489416  
      39B1    15.489416    62A1    15.628951    23A2    16.097966  
      63A1    16.098136    40B1    16.548648    40B2    16.548648  
      64A1    16.797252    65A1    23.975290    66A1    52.858783  

    Final Occupation by Irrep:
             A1    A2    B1    B2 
    DOCC [     7,    0,    3,    3 ]

  @DF-RKS Final Energy:  -559.92710689915066

   => Energetics <=

    Nuclear Repulsion Energy =             48.5054471427259557
    One-Electron Energy =                -870.4820348537494965
    Two-Electron Energy =                 290.8090775487590349
    DFT Exchange-Correlation Energy =     -28.8695334028054731
    Empirical Dispersion Energy =           0.0000000000000000
    VV10 Nonlocal Energy =                  0.1099366659192587
    Total Energy =                       -559.9271068991507718

Computation Completed


Properties will be evaluated at   0.000000,   0.000000,   0.000000 [a0]

Properties computed using the SCF density matrix

  Nuclear Dipole Moment: [e a0]
     X:     0.0000      Y:     0.0000      Z:     0.4824

  Electronic Dipole Moment: [e a0]
     X:     0.0000      Y:     0.0000      Z:    -0.0917

  Dipole Moment: [e a0]
     X:     0.0000      Y:     0.0000      Z:     0.3907     Total:     0.3907

  Dipole Moment: [D]
     X:     0.0000      Y:     0.0000      Z:     0.9930     Total:     0.9930


*** tstop() called on bp1-compute00155.data.bp.acrc.priv at Tue Apr 20 11:01:55 2021
Module time:
	user time   =      78.44 seconds =       1.31 minutes
	system time =       2.61 seconds =       0.04 minutes
	total time  =          4 seconds =       0.07 minutes
Total time:
	user time   =     242.48 seconds =       4.04 minutes
	system time =       9.93 seconds =       0.17 minutes
	total time  =         13 seconds =       0.22 minutes

         ----------------------------------------------------------
                                   FINDIF
                     R. A. King and Jonathon Misiewicz
         ---------------------------------------------------------

  Computing gradient from energies.
    Using 3-point formula.
    Energy without displacement: -559.9271453184
    Check energies below for precision!
    Forces are for mass-weighted, symmetry-adapted cartesians (in au).

     Coord      Energy(-1)        Energy(+1)            Force
        0   -559.9271832217   -559.9271068992      0.0076322518


-------------------------------------------------------------
  ## New Matrix (Symmetry 0) ##
  Irrep: 1 Size: 2 x 3

                 1                   2                   3

    1     0.00000000000000     0.00000000000000     0.02677853178769
    2     0.00000000000000     0.00000000000000    -0.02677853178769




			-----------------------------------------
			 OPTKING 2.0: for geometry optimizations 
			  - R.A. King,  Bethel University        
			-----------------------------------------

	Internal coordinates to be generated automatically.
	Detected frag 1 with atoms:  1 2
	---Fragment 1 Bond Connectivity---
	 1 : 2
	 2 : 1

	---Fragment 1 Geometry and Gradient---
	 CL          0.0000000000        0.0000000000        1.1099193658
	 F           0.0000000000        0.0000000000       -2.0429404756
	             0.0000000000        0.0000000000        0.0267785318
	             0.0000000000        0.0000000000       -0.0267785318

	Previous optimization step data not found.  Starting new optimization.

	---Fragment 1 Intrafragment Coordinates---
	 - Coordinate -           - BOHR/RAD -       - ANG/DEG -
	 R(1,2)           =         3.152860	       1.668422

	Current energy   :      -559.9271453184

	Generating empirical Hessian (Schlegel '84) for each fragment.
	Taking RFO optimization step.
	Going to follow RFO solution 1.
	Using RFO vector 1.
	Norm of target step-size    0.06669
	Projected energy change by RFO approximation:         0.0004359244

	Back-transformation to cartesian coordinates...
	Successfully converged to displaced geometry.

	--- Internal Coordinate Step in ANG or DEG, aJ/ANG or AJ/DEG ---
	 ---------------------------------------------------------------------------
	   Coordinate                Previous        Force       Change         New 
	   ----------                --------       ------       ------       ------
	    1 R(1,2)          =      1.668422    -0.220621    -0.035290     1.633131
	 ---------------------------------------------------------------------------
	Successfully symmetrized geometry.

  ==> Convergence Check <==

  Measures of convergence in internal coordinates in au.
  Criteria marked as inactive (o), active & met (*), and active & unmet ( ).
  --------------------------------------------------------------------------------------------- ~
   Step     Total Energy     Delta E     MAX Force     RMS Force      MAX Disp      RMS Disp    ~
  --------------------------------------------------------------------------------------------- ~
    Convergence Criteria    1.00e-06 *    3.00e-04 *             o    1.20e-03 *             o  ~
  --------------------------------------------------------------------------------------------- ~
      1    -559.92714532   -5.60e+02      2.68e-02      2.68e-02 o    6.67e-02      6.67e-02 o  ~
  ---------------------------------------------------------------------------------------------

	Writing optimization data to binary file.
	Structure for next step:
	Cartesian Geometry (in Angstrom)
	   CL     0.0000000000   0.0000000000   0.5696989798
	    F     0.0000000000   0.0000000000  -1.0634324862
			--------------------------
			 OPTKING Finished Execution 
			--------------------------

    Structure for next step:
    Molecular point group: c2v
    Full point group: C_inf_v

    Geometry (in Angstrom), charge = 0, multiplicity = 1:

    CL           0.000000000000     0.000000000000     0.574920655940
    F            0.000000000000     0.000000000000    -1.058210816415

gradient() will perform gradient computation by finite difference of analytic energies.

         ----------------------------------------------------------
                                   FINDIF
                     R. A. King and Jonathon Misiewicz
         ---------------------------------------------------------

  Using finite-differences of energies to determine gradients.
    Generating geometries for use with 3-point formula.
    Displacement size will be 5.00e-03.
    Number of atoms is 2.
    Number of symmetric SALCs is 1.
    Translations projected? 1. Rotations projected? 1.
    Number of geometries (including reference) is 3.

  //>>>>>>>>>>>>>>>>>>>>>>>>>>>>>>>>>>>//
  //    Loading displacement 1 of 3    //
  //<<<<<<<<<<<<<<<<<<<<<<<<<<<<<<<<<<<//

*** tstart() called on bp1-compute00155.data.bp.acrc.priv
*** at Tue Apr 20 11:01:55 2021

   => Loading Basis Set <=

    Name: AUG-CC-PV(Q+D)Z
    Role: ORBITAL
    Keyword: BASIS
    atoms 1 entry CL         line  1246 file /work/zw18965/.conda/envs/p4env/share/psi4/basis/aug-cc-pv_qpd_z.gbs 
    atoms 2 entry F          line   499 file /work/zw18965/.conda/envs/p4env/share/psi4/basis/aug-cc-pv_qpd_z.gbs 


         ---------------------------------------------------------
                                   SCF
               by Justin Turney, Rob Parrish, Andy Simmonett
                          and Daniel G. A. Smith
                              RKS Reference
                       24 Threads, 137329 MiB Core
         ---------------------------------------------------------

  ==> Geometry <==

    Molecular point group: c2v
    Full point group: C_inf_v

    Geometry (in Angstrom), charge = 0, multiplicity = 1:

       Center              X                  Y                   Z               Mass       
    ------------   -----------------  -----------------  -----------------  -----------------
         CL           0.000000000000     0.000000000000     0.574920655940    34.968852682000
         F            0.000000000000     0.000000000000    -1.058210816415    18.998403162730

  Running in c2v symmetry.

  Rotational constants: A = ************  B =      0.51344  C =      0.51344 [cm^-1]
  Rotational constants: A = ************  B =  15392.41469  C =  15392.41469 [MHz]
  Nuclear repulsion =   49.575992259691276

  Charge       = 0
  Multiplicity = 1
  Electrons    = 26
  Nalpha       = 13
  Nbeta        = 13

  ==> Algorithm <==

  SCF Algorithm Type is DF.
  DIIS enabled.
  MOM disabled.
  Fractional occupation disabled.
  Guess Type is READ.
  Energy threshold   = 1.00e-08
  Density threshold  = 1.00e-08
  Integral threshold = 0.00e+00

  ==> Primary Basis <==

  Basis Set: AUG-CC-PV(Q+D)Z
    Blend: AUG-CC-PV(Q+D)Z
    Number of shells: 43
    Number of basis function: 169
    Number of Cartesian functions: 220
    Spherical Harmonics?: true
    Max angular momentum: 4

  ==> DFT Potential <==

   => Composite Functional: WB97X-V <= 

    wB97X-V Hyb-GGA Exchange-Correlation Functional

    N. Mardirossian and M. Head-Gordon, Phys. Chem. Chem. Phys. 16, 9904 (2014)

    Deriv               =              1
    GGA                 =           TRUE
    Meta                =          FALSE

    Exchange Hybrid     =           TRUE
    MP2 Hybrid          =          FALSE

   => Exchange-Correlation Functionals <=

    1.0000   wB97X-V range-separated functional

   => Exact (HF) Exchange <=

    0.8330            HF,LR [omega = 0.3000]
    0.1670               HF 

   => VV10 Non-Local Parameters <=

    VV10 B              =     6.0000E+00
    VV10 C              =     1.0000E-02

   => Molecular Quadrature <=

    Radial Scheme          =       TREUTLER
    Pruning Scheme         =           FLAT
    Nuclear Scheme         =       TREUTLER

    BS radius alpha        =              1
    Pruning alpha          =              1
    Radial Points          =             75
    Spherical Points       =            302
    Total Points           =          45099
    Total Blocks           =            423
    Max Points             =            256
    Max Functions          =            169

   => Loading Basis Set <=

    Name: (AUG-CC-PV(Q+D)Z AUX)
    Role: JKFIT
    Keyword: DF_BASIS_SCF
    atoms 1 entry CL         line   904 file /work/zw18965/.conda/envs/p4env/share/psi4/basis/aug-cc-pvqz-jkfit.gbs 
    atoms 2 entry F          line   388 file /work/zw18965/.conda/envs/p4env/share/psi4/basis/aug-cc-pvqz-jkfit.gbs 

   => Loading Basis Set <=

    Name: AUG-CC-PV(Q+D)Z
    Role: ORBITAL
    Keyword: BASIS
    atoms 1 entry CL         line  1246 file /work/zw18965/.conda/envs/p4env/share/psi4/basis/aug-cc-pv_qpd_z.gbs 
    atoms 2 entry F          line   499 file /work/zw18965/.conda/envs/p4env/share/psi4/basis/aug-cc-pv_qpd_z.gbs 

  Reading orbitals from file 180, no projection.

  ==> Pre-Iterations <==

   -------------------------------------------------------
    Irrep   Nso     Nmo     Nalpha   Nbeta   Ndocc  Nsocc
   -------------------------------------------------------
     A1        66      66       0       0       0       0
     A2        23      23       0       0       0       0
     B1        40      40       0       0       0       0
     B2        40      40       0       0       0       0
   -------------------------------------------------------
    Total     169     169      13      13      13       0
   -------------------------------------------------------

  ==> Integral Setup <==

  ==> DiskDFJK: Density-Fitted J/K Matrices <==

    J tasked:                  Yes
    K tasked:                  Yes
    wK tasked:                 Yes
    Omega:               3.000E-01
    OpenMP threads:             24
    Integrals threads:          24
    Memory [MiB]:           102800
    Algorithm:                Core
    Integral Cache:           NONE
    Schwarz Cutoff:          1E-12
    Fitting Condition:       1E-10

   => Auxiliary Basis Set <=

  Basis Set: (AUG-CC-PV(Q+D)Z AUX)
    Blend: AUG-CC-PVQZ-JKFIT
    Number of shells: 80
    Number of basis function: 326
    Number of Cartesian functions: 445
    Spherical Harmonics?: true
    Max angular momentum: 5

  Cached 100.0% of DFT collocation blocks in 0.191 [GiB].

  Minimum eigenvalue in the overlap matrix is 2.8104489095E-04.
  Using Symmetric Orthogonalization.

  SCF Guess: Orbitals guess was supplied from a previous computation.

  ==> Iterations <==

                           Total Energy        Delta E     RMS |[F,P]|

   @DF-RKS iter   0:  -559.94055478055293   -5.59941e+02   9.97671e-04 
   @DF-RKS iter   1:  -559.92823869621873    1.23161e-02   1.86206e-04 DIIS
   @DF-RKS iter   2:  -559.92830648880295   -6.77926e-05   1.03917e-04 DIIS
   @DF-RKS iter   3:  -559.92832895915183   -2.24703e-05   9.39136e-06 DIIS
   @DF-RKS iter   4:  -559.92832929712301   -3.37971e-07   6.97921e-06 DIIS
   @DF-RKS iter   5:  -559.92832941696724   -1.19844e-07   2.45478e-06 DIIS
   @DF-RKS iter   6:  -559.92832943559995   -1.86327e-08   3.27816e-07 DIIS
   @DF-RKS iter   7:  -559.92832943619237   -5.92422e-10   7.31966e-08 DIIS
   @DF-RKS iter   8:  -559.92832943624478   -5.24096e-11   2.31374e-08 DIIS
   @DF-RKS iter   9:  -559.92832943624785   -3.06954e-12   2.94498e-09 DIIS
  Energy and wave function converged.


  ==> Post-Iterations <==

    Orbital Energies [Eh]
    ---------------------

    Doubly Occupied:                                                      

       1A1  -101.638110     2A1   -24.815668     3A1    -9.647829  
       4A1    -7.410933     1B1    -7.392122     1B2    -7.392122  
       5A1    -1.375269     6A1    -0.965639     7A1    -0.646823  
       2B1    -0.608741     2B2    -0.608741     3B2    -0.442179  
       3B1    -0.442179  

    Virtual:                                                              

       8A1    -0.029161     9A1     0.073692     4B2     0.093293  
       4B1     0.093293    10A1     0.097251    11A1     0.176953  
       5B2     0.199249     5B1     0.199249    12A1     0.227931  
       1A2     0.227931     6B2     0.293454     6B1     0.293454  
      13A1     0.311458    14A1     0.322781     7B2     0.423446  
       7B1     0.423446    15A1     0.430905    16A1     0.537121  
       2A2     0.537123     8B1     0.549521     8B2     0.549521  
      17A1     0.577327    18A1     0.631262     3A2     0.631264  
      19A1     0.688938     9B2     0.754888     9B1     0.754888  
      10B2     0.761781    10B1     0.761781    20A1     0.830432  
      11B1     0.868974    11B2     0.868974     4A2     0.897093  
      21A1     0.897097    22A1     0.947280    12B1     1.073424  
      12B2     1.073424    23A1     1.083802    24A1     1.335121  
       5A2     1.405038    25A1     1.405038    13B2     1.478045  
      13B1     1.478045    26A1     1.483661    14B2     1.633106  
      14B1     1.633106    15B2     1.656930    15B1     1.656930  
       6A2     1.661092    27A1     1.661093    16B2     1.696107  
      16B1     1.696107    28A1     1.747998     7A2     1.747998  
      17B2     1.879281    17B1     1.879281    29A1     1.911269  
      30A1     1.939025     8A2     1.939032    31A1     2.015171  
      18B2     2.020526    18B1     2.020526    32A1     2.023814  
       9A2     2.023832    19B1     2.071198    19B2     2.071198  
      33A1     2.297846    20B1     2.335760    20B2     2.335760  
      34A1     2.348584    10A2     2.480986    35A1     2.481008  
      36A1     2.639115    21B1     2.791262    21B2     2.791262  
      37A1     2.869737    22B2     3.344948    22B1     3.344948  
      38A1     3.431198    11A2     3.431210    39A1     3.452392  
      23B1     3.655986    23B2     3.655986    40A1     4.108985  
      24B2     4.115421    24B1     4.115421    12A2     4.211535  
      41A1     4.211537    25B2     4.361837    25B1     4.361837  
      26B2     4.400898    26B1     4.400898    42A1     4.408420  
      13A2     4.408424    43A1     4.419163    14A2     4.419183  
      44A1     4.488152    45A1     4.516409    15A2     4.516479  
      27B2     4.633745    27B1     4.633745    28B2     4.670177  
      28B1     4.670177    46A1     5.014529    47A1     5.117265  
      16A2     5.176700    48A1     5.176708    29B1     5.249084  
      29B2     5.249084    30B2     5.283825    30B1     5.283825  
      49A1     5.331649    50A1     5.464215    17A2     5.464215  
      18A2     5.562224    51A1     5.562263    31B2     5.656229  
      31B1     5.656229    52A1     5.913923    32B2     6.106906  
      32B1     6.106906    33B1     6.513467    33B2     6.513467  
      53A1     6.517895    54A1     7.839475    19A2    10.769748  
      55A1    10.769767    34B1    10.928265    34B2    10.928265  
      56A1    11.153154    35B2    12.553360    35B1    12.553360  
      57A1    13.150987    20A2    13.151532    36B2    13.186188  
      36B1    13.186188    58A1    13.370956    21A2    13.371140  
      59A1    13.559689    37B1    13.559729    37B2    13.559729  
      60A1    13.800474    38B1    15.237254    38B2    15.237254  
      61A1    15.359963    22A2    15.360202    39B1    15.501772  
      39B2    15.501772    62A1    15.675051    23A2    16.102698  
      63A1    16.102836    40B2    16.582623    40B1    16.582623  
      64A1    16.801300    65A1    24.158002    66A1    52.938912  

    Final Occupation by Irrep:
             A1    A2    B1    B2 
    DOCC [     7,    0,    3,    3 ]

  @DF-RKS Final Energy:  -559.92832943624785

   => Energetics <=

    Nuclear Repulsion Energy =             49.5759922596912759
    One-Electron Energy =                -872.5948023155306146
    Two-Electron Energy =                 291.8631778808186255
    DFT Exchange-Correlation Energy =     -28.8825727782800143
    Empirical Dispersion Energy =           0.0000000000000000
    VV10 Nonlocal Energy =                  0.1098755170529037
    Total Energy =                       -559.9283294362478500

Computation Completed


Properties will be evaluated at   0.000000,   0.000000,   0.000000 [a0]

Properties computed using the SCF density matrix

  Nuclear Dipole Moment: [e a0]
     X:     0.0000      Y:     0.0000      Z:     0.4720

  Electronic Dipole Moment: [e a0]
     X:     0.0000      Y:     0.0000      Z:    -0.1243

  Dipole Moment: [e a0]
     X:     0.0000      Y:     0.0000      Z:     0.3477     Total:     0.3477

  Dipole Moment: [D]
     X:     0.0000      Y:     0.0000      Z:     0.8837     Total:     0.8837


*** tstop() called on bp1-compute00155.data.bp.acrc.priv at Tue Apr 20 11:01:58 2021
Module time:
	user time   =      61.12 seconds =       1.02 minutes
	system time =       1.67 seconds =       0.03 minutes
	total time  =          3 seconds =       0.05 minutes
Total time:
	user time   =     305.19 seconds =       5.09 minutes
	system time =      11.70 seconds =       0.19 minutes
	total time  =         16 seconds =       0.27 minutes

  //>>>>>>>>>>>>>>>>>>>>>>>>>>>>>>>>>>>//
  //    Loading displacement 2 of 3    //
  //<<<<<<<<<<<<<<<<<<<<<<<<<<<<<<<<<<<//

*** tstart() called on bp1-compute00155.data.bp.acrc.priv
*** at Tue Apr 20 11:01:58 2021

   => Loading Basis Set <=

    Name: AUG-CC-PV(Q+D)Z
    Role: ORBITAL
    Keyword: BASIS
    atoms 1 entry CL         line  1246 file /work/zw18965/.conda/envs/p4env/share/psi4/basis/aug-cc-pv_qpd_z.gbs 
    atoms 2 entry F          line   499 file /work/zw18965/.conda/envs/p4env/share/psi4/basis/aug-cc-pv_qpd_z.gbs 


         ---------------------------------------------------------
                                   SCF
               by Justin Turney, Rob Parrish, Andy Simmonett
                          and Daniel G. A. Smith
                              RKS Reference
                       24 Threads, 137329 MiB Core
         ---------------------------------------------------------

  ==> Geometry <==

    Molecular point group: c2v
    Full point group: C_inf_v

    Geometry (in Angstrom), charge = 0, multiplicity = 1:

       Center              X                  Y                   Z               Mass       
    ------------   -----------------  -----------------  -----------------  -----------------
         CL           0.000000000000     0.000000000000     0.574655180819    34.968852682000
         F            0.000000000000     0.000000000000    -1.057722177432    18.998403162730

  Running in c2v symmetry.

  Rotational constants: A = ************  B =      0.51391  C =      0.51391 [cm^-1]
  Rotational constants: A = ************  B =  15406.63973  C =  15406.63973 [MHz]
  Nuclear repulsion =   49.598895024660614

  Charge       = 0
  Multiplicity = 1
  Electrons    = 26
  Nalpha       = 13
  Nbeta        = 13

  ==> Algorithm <==

  SCF Algorithm Type is DF.
  DIIS enabled.
  MOM disabled.
  Fractional occupation disabled.
  Guess Type is READ.
  Energy threshold   = 1.00e-08
  Density threshold  = 1.00e-08
  Integral threshold = 0.00e+00

  ==> Primary Basis <==

  Basis Set: AUG-CC-PV(Q+D)Z
    Blend: AUG-CC-PV(Q+D)Z
    Number of shells: 43
    Number of basis function: 169
    Number of Cartesian functions: 220
    Spherical Harmonics?: true
    Max angular momentum: 4

  ==> DFT Potential <==

   => Composite Functional: WB97X-V <= 

    wB97X-V Hyb-GGA Exchange-Correlation Functional

    N. Mardirossian and M. Head-Gordon, Phys. Chem. Chem. Phys. 16, 9904 (2014)

    Deriv               =              1
    GGA                 =           TRUE
    Meta                =          FALSE

    Exchange Hybrid     =           TRUE
    MP2 Hybrid          =          FALSE

   => Exchange-Correlation Functionals <=

    1.0000   wB97X-V range-separated functional

   => Exact (HF) Exchange <=

    0.8330            HF,LR [omega = 0.3000]
    0.1670               HF 

   => VV10 Non-Local Parameters <=

    VV10 B              =     6.0000E+00
    VV10 C              =     1.0000E-02

   => Molecular Quadrature <=

    Radial Scheme          =       TREUTLER
    Pruning Scheme         =           FLAT
    Nuclear Scheme         =       TREUTLER

    BS radius alpha        =              1
    Pruning alpha          =              1
    Radial Points          =             75
    Spherical Points       =            302
    Total Points           =          45099
    Total Blocks           =            423
    Max Points             =            256
    Max Functions          =            169

   => Loading Basis Set <=

    Name: (AUG-CC-PV(Q+D)Z AUX)
    Role: JKFIT
    Keyword: DF_BASIS_SCF
    atoms 1 entry CL         line   904 file /work/zw18965/.conda/envs/p4env/share/psi4/basis/aug-cc-pvqz-jkfit.gbs 
    atoms 2 entry F          line   388 file /work/zw18965/.conda/envs/p4env/share/psi4/basis/aug-cc-pvqz-jkfit.gbs 

   => Loading Basis Set <=

    Name: AUG-CC-PV(Q+D)Z
    Role: ORBITAL
    Keyword: BASIS
    atoms 1 entry CL         line  1246 file /work/zw18965/.conda/envs/p4env/share/psi4/basis/aug-cc-pv_qpd_z.gbs 
    atoms 2 entry F          line   499 file /work/zw18965/.conda/envs/p4env/share/psi4/basis/aug-cc-pv_qpd_z.gbs 

  Reading orbitals from file 180, no projection.

  ==> Pre-Iterations <==

   -------------------------------------------------------
    Irrep   Nso     Nmo     Nalpha   Nbeta   Ndocc  Nsocc
   -------------------------------------------------------
     A1        66      66       0       0       0       0
     A2        23      23       0       0       0       0
     B1        40      40       0       0       0       0
     B2        40      40       0       0       0       0
   -------------------------------------------------------
    Total     169     169      13      13      13       0
   -------------------------------------------------------

  ==> Integral Setup <==

  ==> DiskDFJK: Density-Fitted J/K Matrices <==

    J tasked:                  Yes
    K tasked:                  Yes
    wK tasked:                 Yes
    Omega:               3.000E-01
    OpenMP threads:             24
    Integrals threads:          24
    Memory [MiB]:           102800
    Algorithm:                Core
    Integral Cache:           NONE
    Schwarz Cutoff:          1E-12
    Fitting Condition:       1E-10

   => Auxiliary Basis Set <=

  Basis Set: (AUG-CC-PV(Q+D)Z AUX)
    Blend: AUG-CC-PVQZ-JKFIT
    Number of shells: 80
    Number of basis function: 326
    Number of Cartesian functions: 445
    Spherical Harmonics?: true
    Max angular momentum: 5

  Cached 100.0% of DFT collocation blocks in 0.191 [GiB].

  Minimum eigenvalue in the overlap matrix is 2.8062101464E-04.
  Using Symmetric Orthogonalization.

  SCF Guess: Orbitals guess was supplied from a previous computation.

  ==> Iterations <==

                           Total Energy        Delta E     RMS |[F,P]|

   @DF-RKS iter   0:  -559.92860723408126   -5.59929e+02   2.21619e-05 
   @DF-RKS iter   1:  -559.92834070042397    2.66534e-04   4.02913e-06 DIIS
   @DF-RKS iter   2:  -559.92834073234656   -3.19226e-08   2.23720e-06 DIIS
   @DF-RKS iter   3:  -559.92834074269285   -1.03463e-08   1.76461e-07 DIIS
   @DF-RKS iter   4:  -559.92834074286475   -1.71894e-10   9.43148e-08 DIIS
   @DF-RKS iter   5:  -559.92834074288839   -2.36469e-11   5.60866e-08 DIIS
   @DF-RKS iter   6:  -559.92834074289635   -7.95808e-12   8.41621e-09 DIIS
  Energy and wave function converged.


  ==> Post-Iterations <==

    Orbital Energies [Eh]
    ---------------------

    Doubly Occupied:                                                      

       1A1  -101.638046     2A1   -24.815699     3A1    -9.647775  
       4A1    -7.410877     1B2    -7.392067     1B1    -7.392067  
       5A1    -1.375547     6A1    -0.965581     7A1    -0.646960  
       2B2    -0.608910     2B1    -0.608910     3B1    -0.442086  
       3B2    -0.442086  

    Virtual:                                                              

       8A1    -0.028887     9A1     0.073686     4B2     0.093292  
       4B1     0.093292    10A1     0.097289    11A1     0.176968  
       5B2     0.199239     5B1     0.199239    12A1     0.227936  
       1A2     0.227936     6B1     0.293502     6B2     0.293502  
      13A1     0.311434    14A1     0.322844     7B1     0.423422  
       7B2     0.423422    15A1     0.430893    16A1     0.537123  
       2A2     0.537124     8B1     0.549589     8B2     0.549589  
      17A1     0.577375    18A1     0.631297     3A2     0.631298  
      19A1     0.689109     9B2     0.754846     9B1     0.754846  
      10B1     0.761789    10B2     0.761789    20A1     0.830553  
      11B2     0.869091    11B1     0.869091     4A2     0.897170  
      21A1     0.897173    22A1     0.947162    12B1     1.073301  
      12B2     1.073301    23A1     1.083834    24A1     1.335187  
       5A2     1.405070    25A1     1.405070    13B1     1.478018  
      13B2     1.478018    26A1     1.483642    14B1     1.633102  
      14B2     1.633102    15B2     1.657219    15B1     1.657219  
       6A2     1.661057    27A1     1.661058    16B2     1.696261  
      16B1     1.696261    28A1     1.748010     7A2     1.748011  
      17B1     1.879301    17B2     1.879301    29A1     1.911487  
      30A1     1.939169     8A2     1.939176    31A1     2.015332  
      18B2     2.020735    18B1     2.020735    32A1     2.023937  
       9A2     2.023954    19B2     2.071343    19B1     2.071343  
      33A1     2.297893    20B1     2.336040    20B2     2.336040  
      34A1     2.348815    10A2     2.481457    35A1     2.481478  
      36A1     2.640065    21B2     2.790749    21B1     2.790749  
      37A1     2.869799    22B1     3.345342    22B2     3.345342  
      38A1     3.431222    11A2     3.431234    39A1     3.452184  
      23B1     3.656916    23B2     3.656916    40A1     4.108920  
      24B2     4.115391    24B1     4.115391    12A2     4.211180  
      41A1     4.211182    25B1     4.361817    25B2     4.361817  
      26B2     4.400699    26B1     4.400699    42A1     4.408638  
      13A2     4.408642    43A1     4.419194    14A2     4.419214  
      44A1     4.488858    45A1     4.516328    15A2     4.516398  
      27B1     4.634163    27B2     4.634163    28B2     4.670677  
      28B1     4.670677    46A1     5.015231    47A1     5.118584  
      16A2     5.177644    48A1     5.177652    29B1     5.249116  
      29B2     5.249116    30B1     5.283858    30B2     5.283858  
      49A1     5.332518    50A1     5.464496    17A2     5.464496  
      18A2     5.562770    51A1     5.562809    31B1     5.656458  
      31B2     5.656458    52A1     5.912562    32B1     6.107734  
      32B2     6.107734    33B1     6.515215    33B2     6.515215  
      53A1     6.520374    54A1     7.840419    19A2    10.769823  
      55A1    10.769841    34B1    10.928426    34B2    10.928426  
      56A1    11.154077    35B2    12.554170    35B1    12.554170  
      57A1    13.150899    20A2    13.151440    36B2    13.186225  
      36B1    13.186225    58A1    13.371300    21A2    13.371484  
      59A1    13.559538    37B1    13.559778    37B2    13.559778  
      60A1    13.802575    38B2    15.237226    38B1    15.237226  
      61A1    15.360073    22A2    15.360312    39B2    15.502070  
      39B1    15.502070    62A1    15.676110    23A2    16.102808  
      63A1    16.102945    40B1    16.583297    40B2    16.583297  
      64A1    16.801298    65A1    24.162224    66A1    52.940766  

    Final Occupation by Irrep:
             A1    A2    B1    B2 
    DOCC [     7,    0,    3,    3 ]

  @DF-RKS Final Energy:  -559.92834074289635

   => Energetics <=

    Nuclear Repulsion Energy =             49.5988950246606137
    One-Electron Energy =                -872.6399353492608952
    Two-Electron Energy =                 291.8856820839715738
    DFT Exchange-Correlation Energy =     -28.8828567453907894
    Empirical Dispersion Energy =           0.0000000000000000
    VV10 Nonlocal Energy =                  0.1098742431231747
    Total Energy =                       -559.9283407428963528

Computation Completed


Properties will be evaluated at   0.000000,   0.000000,   0.000000 [a0]

Properties computed using the SCF density matrix

  Nuclear Dipole Moment: [e a0]
     X:     0.0000      Y:     0.0000      Z:     0.4717

  Electronic Dipole Moment: [e a0]
     X:     0.0000      Y:     0.0000      Z:    -0.1250

  Dipole Moment: [e a0]
     X:     0.0000      Y:     0.0000      Z:     0.3468     Total:     0.3468

  Dipole Moment: [D]
     X:     0.0000      Y:     0.0000      Z:     0.8814     Total:     0.8814


*** tstop() called on bp1-compute00155.data.bp.acrc.priv at Tue Apr 20 11:02:01 2021
Module time:
	user time   =      58.12 seconds =       0.97 minutes
	system time =       2.13 seconds =       0.04 minutes
	total time  =          3 seconds =       0.05 minutes
Total time:
	user time   =     363.45 seconds =       6.06 minutes
	system time =      13.83 seconds =       0.23 minutes
	total time  =         19 seconds =       0.32 minutes

  //>>>>>>>>>>>>>>>>>>>>>>>>>>>>>>>>>>>//
  //    Loading displacement 3 of 3    //
  //<<<<<<<<<<<<<<<<<<<<<<<<<<<<<<<<<<<//

*** tstart() called on bp1-compute00155.data.bp.acrc.priv
*** at Tue Apr 20 11:02:01 2021

   => Loading Basis Set <=

    Name: AUG-CC-PV(Q+D)Z
    Role: ORBITAL
    Keyword: BASIS
    atoms 1 entry CL         line  1246 file /work/zw18965/.conda/envs/p4env/share/psi4/basis/aug-cc-pv_qpd_z.gbs 
    atoms 2 entry F          line   499 file /work/zw18965/.conda/envs/p4env/share/psi4/basis/aug-cc-pv_qpd_z.gbs 


         ---------------------------------------------------------
                                   SCF
               by Justin Turney, Rob Parrish, Andy Simmonett
                          and Daniel G. A. Smith
                              RKS Reference
                       24 Threads, 137329 MiB Core
         ---------------------------------------------------------

  ==> Geometry <==

    Molecular point group: c2v
    Full point group: C_inf_v

    Geometry (in Angstrom), charge = 0, multiplicity = 1:

       Center              X                  Y                   Z               Mass       
    ------------   -----------------  -----------------  -----------------  -----------------
         CL           0.000000000000     0.000000000000     0.575186131061    34.968852682000
         F            0.000000000000     0.000000000000    -1.058699455397    18.998403162730

  Running in c2v symmetry.

  Rotational constants: A = ************  B =      0.51296  C =      0.51296 [cm^-1]
  Rotational constants: A = ************  B =  15378.20934  C =  15378.20934 [MHz]
  Nuclear repulsion =   49.553110636101998

  Charge       = 0
  Multiplicity = 1
  Electrons    = 26
  Nalpha       = 13
  Nbeta        = 13

  ==> Algorithm <==

  SCF Algorithm Type is DF.
  DIIS enabled.
  MOM disabled.
  Fractional occupation disabled.
  Guess Type is READ.
  Energy threshold   = 1.00e-08
  Density threshold  = 1.00e-08
  Integral threshold = 0.00e+00

  ==> Primary Basis <==

  Basis Set: AUG-CC-PV(Q+D)Z
    Blend: AUG-CC-PV(Q+D)Z
    Number of shells: 43
    Number of basis function: 169
    Number of Cartesian functions: 220
    Spherical Harmonics?: true
    Max angular momentum: 4

  ==> DFT Potential <==

   => Composite Functional: WB97X-V <= 

    wB97X-V Hyb-GGA Exchange-Correlation Functional

    N. Mardirossian and M. Head-Gordon, Phys. Chem. Chem. Phys. 16, 9904 (2014)

    Deriv               =              1
    GGA                 =           TRUE
    Meta                =          FALSE

    Exchange Hybrid     =           TRUE
    MP2 Hybrid          =          FALSE

   => Exchange-Correlation Functionals <=

    1.0000   wB97X-V range-separated functional

   => Exact (HF) Exchange <=

    0.8330            HF,LR [omega = 0.3000]
    0.1670               HF 

   => VV10 Non-Local Parameters <=

    VV10 B              =     6.0000E+00
    VV10 C              =     1.0000E-02

   => Molecular Quadrature <=

    Radial Scheme          =       TREUTLER
    Pruning Scheme         =           FLAT
    Nuclear Scheme         =       TREUTLER

    BS radius alpha        =              1
    Pruning alpha          =              1
    Radial Points          =             75
    Spherical Points       =            302
    Total Points           =          45099
    Total Blocks           =            423
    Max Points             =            256
    Max Functions          =            169

   => Loading Basis Set <=

    Name: (AUG-CC-PV(Q+D)Z AUX)
    Role: JKFIT
    Keyword: DF_BASIS_SCF
    atoms 1 entry CL         line   904 file /work/zw18965/.conda/envs/p4env/share/psi4/basis/aug-cc-pvqz-jkfit.gbs 
    atoms 2 entry F          line   388 file /work/zw18965/.conda/envs/p4env/share/psi4/basis/aug-cc-pvqz-jkfit.gbs 

   => Loading Basis Set <=

    Name: AUG-CC-PV(Q+D)Z
    Role: ORBITAL
    Keyword: BASIS
    atoms 1 entry CL         line  1246 file /work/zw18965/.conda/envs/p4env/share/psi4/basis/aug-cc-pv_qpd_z.gbs 
    atoms 2 entry F          line   499 file /work/zw18965/.conda/envs/p4env/share/psi4/basis/aug-cc-pv_qpd_z.gbs 

  Reading orbitals from file 180, no projection.

  ==> Pre-Iterations <==

   -------------------------------------------------------
    Irrep   Nso     Nmo     Nalpha   Nbeta   Ndocc  Nsocc
   -------------------------------------------------------
     A1        66      66       0       0       0       0
     A2        23      23       0       0       0       0
     B1        40      40       0       0       0       0
     B2        40      40       0       0       0       0
   -------------------------------------------------------
    Total     169     169      13      13      13       0
   -------------------------------------------------------

  ==> Integral Setup <==

  ==> DiskDFJK: Density-Fitted J/K Matrices <==

    J tasked:                  Yes
    K tasked:                  Yes
    wK tasked:                 Yes
    Omega:               3.000E-01
    OpenMP threads:             24
    Integrals threads:          24
    Memory [MiB]:           102800
    Algorithm:                Core
    Integral Cache:           NONE
    Schwarz Cutoff:          1E-12
    Fitting Condition:       1E-10

   => Auxiliary Basis Set <=

  Basis Set: (AUG-CC-PV(Q+D)Z AUX)
    Blend: AUG-CC-PVQZ-JKFIT
    Number of shells: 80
    Number of basis function: 326
    Number of Cartesian functions: 445
    Spherical Harmonics?: true
    Max angular momentum: 5

  Cached 100.0% of DFT collocation blocks in 0.191 [GiB].

  Minimum eigenvalue in the overlap matrix is 2.8146924771E-04.
  Using Symmetric Orthogonalization.

  SCF Guess: Orbitals guess was supplied from a previous computation.

  ==> Iterations <==

                           Total Energy        Delta E     RMS |[F,P]|

   @DF-RKS iter   0:  -559.92805199503755   -5.59928e+02   2.21206e-05 
   @DF-RKS iter   1:  -559.92831746678553   -2.65472e-04   4.02697e-06 DIIS
   @DF-RKS iter   2:  -559.92831749866525   -3.18797e-08   2.23688e-06 DIIS
   @DF-RKS iter   3:  -559.92831750901496   -1.03497e-08   1.76429e-07 DIIS
   @DF-RKS iter   4:  -559.92831750918776   -1.72804e-10   9.48594e-08 DIIS
   @DF-RKS iter   5:  -559.92831750921050   -2.27374e-11   5.62889e-08 DIIS
   @DF-RKS iter   6:  -559.92831750921869   -8.18545e-12   8.38017e-09 DIIS
  Energy and wave function converged.


  ==> Post-Iterations <==

    Orbital Energies [Eh]
    ---------------------

    Doubly Occupied:                                                      

       1A1  -101.638173     2A1   -24.815637     3A1    -9.647884  
       4A1    -7.410989     1B1    -7.392176     1B2    -7.392176  
       5A1    -1.374993     6A1    -0.965697     7A1    -0.646686  
       2B2    -0.608571     2B1    -0.608571     3B2    -0.442272  
       3B1    -0.442272  

    Virtual:                                                              

       8A1    -0.029434     9A1     0.073698     4B2     0.093295  
       4B1     0.093295    10A1     0.097212    11A1     0.176938  
       5B2     0.199259     5B1     0.199259    12A1     0.227926  
       1A2     0.227926     6B2     0.293407     6B1     0.293407  
      13A1     0.311481    14A1     0.322719     7B2     0.423471  
       7B1     0.423471    15A1     0.430918    16A1     0.537120  
       2A2     0.537122     8B2     0.549453     8B1     0.549453  
      17A1     0.577280    18A1     0.631228     3A2     0.631229  
      19A1     0.688768     9B1     0.754931     9B2     0.754931  
      10B1     0.761772    10B2     0.761772    20A1     0.830310  
      11B2     0.868857    11B1     0.868857     4A2     0.897017  
      21A1     0.897021    22A1     0.947398    12B2     1.073546  
      12B1     1.073546    23A1     1.083771    24A1     1.335057  
       5A2     1.405006    25A1     1.405006    13B2     1.478072  
      13B1     1.478072    26A1     1.483679    14B2     1.633111  
      14B1     1.633111    15B2     1.656640    15B1     1.656640  
       6A2     1.661126    27A1     1.661128    16B1     1.695953  
      16B2     1.695953    28A1     1.747985     7A2     1.747986  
      17B1     1.879260    17B2     1.879260    29A1     1.911052  
      30A1     1.938882     8A2     1.938889    31A1     2.015010  
      18B1     2.020317    18B2     2.020317    32A1     2.023692  
       9A2     2.023710    19B2     2.071052    19B1     2.071052  
      33A1     2.297789    20B1     2.335480    20B2     2.335480  
      34A1     2.348363    10A2     2.480516    35A1     2.480538  
      36A1     2.638162    21B2     2.791775    21B1     2.791775  
      37A1     2.869679    22B2     3.344554    22B1     3.344554  
      38A1     3.431173    11A2     3.431186    39A1     3.452602  
      23B2     3.655057    23B1     3.655057    40A1     4.109050  
      24B2     4.115453    24B1     4.115453    12A2     4.211891  
      41A1     4.211893    25B1     4.361856    25B2     4.361856  
      26B1     4.401096    26B2     4.401096    42A1     4.408202  
      13A2     4.408206    43A1     4.419133    14A2     4.419153  
      44A1     4.487443    45A1     4.516489    15A2     4.516560  
      27B1     4.633330    27B2     4.633330    28B2     4.669678  
      28B1     4.669678    46A1     5.013818    47A1     5.115956  
      16A2     5.175755    48A1     5.175763    29B2     5.249051  
      29B1     5.249051    30B1     5.283792    30B2     5.283792  
      49A1     5.330781    50A1     5.463936    17A2     5.463937  
      18A2     5.561680    51A1     5.561719    31B2     5.656001  
      31B1     5.656001    52A1     5.915286    32B2     6.106074  
      32B1     6.106074    33B1     6.511721    33B2     6.511721  
      53A1     6.515416    54A1     7.838526    19A2    10.769674  
      55A1    10.769692    34B2    10.928104    34B1    10.928104  
      56A1    11.152234    35B1    12.552554    35B2    12.552554  
      57A1    13.151075    20A2    13.151624    36B1    13.186152  
      36B2    13.186152    58A1    13.370612    21A2    13.370796  
      37B1    13.559679    37B2    13.559679    59A1    13.559839  
      60A1    13.798374    38B2    15.237283    38B1    15.237283  
      61A1    15.359853    22A2    15.360092    39B2    15.501474  
      39B1    15.501474    62A1    15.673995    23A2    16.102589  
      63A1    16.102727    40B1    16.581947    40B2    16.581947  
      64A1    16.801299    65A1    24.153798    66A1    52.937065  

    Final Occupation by Irrep:
             A1    A2    B1    B2 
    DOCC [     7,    0,    3,    3 ]

  @DF-RKS Final Energy:  -559.92831750921869

   => Energetics <=

    Nuclear Repulsion Energy =             49.5531106361019980
    One-Electron Energy =                -872.5497074315084092
    Two-Electron Energy =                 291.8406918100949383
    DFT Exchange-Correlation Energy =     -28.8822893153181042
    Empirical Dispersion Energy =           0.0000000000000000
    VV10 Nonlocal Energy =                  0.1098767914109282
    Total Energy =                       -559.9283175092186866

Computation Completed


Properties will be evaluated at   0.000000,   0.000000,   0.000000 [a0]

Properties computed using the SCF density matrix

  Nuclear Dipole Moment: [e a0]
     X:     0.0000      Y:     0.0000      Z:     0.4722

  Electronic Dipole Moment: [e a0]
     X:     0.0000      Y:     0.0000      Z:    -0.1236

  Dipole Moment: [e a0]
     X:     0.0000      Y:     0.0000      Z:     0.3486     Total:     0.3486

  Dipole Moment: [D]
     X:     0.0000      Y:     0.0000      Z:     0.8861     Total:     0.8861


*** tstop() called on bp1-compute00155.data.bp.acrc.priv at Tue Apr 20 11:02:03 2021
Module time:
	user time   =      52.58 seconds =       0.88 minutes
	system time =       1.63 seconds =       0.03 minutes
	total time  =          2 seconds =       0.03 minutes
Total time:
	user time   =     416.17 seconds =       6.94 minutes
	system time =      15.47 seconds =       0.26 minutes
	total time  =         21 seconds =       0.35 minutes

         ----------------------------------------------------------
                                   FINDIF
                     R. A. King and Jonathon Misiewicz
         ---------------------------------------------------------

  Computing gradient from energies.
    Using 3-point formula.
    Energy without displacement: -559.9283294362
    Check energies below for precision!
[...]
     X:     0.0000      Y:     0.0000      Z:     0.4679

  Electronic Dipole Moment: [e a0]
     X:     0.0000      Y:     0.0000      Z:    -0.1378

  Dipole Moment: [e a0]
     X:     0.0000      Y:     0.0000      Z:     0.3301     Total:     0.3301

  Dipole Moment: [D]
     X:     0.0000      Y:     0.0000      Z:     0.8389     Total:     0.8389


*** tstop() called on bp1-compute00155.data.bp.acrc.priv at Tue Apr 20 11:02:38 2021
Module time:
	user time   =      84.30 seconds =       1.40 minutes
	system time =       2.51 seconds =       0.04 minutes
	total time  =          4 seconds =       0.07 minutes
Total time:
	user time   =    1182.40 seconds =      19.71 minutes
	system time =      39.40 seconds =       0.66 minutes
	total time  =         56 seconds =       0.93 minutes

  //>>>>>>>>>>>>>>>>>>>>>>>>>>>>>>>>>>>//
  //    Loading displacement 3 of 3    //
  //<<<<<<<<<<<<<<<<<<<<<<<<<<<<<<<<<<<//

*** tstart() called on bp1-compute00155.data.bp.acrc.priv
*** at Tue Apr 20 11:02:38 2021

   => Loading Basis Set <=

    Name: AUG-CC-PV(Q+D)Z
    Role: ORBITAL
    Keyword: BASIS
    atoms 1 entry CL         line  1246 file /work/zw18965/.conda/envs/p4env/share/psi4/basis/aug-cc-pv_qpd_z.gbs 
    atoms 2 entry F          line   499 file /work/zw18965/.conda/envs/p4env/share/psi4/basis/aug-cc-pv_qpd_z.gbs 


         ---------------------------------------------------------
                                   SCF
               by Justin Turney, Rob Parrish, Andy Simmonett
                          and Daniel G. A. Smith
                              RKS Reference
                       24 Threads, 137329 MiB Core
         ---------------------------------------------------------

  ==> Geometry <==

    Molecular point group: c2v
    Full point group: C_inf_v

    Geometry (in Angstrom), charge = 0, multiplicity = 1:

       Center              X                  Y                   Z               Mass       
    ------------   -----------------  -----------------  -----------------  -----------------
         CL           0.000000000000     0.000000000000     0.570485150226    34.968852682000
         F            0.000000000000     0.000000000000    -1.050046733120    18.998403162730

  Running in c2v symmetry.

  Rotational constants: A = ************  B =      0.52145  C =      0.52145 [cm^-1]
  Rotational constants: A = ************  B =  15632.69633  C =  15632.69633 [MHz]
  Nuclear repulsion =   49.961444180478942

  Charge       = 0
  Multiplicity = 1
  Electrons    = 26
  Nalpha       = 13
  Nbeta        = 13

  ==> Algorithm <==

  SCF Algorithm Type is DF.
  DIIS enabled.
  MOM disabled.
  Fractional occupation disabled.
  Guess Type is SAD.
  Energy threshold   = 1.00e-10
  Density threshold  = 1.00e-10
  Integral threshold = 0.00e+00

  ==> Primary Basis <==

  Basis Set: AUG-CC-PV(Q+D)Z
    Blend: AUG-CC-PV(Q+D)Z
    Number of shells: 43
    Number of basis function: 169
    Number of Cartesian functions: 220
    Spherical Harmonics?: true
    Max angular momentum: 4

  ==> DFT Potential <==

   => Composite Functional: WB97X-V <= 

    wB97X-V Hyb-GGA Exchange-Correlation Functional

    N. Mardirossian and M. Head-Gordon, Phys. Chem. Chem. Phys. 16, 9904 (2014)

    Deriv               =              1
    GGA                 =           TRUE
    Meta                =          FALSE

    Exchange Hybrid     =           TRUE
    MP2 Hybrid          =          FALSE

   => Exchange-Correlation Functionals <=

    1.0000   wB97X-V range-separated functional

   => Exact (HF) Exchange <=

    0.8330            HF,LR [omega = 0.3000]
    0.1670               HF 

   => VV10 Non-Local Parameters <=

    VV10 B              =     6.0000E+00
    VV10 C              =     1.0000E-02

   => Molecular Quadrature <=

    Radial Scheme          =       TREUTLER
    Pruning Scheme         =           FLAT
    Nuclear Scheme         =       TREUTLER

    BS radius alpha        =              1
    Pruning alpha          =              1
    Radial Points          =             75
    Spherical Points       =            302
    Total Points           =          45099
    Total Blocks           =            422
    Max Points             =            256
    Max Functions          =            169

   => Loading Basis Set <=

    Name: (AUG-CC-PV(Q+D)Z AUX)
    Role: JKFIT
    Keyword: DF_BASIS_SCF
    atoms 1 entry CL         line   904 file /work/zw18965/.conda/envs/p4env/share/psi4/basis/aug-cc-pvqz-jkfit.gbs 
    atoms 2 entry F          line   388 file /work/zw18965/.conda/envs/p4env/share/psi4/basis/aug-cc-pvqz-jkfit.gbs 

  ==> Pre-Iterations <==

   -------------------------------------------------------
    Irrep   Nso     Nmo     Nalpha   Nbeta   Ndocc  Nsocc
   -------------------------------------------------------
     A1        66      66       0       0       0       0
     A2        23      23       0       0       0       0
     B1        40      40       0       0       0       0
     B2        40      40       0       0       0       0
   -------------------------------------------------------
    Total     169     169      13      13      13       0
   -------------------------------------------------------

  ==> Integral Setup <==

  ==> DiskDFJK: Density-Fitted J/K Matrices <==

    J tasked:                  Yes
    K tasked:                  Yes
    wK tasked:                 Yes
    Omega:               3.000E-01
    OpenMP threads:             24
    Integrals threads:          24
    Memory [MiB]:           102800
    Algorithm:                Core
    Integral Cache:           NONE
    Schwarz Cutoff:          1E-12
    Fitting Condition:       1E-10

   => Auxiliary Basis Set <=

  Basis Set: (AUG-CC-PV(Q+D)Z AUX)
    Blend: AUG-CC-PVQZ-JKFIT
    Number of shells: 80
    Number of basis function: 326
    Number of Cartesian functions: 445
    Spherical Harmonics?: true
    Max angular momentum: 5

  Cached 100.0% of DFT collocation blocks in 0.191 [GiB].

  Minimum eigenvalue in the overlap matrix is 2.7402513003E-04.
  Using Symmetric Orthogonalization.

  SCF Guess: Superposition of Atomic Densities via on-the-fly atomic UHF.

  ==> Iterations <==

                           Total Energy        Delta E     RMS |[F,P]|

   @DF-RKS iter SAD:  -559.69641848558012   -5.59696e+02   0.00000e+00 
   @DF-RKS iter   1:  -559.90457405754603   -2.08156e-01   3.12969e-03 DIIS
   @DF-RKS iter   2:  -559.91916202802042   -1.45880e-02   2.17282e-03 DIIS
   @DF-RKS iter   3:  -559.92734013910103   -8.17811e-03   6.85638e-04 DIIS
   @DF-RKS iter   4:  -559.92837042874339   -1.03029e-03   1.13244e-04 DIIS
   @DF-RKS iter   5:  -559.92842875018323   -5.83214e-05   3.51180e-05 DIIS
   @DF-RKS iter   6:  -559.92843435839109   -5.60821e-06   6.73170e-06 DIIS
   @DF-RKS iter   7:  -559.92843480446220   -4.46071e-07   1.55008e-06 DIIS
   @DF-RKS iter   8:  -559.92843482234684   -1.78846e-08   4.29410e-07 DIIS
   @DF-RKS iter   9:  -559.92843482322530   -8.78458e-10   4.66975e-08 DIIS
   @DF-RKS iter  10:  -559.92843482324247   -1.71667e-11   6.21799e-09 DIIS
   @DF-RKS iter  11:  -559.92843482324201    4.54747e-13   1.31206e-09 DIIS
   @DF-RKS iter  12:  -559.92843482324224   -2.27374e-13   8.87533e-11 DIIS
  Energy and wave function converged.


  ==> Post-Iterations <==

    Orbital Energies [Eh]
    ---------------------

    Doubly Occupied:                                                      

       1A1  -101.637045     2A1   -24.816192     3A1    -9.646919  
       4A1    -7.409991     1B2    -7.391205     1B1    -7.391205  
       5A1    -1.379991     6A1    -0.964652     7A1    -0.649119  
       2B2    -0.611620     2B1    -0.611620     3B2    -0.440608  
       3B1    -0.440608  

    Virtual:                                                              

       8A1    -0.024599     9A1     0.073598     4B2     0.093267  
       4B1     0.093267    10A1     0.097912    11A1     0.177205  
       5B2     0.199078     5B1     0.199078    12A1     0.228008  
       1A2     0.228008     6B2     0.294257     6B1     0.294257  
      13A1     0.311065    14A1     0.323835     7B2     0.423021  
       7B1     0.423021    15A1     0.430710    16A1     0.537135  
       2A2     0.537137     8B2     0.550680     8B1     0.550680  
      17A1     0.578108    18A1     0.631843     3A2     0.631845  
      19A1     0.691868     9B2     0.754182     9B1     0.754182  
      10B1     0.761917    10B2     0.761917    20A1     0.832449  
      11B1     0.870909    11B2     0.870909     4A2     0.898366  
      21A1     0.898369    22A1     0.945291    12B2     1.071336  
      12B1     1.071336    23A1     1.084353    24A1     1.336247  
       5A2     1.405577    25A1     1.405578    13B2     1.477596  
      13B1     1.477596    26A1     1.483334    14B2     1.633049  
      14B1     1.633049     6A2     1.660477    27A1     1.660478  
      15B1     1.661776    15B2     1.661776    16B2     1.698771  
      16B1     1.698771    28A1     1.748205     7A2     1.748205  
      17B2     1.879621    17B1     1.879621    29A1     1.914947  
      30A1     1.941424     8A2     1.941432    31A1     2.017821  
      18B2     2.024035    18B1     2.024035    32A1     2.025871  
       9A2     2.025890    19B2     2.073645    19B1     2.073645  
      33A1     2.297268    20B2     2.340457    20B1     2.340457  
      34A1     2.353644    10A2     2.488868    35A1     2.488890  
      36A1     2.654665    21B2     2.782523    21B1     2.782523  
      37A1     2.871292    22B1     3.351475    22B2     3.351475  
      38A1     3.431638    11A2     3.431650    39A1     3.449343  
      23B2     3.671666    23B1     3.671666    40A1     4.107986  
      24B2     4.115164    24B1     4.115164    12A2     4.205681  
      41A1     4.205683    25B2     4.361391    25B1     4.361391  
      26B2     4.397556    26B1     4.397556    42A1     4.412148  
      13A2     4.412153    43A1     4.419695    14A2     4.419713  
      44A1     4.499673    45A1     4.515026    15A2     4.515092  
      27B1     4.640922    27B2     4.640922    28B1     4.678551  
      28B2     4.678551    46A1     5.025074    47A1     5.140464  
      16A2     5.192199    48A1     5.192206    29B2     5.249637  
      29B1     5.249637    30B2     5.284413    30B1     5.284413  
      49A1     5.346397    50A1     5.469239    17A2     5.469242  
      18A2     5.571494    51A1     5.571531    31B2     5.660033  
      31B1     5.660033    52A1     5.891574    32B2     6.120427  
      32B1     6.120427    33B2     6.543055    33B1     6.543055  
      53A1     6.559332    54A1     7.854617    19A2    10.771003  
      55A1    10.771020    34B1    10.930840    34B2    10.930840  
      56A1    11.169062    35B2    12.567273    35B1    12.567273  
      57A1    13.149486    20A2    13.149960    36B2    13.186806  
      36B1    13.186806    58A1    13.376696    21A2    13.376873  
      59A1    13.556935    37B1    13.560343    37B2    13.560343  
      60A1    13.835568    38B2    15.236760    38B1    15.236760  
      61A1    15.361802    22A2    15.362045    39B2    15.506997  
      39B1    15.506997    62A1    15.693269    23A2    16.104601  
      63A1    16.104725    40B2    16.593657    40B1    16.593657  
      64A1    16.800779    65A1    24.230850    66A1    52.970881  

    Final Occupation by Irrep:
             A1    A2    B1    B2 
    DOCC [     7,    0,    3,    3 ]

  @DF-RKS Final Energy:  -559.92843482324224

   => Energetics <=

    Nuclear Repulsion Energy =             49.9614441804789422
    One-Electron Energy =                -873.3540697625712710
    Two-Electron Energy =                 292.2417166144705902
    DFT Exchange-Correlation Energy =     -28.8873801197968803
    Empirical Dispersion Energy =           0.0000000000000000
    VV10 Nonlocal Energy =                  0.1098542641764096
    Total Energy =                       -559.9284348232421280

Computation Completed


Properties will be evaluated at   0.000000,   0.000000,   0.000000 [a0]

Properties computed using the SCF density matrix

  Nuclear Dipole Moment: [e a0]
     X:     0.0000      Y:     0.0000      Z:     0.4683

  Electronic Dipole Moment: [e a0]
     X:     0.0000      Y:     0.0000      Z:    -0.1364

  Dipole Moment: [e a0]
     X:     0.0000      Y:     0.0000      Z:     0.3320     Total:     0.3320

  Dipole Moment: [D]
     X:     0.0000      Y:     0.0000      Z:     0.8438     Total:     0.8438


*** tstop() called on bp1-compute00155.data.bp.acrc.priv at Tue Apr 20 11:02:42 2021
Module time:
	user time   =      84.03 seconds =       1.40 minutes
	system time =       2.38 seconds =       0.04 minutes
	total time  =          4 seconds =       0.07 minutes
Total time:
	user time   =    1266.57 seconds =      21.11 minutes
	system time =      41.78 seconds =       0.70 minutes
	total time  =         60 seconds =       1.00 minutes

         ----------------------------------------------------------
                                   FINDIF
                     R. A. King and Jonathon Misiewicz
         ---------------------------------------------------------

  Computing second-derivative from energies using projected, 
  symmetry-adapted, cartesian coordinates.

  3 energies passed in, including the reference geometry.
    Using 3-point formula.
    Energy without displacement: -559.9284353715
    Check energies below for precision!
    0: -1 :      -559.9284352547
    0: 1  :      -559.9284348232

-------------------------------------------------------------


  ==> Harmonic Vibrational Analysis <==

  non-mass-weighted Hessian:       Symmetric? True   Hermitian? True   Lin Dep Dim?  5 (0)
  projection of translations (True) and rotations (True) removed 5 degrees of freedom (5)
  total projector:                 Symmetric? True   Hermitian? True   Lin Dep Dim?  5 (5)
  mass-weighted Hessian:           Symmetric? True   Hermitian? True   Lin Dep Dim?  5 (0)
  pre-proj  low-frequency mode:    0.0000i [cm^-1]
  pre-proj  low-frequency mode:    0.0000  [cm^-1]
  pre-proj  low-frequency mode:    0.0000  [cm^-1]
  pre-proj  low-frequency mode:    0.0000  [cm^-1]
  pre-proj  low-frequency mode:    0.0000  [cm^-1]
  pre-proj  all modes:['0.0000i' '0.0000' '0.0000' '0.0000' '0.0000' '838.4340']
  projected mass-weighted Hessian: Symmetric? True   Hermitian? True   Lin Dep Dim?  5 (5)
  post-proj low-frequency mode:    0.0000i [cm^-1] (TR)
  post-proj low-frequency mode:    0.0000  [cm^-1] (TR)
  post-proj low-frequency mode:    0.0000  [cm^-1] (TR)
  post-proj low-frequency mode:    0.0000  [cm^-1] (TR)
  post-proj low-frequency mode:    0.0000  [cm^-1] (TR)
  post-proj  all modes:['0.0000i' '0.0000' '0.0000' '0.0000' '0.0000' '838.4340']

  Vibration                       6           
  Freq [cm^-1]                 838.4340       
  Irrep                           A1          
  Reduced mass [u]             22.6381        
  Force const [mDyne/A]         9.3762        
  Turning point v=0 [a0]        0.0796        
  RMS dev v=0 [a0 u^1/2]        0.2680        
  Char temp [K]               1206.3198       
  ----------------------------------------------------------------------------------
      1   CL               0.00  0.00 -0.48   
      2   F                0.00  0.00  0.88   

  ==> Thermochemistry Components <==

  Entropy, S
    Electronic S            0.000 [cal/(mol K)]        0.000 [J/(mol K)]       0.00000000 [mEh/K] (multiplicity = 1)
    Translational S        37.879 [cal/(mol K)]      158.488 [J/(mol K)]       0.06036475 [mEh/K] (mol. weight = 53.9673 [u], P = 101325.00 [Pa])
    Rotational S           13.879 [cal/(mol K)]       58.068 [J/(mol K)]       0.02211705 [mEh/K] (symmetry no. = 1)
    Vibrational S           0.178 [cal/(mol K)]        0.746 [J/(mol K)]       0.00028400 [mEh/K]
  Total S                  51.936 [cal/(mol K)]      217.302 [J/(mol K)]       0.08276579 [mEh/K]
  Correction S              0.000 [cal/(mol K)]        0.000 [J/(mol K)]       0.00000000 [mEh/K]

  Constant volume heat capacity, Cv
    Electronic Cv           0.000 [cal/(mol K)]        0.000 [J/(mol K)]       0.00000000 [mEh/K]
    Translational Cv        2.981 [cal/(mol K)]       12.472 [J/(mol K)]       0.00475022 [mEh/K]
    Rotational Cv           1.987 [cal/(mol K)]        8.314 [J/(mol K)]       0.00316681 [mEh/K]
    Vibrational Cv          0.589 [cal/(mol K)]        2.466 [J/(mol K)]       0.00093938 [mEh/K]
  Total Cv                  5.557 [cal/(mol K)]       23.252 [J/(mol K)]       0.00885641 [mEh/K]
  Correction Cv             0.000 [cal/(mol K)]        0.000 [J/(mol K)]       0.00000000 [mEh/K]

  Constant pressure heat capacity, Cp
    Electronic Cp           0.000 [cal/(mol K)]        0.000 [J/(mol K)]       0.00000000 [mEh/K]
    Translational Cp        4.968 [cal/(mol K)]       20.786 [J/(mol K)]       0.00791703 [mEh/K]
    Rotational Cp           1.987 [cal/(mol K)]        8.314 [J/(mol K)]       0.00316681 [mEh/K]
    Vibrational Cp          0.589 [cal/(mol K)]        2.466 [J/(mol K)]       0.00093938 [mEh/K]
  Total Cp                  7.545 [cal/(mol K)]       31.567 [J/(mol K)]       0.01202322 [mEh/K]
  Correction Cp             0.000 [cal/(mol K)]        0.000 [J/(mol K)]       0.00000000 [mEh/K]

  ==> Thermochemistry Energy Analysis <==

  Raw electronic energy, E0
  Total E0, Electronic energy at well bottom at 0 [K]                 -559.92843537 [Eh]

  Zero-point energy, ZPE_vib = Sum_i nu_i / 2
    Electronic ZPE          0.000 [kcal/mol]        0.000 [kJ/mol]       0.00000000 [Eh]
    Translational ZPE       0.000 [kcal/mol]        0.000 [kJ/mol]       0.00000000 [Eh]
    Rotational ZPE          0.000 [kcal/mol]        0.000 [kJ/mol]       0.00000000 [Eh]
    Vibrational ZPE         1.199 [kcal/mol]        5.015 [kJ/mol]       0.00191009 [Eh]         419.217 [cm^-1]
  Correction ZPE            1.199 [kcal/mol]        5.015 [kJ/mol]       0.00191009 [Eh]         419.217 [cm^-1]
  Total ZPE, Electronic energy at 0 [K]                               -559.92652528 [Eh]

  Thermal Energy, E (includes ZPE)
    Electronic E            0.000 [kcal/mol]        0.000 [kJ/mol]       0.00000000 [Eh]
    Translational E         0.889 [kcal/mol]        3.718 [kJ/mol]       0.00141628 [Eh]
    Rotational E            0.592 [kcal/mol]        2.479 [kJ/mol]       0.00094418 [Eh]
    Vibrational E           1.241 [kcal/mol]        5.194 [kJ/mol]       0.00197811 [Eh]
  Correction E              2.722 [kcal/mol]       11.391 [kJ/mol]       0.00433857 [Eh]
  Total E, Electronic energy at  298.15 [K]                           -559.92409681 [Eh]

  Enthalpy, H_trans = E_trans + k_B * T
    Electronic H            0.000 [kcal/mol]        0.000 [kJ/mol]       0.00000000 [Eh]
    Translational H         1.481 [kcal/mol]        6.197 [kJ/mol]       0.00236046 [Eh]
    Rotational H            0.592 [kcal/mol]        2.479 [kJ/mol]       0.00094418 [Eh]
    Vibrational H           1.241 [kcal/mol]        5.194 [kJ/mol]       0.00197811 [Eh]
  Correction H              3.315 [kcal/mol]       13.870 [kJ/mol]       0.00528275 [Eh]
  Total H, Enthalpy at  298.15 [K]                                    -559.92315262 [Eh]

  Gibbs free energy, G = H - T * S
    Electronic G            0.000 [kcal/mol]        0.000 [kJ/mol]       0.00000000 [Eh]
    Translational G        -9.813 [kcal/mol]      -41.056 [kJ/mol]      -0.01563729 [Eh]
    Rotational G           -3.545 [kcal/mol]      -14.834 [kJ/mol]      -0.00565001 [Eh]
    Vibrational G           1.188 [kcal/mol]        4.971 [kJ/mol]       0.00189343 [Eh]
  Correction G            -12.170 [kcal/mol]      -50.919 [kJ/mol]      -0.01939387 [Eh]
  Total G, Free enthalpy at  298.15 [K]                               -559.94782924 [Eh]

    Psi4 stopped on: Tuesday, 20 April 2021 11:02AM
    Psi4 wall time for execution: 0:01:03.20

*** Psi4 exiting successfully. Buy a developer a beer!
