
    -----------------------------------------------------------------------
          Psi4: An Open-Source Ab Initio Electronic Structure Package
                               Psi4 1.3.2 release

                         Git: Rev {HEAD} ecbda83 


    R. M. Parrish, L. A. Burns, D. G. A. Smith, A. C. Simmonett,
    A. E. DePrince III, E. G. Hohenstein, U. Bozkaya, A. Yu. Sokolov,
    R. Di Remigio, R. M. Richard, J. F. Gonthier, A. M. James,
    H. R. McAlexander, A. Kumar, M. Saitow, X. Wang, B. P. Pritchard,
    P. Verma, H. F. Schaefer III, K. Patkowski, R. A. King, E. F. Valeev,
    F. A. Evangelista, J. M. Turney, T. D. Crawford, and C. D. Sherrill,
    J. Chem. Theory Comput. 13(7) pp 3185--3197 (2017).
    (doi: 10.1021/acs.jctc.7b00174)


                         Additional Contributions by
    P. Kraus, H. Kruse, M. H. Lechner, M. C. Schieber, R. A. Shaw,
    A. Alenaizan, R. Galvelis, Z. L. Glick, S. Lehtola, and J. P. Misiewicz

    -----------------------------------------------------------------------


    Psi4 started on: Tuesday, 27 April 2021 04:34PM

    Process ID: 127527
    Host:       bp1-compute00067.data.bp.acrc.priv
    PSIDATADIR: /work/zw18965/.conda/envs/p4env/share/psi4
    Memory:     500.0 MiB
    Threads:    24
    
  ==> Input File <==

--------------------------------------------------------------------------
memory 144 GB

molecule {
0 1
C 0.0000000000 0.0000000000 0.0000000000
O 0.0000000000 0.0000000000 1.1626000000
O 0.0000000000 0.0000000000 -1.1626000000
}

set dynamic_level 1
set basis aug-cc-pV(Q+d)Z
 
optimize("wB97X-V")
frequencies("wB97X-V")
--------------------------------------------------------------------------

  Memory set to 134.110 GiB by Python driver.
gradient() will perform gradient computation by finite difference of analytic energies.

         ----------------------------------------------------------
                                   FINDIF
                     R. A. King and Jonathon Misiewicz
         ---------------------------------------------------------

  Using finite-differences of energies to determine gradients.
    Generating geometries for use with 3-point formula.
    Displacement size will be 5.00e-03.
    Number of atoms is 3.
    Number of symmetric SALCs is 1.
    Translations projected? 1. Rotations projected? 1.
    Number of geometries (including reference) is 3.

  //>>>>>>>>>>>>>>>>>>>>>>>>>>>>>>>>>>>//
  //    Loading displacement 1 of 3    //
  //<<<<<<<<<<<<<<<<<<<<<<<<<<<<<<<<<<<//

*** tstart() called on bp1-compute00067.data.bp.acrc.priv
*** at Tue Apr 27 16:34:04 2021

   => Loading Basis Set <=

    Name: AUG-CC-PV(Q+D)Z
    Role: ORBITAL
    Keyword: BASIS
    atoms 1   entry C          line   319 file /work/zw18965/.conda/envs/p4env/share/psi4/basis/aug-cc-pv_qpd_z.gbs 
    atoms 2-3 entry O          line   439 file /work/zw18965/.conda/envs/p4env/share/psi4/basis/aug-cc-pv_qpd_z.gbs 


         ---------------------------------------------------------
                                   SCF
               by Justin Turney, Rob Parrish, Andy Simmonett
                          and Daniel G. A. Smith
                              RKS Reference
                       24 Threads, 137329 MiB Core
         ---------------------------------------------------------

  ==> Geometry <==

    Molecular point group: d2h
    Full point group: D_inf_h

    Geometry (in Angstrom), charge = 0, multiplicity = 1:

       Center              X                  Y                   Z               Mass       
    ------------   -----------------  -----------------  -----------------  -----------------
         C            0.000000000000     0.000000000000     0.000000000000    12.000000000000
         O            0.000000000000     0.000000000000     1.162600000000    15.994914619570
         O            0.000000000000     0.000000000000    -1.162600000000    15.994914619570

  Running in d2h symmetry.

  Rotational constants: A = ************  B =      0.38987  C =      0.38987 [cm^-1]
  Rotational constants: A = ************  B =  11688.11942  C =  11688.11942 [MHz]
  Nuclear repulsion =   58.261382217237241

  Charge       = 0
  Multiplicity = 1
  Electrons    = 22
  Nalpha       = 11
  Nbeta        = 11

  ==> Algorithm <==

  SCF Algorithm Type is DF.
  DIIS enabled.
  MOM disabled.
  Fractional occupation disabled.
  Guess Type is SAD.
  Energy threshold   = 1.00e-08
  Density threshold  = 1.00e-08
  Integral threshold = 0.00e+00

  ==> Primary Basis <==

  Basis Set: AUG-CC-PV(Q+D)Z
    Blend: AUG-CC-PV(Q+D)Z
    Number of shells: 60
    Number of basis function: 240
    Number of Cartesian functions: 315
    Spherical Harmonics?: true
    Max angular momentum: 4

  ==> DFT Potential <==

   => Composite Functional: WB97X-V <= 

    wB97X-V Hyb-GGA Exchange-Correlation Functional

    N. Mardirossian and M. Head-Gordon, Phys. Chem. Chem. Phys. 16, 9904 (2014)

    Deriv               =              1
    GGA                 =           TRUE
    Meta                =          FALSE

    Exchange Hybrid     =           TRUE
    MP2 Hybrid          =          FALSE

   => Exchange-Correlation Functionals <=

    1.0000   wB97X-V range-separated functional

   => Exact (HF) Exchange <=

    0.8330            HF,LR [omega = 0.3000]
    0.1670               HF 

   => VV10 Non-Local Parameters <=

    VV10 B              =     6.0000E+00
    VV10 C              =     1.0000E-02

   => Molecular Quadrature <=

    Radial Scheme          =       TREUTLER
    Pruning Scheme         =           FLAT
    Nuclear Scheme         =       TREUTLER

    BS radius alpha        =              1
    Pruning alpha          =              1
    Radial Points          =             75
    Spherical Points       =            302
    Total Points           =          67950
    Total Blocks           =            594
    Max Points             =            256
    Max Functions          =            240

   => Loading Basis Set <=

    Name: (AUG-CC-PV(Q+D)Z AUX)
    Role: JKFIT
    Keyword: DF_BASIS_SCF
    atoms 1   entry C          line   178 file /work/zw18965/.conda/envs/p4env/share/psi4/basis/aug-cc-pvqz-jkfit.gbs 
    atoms 2-3 entry O          line   318 file /work/zw18965/.conda/envs/p4env/share/psi4/basis/aug-cc-pvqz-jkfit.gbs 

  ==> Pre-Iterations <==

   -------------------------------------------------------
    Irrep   Nso     Nmo     Nalpha   Nbeta   Ndocc  Nsocc
   -------------------------------------------------------
     Ag        51      51       0       0       0       0
     B1g       19      19       0       0       0       0
     B2g       27      27       0       0       0       0
     B3g       27      27       0       0       0       0
     Au        14      14       0       0       0       0
     B1u       42      42       0       0       0       0
     B2u       30      30       0       0       0       0
     B3u       30      30       0       0       0       0
   -------------------------------------------------------
    Total     240     240      11      11      11       0
   -------------------------------------------------------

  ==> Integral Setup <==

  ==> DiskDFJK: Density-Fitted J/K Matrices <==

    J tasked:                  Yes
    K tasked:                  Yes
    wK tasked:                 Yes
    Omega:               3.000E-01
    OpenMP threads:             24
    Integrals threads:          24
    Memory [MiB]:           102583
    Algorithm:                Core
    Integral Cache:           NONE
    Schwarz Cutoff:          1E-12
    Fitting Condition:       1E-10

   => Auxiliary Basis Set <=

  Basis Set: (AUG-CC-PV(Q+D)Z AUX)
    Blend: AUG-CC-PVQZ-JKFIT
    Number of shells: 102
    Number of basis function: 426
    Number of Cartesian functions: 594
    Spherical Harmonics?: true
    Max angular momentum: 5

  Cached 100.0% of DFT collocation blocks in 0.404 [GiB].

  Minimum eigenvalue in the overlap matrix is 4.8517860641E-05.
  Using Symmetric Orthogonalization.

  SCF Guess: Superposition of Atomic Densities via on-the-fly atomic UHF.

  ==> Iterations <==

                           Total Energy        Delta E     RMS |[F,P]|

   @DF-RKS iter SAD:  -187.89986221363091   -1.87900e+02   0.00000e+00 
   @DF-RKS iter   1:  -188.49657303911005   -5.96711e-01   6.72275e-03 DIIS
   @DF-RKS iter   2:  -188.46107935181524    3.54937e-02   7.76861e-03 DIIS
   @DF-RKS iter   3:  -188.61101230839631   -1.49933e-01   3.37854e-04 DIIS
   @DF-RKS iter   4:  -188.61135889499903   -3.46587e-04   8.22390e-05 DIIS
   @DF-RKS iter   5:  -188.61137933389503   -2.04389e-05   7.13201e-06 DIIS
   @DF-RKS iter   6:  -188.61137962537350   -2.91478e-07   1.59686e-06 DIIS
   @DF-RKS iter   7:  -188.61137963941539   -1.40419e-08   2.64502e-07 DIIS
   @DF-RKS iter   8:  -188.61137963984328   -4.27889e-10   2.66761e-08 DIIS
   @DF-RKS iter   9:  -188.61137963984780   -4.51905e-12   3.65733e-09 DIIS
  Energy and wave function converged.


  ==> Post-Iterations <==

    Orbital Energies [Eh]
    ---------------------

    Doubly Occupied:                                                      

       1B1u  -19.296617     1Ag   -19.296580     2Ag   -10.464363  
       3Ag    -1.298643     2B1u   -1.254093     4Ag    -0.687426  
       1B3u   -0.640870     1B2u   -0.640870     3B1u   -0.639431  
       1B2g   -0.483360     1B3g   -0.483360  

    Virtual:                                                              

       5Ag     0.037092     2B2u    0.066669     2B3u    0.066669  
       4B1u    0.071420     3B2u    0.124065     3B3u    0.124065  
       6Ag     0.128706     2B3g    0.136058     2B2g    0.136058  
       7Ag     0.156747     5B1u    0.194497     4B2u    0.200325  
       4B3u    0.200325     1B1g    0.210846     8Ag     0.210849  
       6B1u    0.244086     9Ag     0.330164     5B2u    0.335504  
       5B3u    0.335504    10Ag     0.367617     3B3g    0.367708  
       3B2g    0.367708     1Au     0.448829     7B1u    0.448829  
       8B1u    0.480356    11Ag     0.539643     2B1g    0.551012  
      12Ag     0.551013     4B3g    0.578770     4B2g    0.578770  
       6B2u    0.601891     6B3u    0.601891     9B1u    0.621310  
      13Ag     0.656641     7B3u    0.706087     7B2u    0.706087  
      14Ag     0.753087     3B1g    0.753089    10B1u    0.790071  
       8B3u    0.806260     8B2u    0.806260    15Ag     0.848945  
       5B3g    0.864952     5B2g    0.864952     2Au     0.922031  
      11B1u    0.922034    12B1u    0.981714    13B1u    1.046345  
       9B2u    1.078168     9B3u    1.078168     6B3g    1.101580  
       6B2g    1.101580    16Ag     1.253943     7B2g    1.277726  
       7B3g    1.277726    17Ag     1.430985     3Au     1.431532  
      14B1u    1.431532    10B2u    1.479916    10B3u    1.479916  
      18Ag     1.486778     4B1g    1.486781    11B3u    1.517694  
      11B2u    1.517694    19Ag     1.568533     5B1g    1.568542  
       8B3g    1.595285     8B2g    1.595285    20Ag     1.596143  
      15B1u    1.602662    16B1u    1.627022    21Ag     1.810230  
       9B3g    1.824975     9B2g    1.824975     4Au     1.827604  
      17B1u    1.827614    12B2u    1.846073    12B3u    1.846073  
      18B1u    1.855745    22Ag     2.003434     6B1g    2.003434  
      23Ag     2.104641     7B1g    2.104645    13B3u    2.112292  
      13B2u    2.112292    14B2u    2.135839    14B3u    2.135839  
      10B3g    2.407434    10B2g    2.407434    11B2g    2.417677  
      11B3g    2.417677    15B2u    2.525736    15B3u    2.525736  
      19B1u    2.577871    24Ag     2.650569     5Au     2.775490  
      20B1u    2.775497    25Ag     2.903966    26Ag     3.029019  
       8B1g    3.029041    12B3g    3.034498    12B2g    3.034498  
      21B1u    3.289074    27Ag     3.351314    22B1u    3.464778  
       6Au     3.464786    13B3g    3.539831    13B2g    3.539831  
      28Ag     3.671819     9B1g    3.671827    29Ag     3.802829  
      14B3g    3.806771    14B2g    3.806771    23B1u    3.818360  
      16B2u    3.859682    16B3u    3.859682     7Au     3.915815  
      24B1u    3.915817    17B2u    3.928484    17B3u    3.928484  
      18B2u    4.020568    18B3u    4.020568    19B2u    4.034013  
      19B3u    4.034013    30Ag     4.051850    10B1g    4.051850  
      31Ag     4.131154    15B3g    4.133483    15B2g    4.133483  
       8Au     4.355110    25B1u    4.355114    11B1g    4.377537  
      32Ag     4.377544    26B1u    4.411286    20B2u    4.458774  
      20B3u    4.458774    33Ag     4.511758    16B3g    4.562733  
      16B2g    4.562733    17B3g    4.676998    17B2g    4.676998  
      27B1u    4.684727    34Ag     4.709088    12B1g    4.709094  
       9Au     5.249319    28B1u    5.249329    21B2u    5.353704  
      21B3u    5.353704    35Ag     5.641506    36Ag     5.644803  
      13B1g    5.644812    29B1u    5.650383    18B3g    5.723307  
      18B2g    5.723307    37Ag     5.926657    19B3g    5.979520  
      19B2g    5.979520    30B1u    6.021038    22B2u    6.131493  
      22B3u    6.131493    23B2u    6.219840    23B3u    6.219840  
      14B1g    6.397946    38Ag     6.397967    10Au     6.697709  
      31B1u    6.697711    32B1u    6.802348    20B3g    6.923894  
      20B2g    6.923894    39Ag     7.367458    15B1g    7.653114  
      40Ag     7.653115    24B2u    8.200636    24B3u    8.200636  
      41Ag     8.664653    21B3g    8.909153    21B2g    8.909153  
      33B1u    9.976737    34B1u   10.192326    11Au    10.192413  
      42Ag    10.275413    16B1g   10.275503    25B2u   10.392056  
      25B3u   10.392056    22B3g   10.570713    22B2g   10.570713  
      12Au    10.689066    35B1u   10.689074    23B3g   10.708271  
      23B2g   10.708271    26B2u   10.881624    26B3u   10.881624  
      24B3g   10.917391    24B2g   10.917391    36B1u   10.963907  
      17B1g   10.971301    43Ag    10.971311    27B2u   11.128655  
      27B3u   11.128655    44Ag    11.261212    25B3g   11.436209  
      25B2g   11.436209    28B2u   11.439491    28B3u   11.439491  
      37B1u   11.631323    13Au    11.931646    38B1u   11.931651  
      45Ag    12.006741    18B1g   12.023543    46Ag    12.023554  
      29B2u   12.107686    29B3u   12.107686    14Au    12.541796  
      39B1u   12.541840    19B1g   12.585571    47Ag    12.585603  
      26B3g   12.642743    26B2g   12.642743    40B1u   13.326986  
      30B3u   13.642147    30B2u   13.642147    48Ag    13.647738  
      49Ag    14.356452    27B3g   15.449663    27B2g   15.449663  
      41B1u   16.176475    50Ag    25.841584    42B1u   42.201091  
      51Ag    42.754213  

    Final Occupation by Irrep:
             Ag   B1g   B2g   B3g    Au   B1u   B2u   B3u 
    DOCC [     4,    0,    1,    1,    0,    3,    1,    1 ]

  @DF-RKS Final Energy:  -188.61137963984780

   => Energetics <=

    Nuclear Repulsion Energy =             58.2613822172372409
    One-Electron Energy =                -372.5710956452023765
    Two-Electron Energy =                 141.6726811694449282
    DFT Exchange-Correlation Energy =     -16.0661166228717960
    Empirical Dispersion Energy =           0.0000000000000000
    VV10 Nonlocal Energy =                  0.0917692415441721
    Total Energy =                       -188.6113796398477973

Computation Completed


Properties will be evaluated at   0.000000,   0.000000,   0.000000 [a0]

Properties computed using the SCF density matrix

  Nuclear Dipole Moment: [e a0]
     X:     0.0000      Y:     0.0000      Z:     0.0000

  Electronic Dipole Moment: [e a0]
     X:     0.0000      Y:     0.0000      Z:     0.0000

  Dipole Moment: [e a0]
     X:     0.0000      Y:     0.0000      Z:     0.0000     Total:     0.0000

  Dipole Moment: [D]
     X:     0.0000      Y:     0.0000      Z:     0.0000     Total:     0.0000


*** tstop() called on bp1-compute00067.data.bp.acrc.priv at Tue Apr 27 16:34:10 2021
Module time:
	user time   =     112.59 seconds =       1.88 minutes
	system time =       8.95 seconds =       0.15 minutes
	total time  =          6 seconds =       0.10 minutes
Total time:
	user time   =     112.59 seconds =       1.88 minutes
	system time =       8.95 seconds =       0.15 minutes
	total time  =          6 seconds =       0.10 minutes

  //>>>>>>>>>>>>>>>>>>>>>>>>>>>>>>>>>>>//
  //    Loading displacement 2 of 3    //
  //<<<<<<<<<<<<<<<<<<<<<<<<<<<<<<<<<<<//

*** tstart() called on bp1-compute00067.data.bp.acrc.priv
*** at Tue Apr 27 16:34:10 2021

   => Loading Basis Set <=

    Name: AUG-CC-PV(Q+D)Z
    Role: ORBITAL
    Keyword: BASIS
    atoms 1   entry C          line   319 file /work/zw18965/.conda/envs/p4env/share/psi4/basis/aug-cc-pv_qpd_z.gbs 
    atoms 2-3 entry O          line   439 file /work/zw18965/.conda/envs/p4env/share/psi4/basis/aug-cc-pv_qpd_z.gbs 


         ---------------------------------------------------------
                                   SCF
               by Justin Turney, Rob Parrish, Andy Simmonett
                          and Daniel G. A. Smith
                              RKS Reference
                       24 Threads, 137329 MiB Core
         ---------------------------------------------------------

  ==> Geometry <==

    Molecular point group: d2h
    Full point group: D_inf_h

    Geometry (in Angstrom), charge = 0, multiplicity = 1:

       Center              X                  Y                   Z               Mass       
    ------------   -----------------  -----------------  -----------------  -----------------
         C            0.000000000000     0.000000000000     0.000000000000    12.000000000000
         O            0.000000000000     0.000000000000     1.162132194659    15.994914619570
         O            0.000000000000     0.000000000000    -1.162132194659    15.994914619570

  Running in d2h symmetry.

  Rotational constants: A = ************  B =      0.39019  C =      0.39019 [cm^-1]
  Rotational constants: A = ************  B =  11697.53120  C =  11697.53120 [MHz]
  Nuclear repulsion =   58.284834786504561

  Charge       = 0
  Multiplicity = 1
  Electrons    = 22
  Nalpha       = 11
  Nbeta        = 11

  ==> Algorithm <==

  SCF Algorithm Type is DF.
  DIIS enabled.
  MOM disabled.
  Fractional occupation disabled.
  Guess Type is SAD.
  Energy threshold   = 1.00e-08
  Density threshold  = 1.00e-08
  Integral threshold = 0.00e+00

  ==> Primary Basis <==

  Basis Set: AUG-CC-PV(Q+D)Z
    Blend: AUG-CC-PV(Q+D)Z
    Number of shells: 60
    Number of basis function: 240
    Number of Cartesian functions: 315
    Spherical Harmonics?: true
    Max angular momentum: 4

  ==> DFT Potential <==

   => Composite Functional: WB97X-V <= 

    wB97X-V Hyb-GGA Exchange-Correlation Functional

    N. Mardirossian and M. Head-Gordon, Phys. Chem. Chem. Phys. 16, 9904 (2014)

    Deriv               =              1
    GGA                 =           TRUE
    Meta                =          FALSE

    Exchange Hybrid     =           TRUE
    MP2 Hybrid          =          FALSE

   => Exchange-Correlation Functionals <=

    1.0000   wB97X-V range-separated functional

   => Exact (HF) Exchange <=

    0.8330            HF,LR [omega = 0.3000]
    0.1670               HF 

   => VV10 Non-Local Parameters <=

    VV10 B              =     6.0000E+00
    VV10 C              =     1.0000E-02

   => Molecular Quadrature <=

    Radial Scheme          =       TREUTLER
    Pruning Scheme         =           FLAT
    Nuclear Scheme         =       TREUTLER

    BS radius alpha        =              1
    Pruning alpha          =              1
    Radial Points          =             75
    Spherical Points       =            302
    Total Points           =          67950
    Total Blocks           =            594
    Max Points             =            256
    Max Functions          =            240

   => Loading Basis Set <=

    Name: (AUG-CC-PV(Q+D)Z AUX)
    Role: JKFIT
    Keyword: DF_BASIS_SCF
    atoms 1   entry C          line   178 file /work/zw18965/.conda/envs/p4env/share/psi4/basis/aug-cc-pvqz-jkfit.gbs 
    atoms 2-3 entry O          line   318 file /work/zw18965/.conda/envs/p4env/share/psi4/basis/aug-cc-pvqz-jkfit.gbs 

  ==> Pre-Iterations <==

   -------------------------------------------------------
    Irrep   Nso     Nmo     Nalpha   Nbeta   Ndocc  Nsocc
   -------------------------------------------------------
     Ag        51      51       0       0       0       0
     B1g       19      19       0       0       0       0
     B2g       27      27       0       0       0       0
     B3g       27      27       0       0       0       0
     Au        14      14       0       0       0       0
     B1u       42      42       0       0       0       0
     B2u       30      30       0       0       0       0
     B3u       30      30       0       0       0       0
   -------------------------------------------------------
    Total     240     240      11      11      11       0
   -------------------------------------------------------

  ==> Integral Setup <==

  ==> DiskDFJK: Density-Fitted J/K Matrices <==

    J tasked:                  Yes
    K tasked:                  Yes
    wK tasked:                 Yes
    Omega:               3.000E-01
    OpenMP threads:             24
    Integrals threads:          24
    Memory [MiB]:           102583
    Algorithm:                Core
    Integral Cache:           NONE
    Schwarz Cutoff:          1E-12
    Fitting Condition:       1E-10

   => Auxiliary Basis Set <=

  Basis Set: (AUG-CC-PV(Q+D)Z AUX)
    Blend: AUG-CC-PVQZ-JKFIT
    Number of shells: 102
    Number of basis function: 426
    Number of Cartesian functions: 594
    Spherical Harmonics?: true
    Max angular momentum: 5

  Cached 100.0% of DFT collocation blocks in 0.404 [GiB].

  Minimum eigenvalue in the overlap matrix is 4.8426462643E-05.
  Using Symmetric Orthogonalization.

  SCF Guess: Superposition of Atomic Densities via on-the-fly atomic UHF.

  ==> Iterations <==

                           Total Energy        Delta E     RMS |[F,P]|

   @DF-RKS iter SAD:  -187.90150178897511   -1.87902e+02   0.00000e+00 
   @DF-RKS iter   1:  -188.49664928642594   -5.95147e-01   6.72226e-03 DIIS
   @DF-RKS iter   2:  -188.46148386607072    3.51654e-02   7.76000e-03 DIIS
   @DF-RKS iter   3:  -188.61102645010936   -1.49543e-01   3.38179e-04 DIIS
   @DF-RKS iter   4:  -188.61137362325570   -3.47173e-04   8.22375e-05 DIIS
   @DF-RKS iter   5:  -188.61139405243421   -2.04292e-05   7.11694e-06 DIIS
   @DF-RKS iter   6:  -188.61139434301307   -2.90579e-07   1.59003e-06 DIIS
   @DF-RKS iter   7:  -188.61139435695688   -1.39438e-08   2.62804e-07 DIIS
   @DF-RKS iter   8:  -188.61139435737962   -4.22745e-10   2.64871e-08 DIIS
   @DF-RKS iter   9:  -188.61139435738448   -4.86011e-12   3.63303e-09 DIIS
  Energy and wave function converged.


  ==> Post-Iterations <==

    Orbital Energies [Eh]
    ---------------------

    Doubly Occupied:                                                      

       1B1u  -19.296505     1Ag   -19.296468     2Ag   -10.464138  
       3Ag    -1.298848     2B1u   -1.254301     4Ag    -0.687339  
       1B2u   -0.641035     1B3u   -0.641035     3B1u   -0.639456  
       1B3g   -0.483380     1B2g   -0.483380  

    Virtual:                                                              

       5Ag     0.037116     2B2u    0.066662     2B3u    0.066662  
       4B1u    0.071420     3B2u    0.124380     3B3u    0.124380  
       6Ag     0.128717     2B3g    0.136057     2B2g    0.136057  
       7Ag     0.156831     5B1u    0.194503     4B2u    0.200313  
       4B3u    0.200313     1B1g    0.210844     8Ag     0.210846  
       6B1u    0.244081     9Ag     0.330363     5B2u    0.335548  
       5B3u    0.335548     3B3g    0.367705     3B2g    0.367705  
      10Ag     0.367762     1Au     0.448815     7B1u    0.448816  
       8B1u    0.480376    11Ag     0.539764     2B1g    0.550985  
      12Ag     0.550987     4B2g    0.578859     4B3g    0.578859  
       6B2u    0.601809     6B3u    0.601809     9B1u    0.621278  
      13Ag     0.656776     7B3u    0.706087     7B2u    0.706087  
      14Ag     0.753116     3B1g    0.753119    10B1u    0.790202  
       8B2u    0.806281     8B3u    0.806281    15Ag     0.848981  
       5B2g    0.864902     5B3g    0.864902     2Au     0.922060  
      11B1u    0.922063    12B1u    0.981701    13B1u    1.047435  
       9B2u    1.078203     9B3u    1.078203     6B2g    1.101972  
       6B3g    1.101972    16Ag     1.253947     7B3g    1.277731  
       7B2g    1.277731    17Ag     1.431217     3Au     1.431559  
      14B1u    1.431559    10B2u    1.479962    10B3u    1.479962  
      18Ag     1.486806     4B1g    1.486809    11B2u    1.517839  
      11B3u    1.517839    19Ag     1.568366     5B1g    1.568375  
       8B3g    1.595293     8B2g    1.595293    20Ag     1.596274  
      15B1u    1.603009    16B1u    1.626791    21Ag     1.810178  
       9B2g    1.825034     9B3g    1.825034     4Au     1.827645  
      17B1u    1.827655    12B2u    1.845749    12B3u    1.845749  
      18B1u    1.855747    22Ag     2.003451     6B1g    2.003452  
      23Ag     2.105104     7B1g    2.105108    13B3u    2.112376  
      13B2u    2.112376    14B2u    2.136461    14B3u    2.136461  
      10B3g    2.407205    10B2g    2.407205    11B2g    2.417888  
      11B3g    2.417888    15B2u    2.526328    15B3u    2.526328  
      19B1u    2.578081    24Ag     2.651321     5Au     2.775979  
      20B1u    2.775986    25Ag     2.904177    26Ag     3.029165  
       8B1g    3.029188    12B3g    3.035134    12B2g    3.035134  
      21B1u    3.288490    27Ag     3.351948    22B1u    3.464767  
       6Au     3.464775    13B2g    3.539914    13B3g    3.539914  
      28Ag     3.672112     9B1g    3.672120    29Ag     3.802852  
      14B3g    3.806756    14B2g    3.806756    23B1u    3.818901  
      16B2u    3.860005    16B3u    3.860005     7Au     3.915881  
      24B1u    3.915883    17B2u    3.928947    17B3u    3.928947  
      18B2u    4.020959    18B3u    4.020959    19B2u    4.034209  
      19B3u    4.034209    30Ag     4.051917    10B1g    4.051918  
      31Ag     4.131748    15B3g    4.134090    15B2g    4.134090  
       8Au     4.355246    25B1u    4.355250    11B1g    4.378113  
      32Ag     4.378120    26B1u    4.411585    20B2u    4.458478  
      20B3u    4.458478    33Ag     4.512685    16B3g    4.563405  
      16B2g    4.563405    17B3g    4.675993    17B2g    4.675993  
      27B1u    4.686311    34Ag     4.709139    12B1g    4.709145  
       9Au     5.249799    28B1u    5.249809    21B2u    5.355201  
      21B3u    5.355201    35Ag     5.642642    36Ag     5.644821  
      13B1g    5.644830    29B1u    5.648700    18B3g    5.724362  
      18B2g    5.724362    37Ag     5.925657    19B2g    5.980316  
      19B3g    5.980316    30B1u    6.022722    22B3u    6.131529  
      22B2u    6.131529    23B2u    6.220667    23B3u    6.220667  
      14B1g    6.398835    38Ag     6.398857    10Au     6.699438  
      31B1u    6.699440    32B1u    6.803766    20B3g    6.925447  
      20B2g    6.925447    39Ag     7.370220    15B1g    7.654954  
      40Ag     7.654956    24B2u    8.203097    24B3u    8.203097  
      41Ag     8.667398    21B3g    8.908423    21B2g    8.908423  
      33B1u    9.978899    34B1u   10.192315    11Au    10.192402  
      42Ag    10.275542    16B1g   10.275631    25B2u   10.392346  
      25B3u   10.392346    22B3g   10.570999    22B2g   10.570999  
      12Au    10.689537    35B1u   10.689545    23B3g   10.708717  
      23B2g   10.708717    26B2u   10.882135    26B3u   10.882135  
      24B2g   10.917662    24B3g   10.917662    36B1u   10.963094  
      17B1g   10.972422    43Ag    10.972432    27B2u   11.129547  
      27B3u   11.129547    44Ag    11.262815    25B3g   11.436558  
      25B2g   11.436558    28B2u   11.439592    28B3u   11.439592  
      37B1u   11.631378    13Au    11.932642    38B1u   11.932648  
      45Ag    12.007811    18B1g   12.023125    46Ag    12.023136  
      29B2u   12.107096    29B3u   12.107096    14Au    12.542241  
      39B1u   12.542285    19B1g   12.587411    47Ag    12.587443  
      26B3g   12.645163    26B2g   12.645163    40B1u   13.329449  
      30B2u   13.646052    30B3u   13.646052    48Ag    13.648964  
      49Ag    14.356392    27B3g   15.453701    27B2g   15.453701  
      41B1u   16.183140    50Ag    25.847803    42B1u   42.201466  
      51Ag    42.763005  

    Final Occupation by Irrep:
             Ag   B1g   B2g   B3g    Au   B1u   B2u   B3u 
    DOCC [     4,    0,    1,    1,    0,    3,    1,    1 ]

  @DF-RKS Final Energy:  -188.61139435738448

   => Energetics <=

    Nuclear Repulsion Energy =             58.2848347865045611
    One-Electron Energy =                -372.6170066204409750
    Two-Electron Energy =                 141.6958807463269920
    DFT Exchange-Correlation Energy =     -16.0668723309114156
    Empirical Dispersion Energy =           0.0000000000000000
    VV10 Nonlocal Energy =                  0.0917690611363494
    Total Energy =                       -188.6113943573844836

Computation Completed


Properties will be evaluated at   0.000000,   0.000000,   0.000000 [a0]

Properties computed using the SCF density matrix

  Nuclear Dipole Moment: [e a0]
     X:     0.0000      Y:     0.0000      Z:     0.0000

  Electronic Dipole Moment: [e a0]
     X:     0.0000      Y:     0.0000      Z:     0.0000

  Dipole Moment: [e a0]
     X:     0.0000      Y:     0.0000      Z:     0.0000     Total:     0.0000

  Dipole Moment: [D]
     X:     0.0000      Y:     0.0000      Z:     0.0000     Total:     0.0000


*** tstop() called on bp1-compute00067.data.bp.acrc.priv at Tue Apr 27 16:34:15 2021
Module time:
	user time   =     120.48 seconds =       2.01 minutes
	system time =       6.96 seconds =       0.12 minutes
	total time  =          5 seconds =       0.08 minutes
Total time:
	user time   =     233.27 seconds =       3.89 minutes
	system time =      15.92 seconds =       0.27 minutes
	total time  =         11 seconds =       0.18 minutes

  //>>>>>>>>>>>>>>>>>>>>>>>>>>>>>>>>>>>//
  //    Loading displacement 3 of 3    //
  //<<<<<<<<<<<<<<<<<<<<<<<<<<<<<<<<<<<//

*** tstart() called on bp1-compute00067.data.bp.acrc.priv
*** at Tue Apr 27 16:34:15 2021

   => Loading Basis Set <=

    Name: AUG-CC-PV(Q+D)Z
    Role: ORBITAL
    Keyword: BASIS
    atoms 1   entry C          line   319 file /work/zw18965/.conda/envs/p4env/share/psi4/basis/aug-cc-pv_qpd_z.gbs 
    atoms 2-3 entry O          line   439 file /work/zw18965/.conda/envs/p4env/share/psi4/basis/aug-cc-pv_qpd_z.gbs 


         ---------------------------------------------------------
                                   SCF
               by Justin Turney, Rob Parrish, Andy Simmonett
                          and Daniel G. A. Smith
                              RKS Reference
                       24 Threads, 137329 MiB Core
         ---------------------------------------------------------

  ==> Geometry <==

    Molecular point group: d2h
    Full point group: D_inf_h

    Geometry (in Angstrom), charge = 0, multiplicity = 1:

       Center              X                  Y                   Z               Mass       
    ------------   -----------------  -----------------  -----------------  -----------------
         C            0.000000000000     0.000000000000     0.000000000000    12.000000000000
         O            0.000000000000     0.000000000000     1.163067805341    15.994914619570
         O            0.000000000000     0.000000000000    -1.163067805341    15.994914619570

  Running in d2h symmetry.

  Rotational constants: A = ************  B =      0.38956  C =      0.38956 [cm^-1]
  Rotational constants: A = ************  B =  11678.71900  C =  11678.71900 [MHz]
  Nuclear repulsion =   58.237948514001836

  Charge       = 0
  Multiplicity = 1
  Electrons    = 22
  Nalpha       = 11
  Nbeta        = 11

  ==> Algorithm <==

  SCF Algorithm Type is DF.
  DIIS enabled.
  MOM disabled.
  Fractional occupation disabled.
  Guess Type is SAD.
  Energy threshold   = 1.00e-08
  Density threshold  = 1.00e-08
  Integral threshold = 0.00e+00

  ==> Primary Basis <==

  Basis Set: AUG-CC-PV(Q+D)Z
    Blend: AUG-CC-PV(Q+D)Z
    Number of shells: 60
    Number of basis function: 240
    Number of Cartesian functions: 315
    Spherical Harmonics?: true
    Max angular momentum: 4

  ==> DFT Potential <==

   => Composite Functional: WB97X-V <= 

    wB97X-V Hyb-GGA Exchange-Correlation Functional

    N. Mardirossian and M. Head-Gordon, Phys. Chem. Chem. Phys. 16, 9904 (2014)

    Deriv               =              1
    GGA                 =           TRUE
    Meta                =          FALSE

    Exchange Hybrid     =           TRUE
    MP2 Hybrid          =          FALSE

   => Exchange-Correlation Functionals <=

    1.0000   wB97X-V range-separated functional

   => Exact (HF) Exchange <=

    0.8330            HF,LR [omega = 0.3000]
    0.1670               HF 

   => VV10 Non-Local Parameters <=

    VV10 B              =     6.0000E+00
    VV10 C              =     1.0000E-02

   => Molecular Quadrature <=

    Radial Scheme          =       TREUTLER
    Pruning Scheme         =           FLAT
    Nuclear Scheme         =       TREUTLER

    BS radius alpha        =              1
    Pruning alpha          =              1
    Radial Points          =             75
    Spherical Points       =            302
    Total Points           =          67950
    Total Blocks           =            595
    Max Points             =            256
    Max Functions          =            240

   => Loading Basis Set <=

    Name: (AUG-CC-PV(Q+D)Z AUX)
    Role: JKFIT
    Keyword: DF_BASIS_SCF
    atoms 1   entry C          line   178 file /work/zw18965/.conda/envs/p4env/share/psi4/basis/aug-cc-pvqz-jkfit.gbs 
    atoms 2-3 entry O          line   318 file /work/zw18965/.conda/envs/p4env/share/psi4/basis/aug-cc-pvqz-jkfit.gbs 

  ==> Pre-Iterations <==

   -------------------------------------------------------
    Irrep   Nso     Nmo     Nalpha   Nbeta   Ndocc  Nsocc
   -------------------------------------------------------
     Ag        51      51       0       0       0       0
     B1g       19      19       0       0       0       0
     B2g       27      27       0       0       0       0
     B3g       27      27       0       0       0       0
     Au        14      14       0       0       0       0
     B1u       42      42       0       0       0       0
     B2u       30      30       0       0       0       0
     B3u       30      30       0       0       0       0
   -------------------------------------------------------
    Total     240     240      11      11      11       0
   -------------------------------------------------------

  ==> Integral Setup <==

  ==> DiskDFJK: Density-Fitted J/K Matrices <==

    J tasked:                  Yes
    K tasked:                  Yes
    wK tasked:                 Yes
    Omega:               3.000E-01
    OpenMP threads:             24
    Integrals threads:          24
    Memory [MiB]:           102583
    Algorithm:                Core
    Integral Cache:           NONE
    Schwarz Cutoff:          1E-12
    Fitting Condition:       1E-10

   => Auxiliary Basis Set <=

  Basis Set: (AUG-CC-PV(Q+D)Z AUX)
    Blend: AUG-CC-PVQZ-JKFIT
    Number of shells: 102
    Number of basis function: 426
    Number of Cartesian functions: 594
    Spherical Harmonics?: true
    Max angular momentum: 5

  Cached 100.0% of DFT collocation blocks in 0.404 [GiB].

  Minimum eigenvalue in the overlap matrix is 4.8609481461E-05.
  Using Symmetric Orthogonalization.

  SCF Guess: Superposition of Atomic Densities via on-the-fly atomic UHF.

  ==> Iterations <==

                           Total Energy        Delta E     RMS |[F,P]|

   @DF-RKS iter SAD:  -187.89822339213828   -1.87898e+02   0.00000e+00 
   @DF-RKS iter   1:  -188.49649455814537   -5.98271e-01   6.72324e-03 DIIS
   @DF-RKS iter   2:  -188.46067170606287    3.58229e-02   7.77725e-03 DIIS
   @DF-RKS iter   3:  -188.61099638164055   -1.50325e-01   3.37531e-04 DIIS
   @DF-RKS iter   4:  -188.61134238338920   -3.46002e-04   8.22408e-05 DIIS
   @DF-RKS iter   5:  -188.61136283222288   -2.04488e-05   7.14718e-06 DIIS
   @DF-RKS iter   6:  -188.61136312461340   -2.92391e-07   1.60375e-06 DIIS
   @DF-RKS iter   7:  -188.61136313875568   -1.41423e-08   2.66214e-07 DIIS
   @DF-RKS iter   8:  -188.61136313918817   -4.32493e-10   2.68655e-08 DIIS
   @DF-RKS iter   9:  -188.61136313919309   -4.91696e-12   3.68138e-09 DIIS
  Energy and wave function converged.


  ==> Post-Iterations <==

    Orbital Energies [Eh]
    ---------------------

    Doubly Occupied:                                                      

       1B1u  -19.296728     1Ag   -19.296691     2Ag   -10.464588  
       3Ag    -1.298439     2B1u   -1.253886     4Ag    -0.687514  
       1B3u   -0.640705     1B2u   -0.640705     3B1u   -0.639405  
       1B2g   -0.483339     1B3g   -0.483339  

    Virtual:                                                              

       5Ag     0.037068     2B2u    0.066677     2B3u    0.066677  
       4B1u    0.071421     3B2u    0.123750     3B3u    0.123750  
       6Ag     0.128694     2B3g    0.136058     2B2g    0.136058  
       7Ag     0.156663     5B1u    0.194491     4B2u    0.200337  
       4B3u    0.200337     1B1g    0.210849     8Ag     0.210852  
       6B1u    0.244092     9Ag     0.329964     5B3u    0.335461  
       5B2u    0.335461    10Ag     0.367473     3B3g    0.367712  
       3B2g    0.367712     1Au     0.448842     7B1u    0.448843  
       8B1u    0.480336    11Ag     0.539523     2B1g    0.551039  
      12Ag     0.551040     4B3g    0.578680     4B2g    0.578680  
       6B3u    0.601972     6B2u    0.601972     9B1u    0.621343  
      13Ag     0.656507     7B3u    0.706086     7B2u    0.706086  
      14Ag     0.753058     3B1g    0.753060    10B1u    0.789940  
       8B3u    0.806238     8B2u    0.806238    15Ag     0.848910  
       5B3g    0.865001     5B2g    0.865001     2Au     0.922003  
      11B1u    0.922006    12B1u    0.981723    13B1u    1.045260  
       9B2u    1.078134     9B3u    1.078134     6B3g    1.101189  
       6B2g    1.101189    16Ag     1.253939     7B2g    1.277721  
       7B3g    1.277721    17Ag     1.430754     3Au     1.431505  
      14B1u    1.431505    10B2u    1.479869    10B3u    1.479869  
      18Ag     1.486750     4B1g    1.486752    11B3u    1.517550  
      11B2u    1.517550    19Ag     1.568699     5B1g    1.568708  
       8B3g    1.595278     8B2g    1.595278    20Ag     1.596012  
      15B1u    1.602313    16B1u    1.627256    21Ag     1.810282  
       9B3g    1.824916     9B2g    1.824916     4Au     1.827563  
      17B1u    1.827574    12B2u    1.846396    12B3u    1.846396  
      18B1u    1.855743    22Ag     2.003416     6B1g    2.003416  
      23Ag     2.104179     7B1g    2.104183    13B2u    2.112208  
      13B3u    2.112208    14B2u    2.135217    14B3u    2.135217  
      10B2g    2.407663    10B3g    2.407663    11B3g    2.417466  
      11B2g    2.417466    15B2u    2.525145    15B3u    2.525145  
      19B1u    2.577659    24Ag     2.649815     5Au     2.775000  
      20B1u    2.775007    25Ag     2.903757    26Ag     3.028871  
       8B1g    3.028894    12B3g    3.033862    12B2g    3.033862  
      21B1u    3.289661    27Ag     3.350681    22B1u    3.464790  
       6Au     3.464798    13B3g    3.539746    13B2g    3.539746  
      28Ag     3.671527     9B1g    3.671535    29Ag     3.802806  
      14B3g    3.806786    14B2g    3.806786    23B1u    3.817818  
      16B2u    3.859356    16B3u    3.859356     7Au     3.915749  
      24B1u    3.915751    17B2u    3.928018    17B3u    3.928018  
      18B2u    4.020179    18B3u    4.020179    19B2u    4.033811  
      19B3u    4.033811    30Ag     4.051781    10B1g    4.051781  
      31Ag     4.130564    15B3g    4.132878    15B2g    4.132878  
       8Au     4.354974    25B1u    4.354978    11B1g    4.376961  
      32Ag     4.376968    26B1u    4.410986    20B2u    4.459078  
      20B3u    4.459078    33Ag     4.510833    16B3g    4.562060  
      16B2g    4.562060    17B3g    4.678000    17B2g    4.678000  
      27B1u    4.683143    34Ag     4.709041    12B1g    4.709047  
       9Au     5.248837    28B1u    5.248847    21B2u    5.352207  
      21B3u    5.352207    35Ag     5.640370    36Ag     5.644785  
      13B1g    5.644794    29B1u    5.652037    18B3g    5.722253  
      18B2g    5.722253    37Ag     5.927656    19B2g    5.978726  
      19B3g    5.978726    30B1u    6.019389    22B2u    6.131457  
      22B3u    6.131457    23B2u    6.219014    23B3u    6.219014  
      14B1g    6.397057    38Ag     6.397078    10Au     6.695984  
      31B1u    6.695986    32B1u    6.800931    20B3g    6.922344  
      20B2g    6.922344    39Ag     7.364697    15B1g    7.651272  
      40Ag     7.651274    24B2u    8.198177    24B3u    8.198177  
      41Ag     8.661919    21B3g    8.909865    21B2g    8.909865  
      33B1u    9.974565    34B1u   10.192336    11Au    10.192423  
      42Ag    10.275285    16B1g   10.275375    25B2u   10.391767  
      25B3u   10.391767    22B3g   10.570432    22B2g   10.570432  
      12Au    10.688598    35B1u   10.688605    23B3g   10.707825  
      23B2g   10.707825    26B2u   10.881112    26B3u   10.881112  
      24B3g   10.917132    24B2g   10.917132    36B1u   10.964712  
      17B1g   10.970178    43Ag    10.970188    27B2u   11.127756  
      27B3u   11.127756    44Ag    11.259609    25B3g   11.435861  
      25B2g   11.435861    28B3u   11.439390    28B2u   11.439390  
      37B1u   11.631273    13Au    11.930650    38B1u   11.930655  
      45Ag    12.005669    18B1g   12.023958    46Ag    12.023969  
      29B2u   12.108285    29B3u   12.108285    14Au    12.541351  
      39B1u   12.541395    19B1g   12.583740    47Ag    12.583772  
      26B3g   12.640327    26B2g   12.640327    40B1u   13.324533  
      30B2u   13.638247    30B3u   13.638247    48Ag    13.646481  
      49Ag    14.356545    27B3g   15.445611    27B2g   15.445611  
      41B1u   16.169805    50Ag    25.835364    42B1u   42.200720  
      51Ag    42.745442  

    Final Occupation by Irrep:
             Ag   B1g   B2g   B3g    Au   B1u   B2u   B3u 
    DOCC [     4,    0,    1,    1,    0,    3,    1,    1 ]

  @DF-RKS Final Energy:  -188.61136313919309

   => Energetics <=

    Nuclear Repulsion Energy =             58.2379485140018360
    One-Electron Energy =                -372.5252185103399256
    Two-Electron Energy =                 141.6494991951664986
    DFT Exchange-Correlation Energy =     -16.0653617605682619
    Empirical Dispersion Energy =           0.0000000000000000
    VV10 Nonlocal Energy =                  0.0917694225467526
    Total Energy =                       -188.6113631391930880

Computation Completed


Properties will be evaluated at   0.000000,   0.000000,   0.000000 [a0]

Properties computed using the SCF density matrix

  Nuclear Dipole Moment: [e a0]
     X:     0.0000      Y:     0.0000      Z:     0.0000

  Electronic Dipole Moment: [e a0]
     X:     0.0000      Y:     0.0000      Z:     0.0000

  Dipole Moment: [e a0]
     X:     0.0000      Y:     0.0000      Z:     0.0000     Total:     0.0000

  Dipole Moment: [D]
     X:     0.0000      Y:     0.0000      Z:     0.0000     Total:     0.0000


*** tstop() called on bp1-compute00067.data.bp.acrc.priv at Tue Apr 27 16:34:21 2021
Module time:
	user time   =     117.03 seconds =       1.95 minutes
	system time =       7.73 seconds =       0.13 minutes
	total time  =          6 seconds =       0.10 minutes
Total time:
	user time   =     350.45 seconds =       5.84 minutes
	system time =      23.66 seconds =       0.39 minutes
	total time  =         17 seconds =       0.28 minutes

         ----------------------------------------------------------
                                   FINDIF
                     R. A. King and Jonathon Misiewicz
         ---------------------------------------------------------

  Computing gradient from energies.
    Using 3-point formula.
    Energy without displacement: -188.6113796398
    Check energies below for precision!
    Forces are for mass-weighted, symmetry-adapted cartesians (in au).

     Coord      Energy(-1)        Energy(+1)            Force
        0   -188.6113943574   -188.6113631392      0.0031218191


-------------------------------------------------------------
  ## New Matrix (Symmetry 0) ##
  Irrep: 1 Size: 3 x 3

                 1                   2                   3

    1     0.00000000000000     0.00000000000000     0.00000000000000
    2     0.00000000000000     0.00000000000000     0.00882843459993
    3     0.00000000000000     0.00000000000000    -0.00882843459993




			-----------------------------------------
			 OPTKING 2.0: for geometry optimizations 
			  - R.A. King,  Bethel University        
			-----------------------------------------
	At level 1: Red. Int., RFO, no backsteps, dynamic trust

	Internal coordinates to be generated automatically.
	Detected frag 1 with atoms:  1 2 3
	---Fragment 1 Bond Connectivity---
	 1 : 2 3
	 2 : 1
	 3 : 1

	---Fragment 1 Geometry and Gradient---
	 C           0.0000000000        0.0000000000        0.0000000000
	 O           0.0000000000        0.0000000000        2.1969955935
	 O           0.0000000000        0.0000000000       -2.1969955935
	             0.0000000000        0.0000000000        0.0000000000
	             0.0000000000        0.0000000000        0.0088284346
	             0.0000000000        0.0000000000       -0.0088284346

	Previous optimization step data not found.  Starting new optimization.

	---Fragment 1 Intrafragment Coordinates---
	 - Coordinate -           - BOHR/RAD -       - ANG/DEG -
	 R(1,2)           =         2.196996	       1.162600
	 R(1,3)           =         2.196996	       1.162600
	 L(2,1,3)         =         3.141593	     180.000000
	 l(2,1,3)         =         3.141593	     180.000000

	Current energy   :      -188.6113796398

	Generating empirical Hessian (Schlegel '84) for each fragment.
	Taking RFO optimization step.
	Going to follow RFO solution 1.
	Using RFO vector 1.
	Norm of target step-size    0.00990
	Projected energy change by RFO approximation:        -0.0001235869

	Back-transformation to cartesian coordinates...
	Successfully converged to displaced geometry.

	--- Internal Coordinate Step in ANG or DEG, aJ/ANG or AJ/DEG ---
	 ---------------------------------------------------------------------------
	   Coordinate                Previous        Force       Change         New 
	   ----------                --------       ------       ------       ------
	    1 R(1,2)          =      1.162600    -0.072735    -0.003704     1.158896
	    2 R(1,3)          =      1.162600    -0.072735    -0.003704     1.158896
	    3 L(2,1,3)        =    180.000000     0.000000     0.000000   180.000000
	    4 l(2,1,3)        =    180.000000     0.000000     0.000000   180.000000
	 ---------------------------------------------------------------------------
	Successfully symmetrized geometry.

  ==> Convergence Check <==

  Measures of convergence in internal coordinates in au.
  Criteria marked as inactive (o), active & met (*), and active & unmet ( ).
  --------------------------------------------------------------------------------------------- ~
   Step     Total Energy     Delta E     MAX Force     RMS Force      MAX Disp      RMS Disp    ~
  --------------------------------------------------------------------------------------------- ~
    Convergence Criteria    1.00e-06 *    3.00e-04 *             o    1.20e-03 *             o  ~
  --------------------------------------------------------------------------------------------- ~
      1    -188.61137964   -1.89e+02      8.83e-03      6.24e-03 o    7.00e-03      4.95e-03 o  ~
  ---------------------------------------------------------------------------------------------

	Writing optimization data to binary file.
	Structure for next step:
	Cartesian Geometry (in Angstrom)
	    C    -0.0000000000   0.0000000000   0.0000000000
	    O     0.0000000000  -0.0000000000   1.1588957276
	    O     0.0000000000  -0.0000000000  -1.1588957276
			--------------------------
			 OPTKING Finished Execution 
			--------------------------

    Structure for next step:
    Molecular point group: d2h
    Full point group: D_inf_h

    Geometry (in Angstrom), charge = 0, multiplicity = 1:

    C            0.000000000000     0.000000000000     0.000000000000
    O           -0.000000000000    -0.000000000000     1.158895732178
    O           -0.000000000000    -0.000000000000    -1.158895732178

gradient() will perform gradient computation by finite difference of analytic energies.

         ----------------------------------------------------------
                                   FINDIF
                     R. A. King and Jonathon Misiewicz
         ---------------------------------------------------------

  Using finite-differences of energies to determine gradients.
    Generating geometries for use with 3-point formula.
    Displacement size will be 5.00e-03.
    Number of atoms is 3.
    Number of symmetric SALCs is 1.
    Translations projected? 1. Rotations projected? 1.
    Number of geometries (including reference) is 3.

  //>>>>>>>>>>>>>>>>>>>>>>>>>>>>>>>>>>>//
  //    Loading displacement 1 of 3    //
  //<<<<<<<<<<<<<<<<<<<<<<<<<<<<<<<<<<<//

*** tstart() called on bp1-compute00067.data.bp.acrc.priv
*** at Tue Apr 27 16:34:21 2021

   => Loading Basis Set <=

    Name: AUG-CC-PV(Q+D)Z
    Role: ORBITAL
    Keyword: BASIS
    atoms 1   entry C          line   319 file /work/zw18965/.conda/envs/p4env/share/psi4/basis/aug-cc-pv_qpd_z.gbs 
    atoms 2-3 entry O          line   439 file /work/zw18965/.conda/envs/p4env/share/psi4/basis/aug-cc-pv_qpd_z.gbs 


         ---------------------------------------------------------
                                   SCF
               by Justin Turney, Rob Parrish, Andy Simmonett
                          and Daniel G. A. Smith
                              RKS Reference
                       24 Threads, 137329 MiB Core
         ---------------------------------------------------------

  ==> Geometry <==

    Molecular point group: d2h
    Full point group: D_inf_h

    Geometry (in Angstrom), charge = 0, multiplicity = 1:

       Center              X                  Y                   Z               Mass       
    ------------   -----------------  -----------------  -----------------  -----------------
         C           -0.000000000000    -0.000000000000     0.000000000000    12.000000000000
         O            0.000000000000     0.000000000000     1.158895732178    15.994914619570
         O            0.000000000000     0.000000000000    -1.158895732178    15.994914619570

  Running in d2h symmetry.

  Rotational constants: A = ************  B =      0.39237  C =      0.39237 [cm^-1]
  Rotational constants: A = ************  B =  11762.95811  C =  11762.95811 [MHz]
  Nuclear repulsion =   58.447607567276243

  Charge       = 0
  Multiplicity = 1
  Electrons    = 22
  Nalpha       = 11
  Nbeta        = 11

  ==> Algorithm <==

  SCF Algorithm Type is DF.
  DIIS enabled.
  MOM disabled.
  Fractional occupation disabled.
  Guess Type is READ.
  Energy threshold   = 1.00e-08
  Density threshold  = 1.00e-08
  Integral threshold = 0.00e+00

  ==> Primary Basis <==

  Basis Set: AUG-CC-PV(Q+D)Z
    Blend: AUG-CC-PV(Q+D)Z
    Number of shells: 60
    Number of basis function: 240
    Number of Cartesian functions: 315
    Spherical Harmonics?: true
    Max angular momentum: 4

  ==> DFT Potential <==

   => Composite Functional: WB97X-V <= 

    wB97X-V Hyb-GGA Exchange-Correlation Functional

    N. Mardirossian and M. Head-Gordon, Phys. Chem. Chem. Phys. 16, 9904 (2014)

    Deriv               =              1
    GGA                 =           TRUE
    Meta                =          FALSE

    Exchange Hybrid     =           TRUE
    MP2 Hybrid          =          FALSE

   => Exchange-Correlation Functionals <=

    1.0000   wB97X-V range-separated functional

   => Exact (HF) Exchange <=

    0.8330            HF,LR [omega = 0.3000]
    0.1670               HF 

   => VV10 Non-Local Parameters <=

    VV10 B              =     6.0000E+00
    VV10 C              =     1.0000E-02

   => Molecular Quadrature <=

    Radial Scheme          =       TREUTLER
    Pruning Scheme         =           FLAT
    Nuclear Scheme         =       TREUTLER

    BS radius alpha        =              1
    Pruning alpha          =              1
    Radial Points          =             75
    Spherical Points       =            302
    Total Points           =          67950
    Total Blocks           =            594
    Max Points             =            256
    Max Functions          =            240

   => Loading Basis Set <=

    Name: (AUG-CC-PV(Q+D)Z AUX)
    Role: JKFIT
    Keyword: DF_BASIS_SCF
    atoms 1   entry C          line   178 file /work/zw18965/.conda/envs/p4env/share/psi4/basis/aug-cc-pvqz-jkfit.gbs 
    atoms 2-3 entry O          line   318 file /work/zw18965/.conda/envs/p4env/share/psi4/basis/aug-cc-pvqz-jkfit.gbs 

   => Loading Basis Set <=

    Name: AUG-CC-PV(Q+D)Z
    Role: ORBITAL
    Keyword: BASIS
    atoms 1   entry C          line   319 file /work/zw18965/.conda/envs/p4env/share/psi4/basis/aug-cc-pv_qpd_z.gbs 
    atoms 2-3 entry O          line   439 file /work/zw18965/.conda/envs/p4env/share/psi4/basis/aug-cc-pv_qpd_z.gbs 

  Reading orbitals from file 180, no projection.

  ==> Pre-Iterations <==

   -------------------------------------------------------
    Irrep   Nso     Nmo     Nalpha   Nbeta   Ndocc  Nsocc
   -------------------------------------------------------
     Ag        51      51       0       0       0       0
     B1g       19      19       0       0       0       0
     B2g       27      27       0       0       0       0
     B3g       27      27       0       0       0       0
     Au        14      14       0       0       0       0
     B1u       42      42       0       0       0       0
     B2u       30      30       0       0       0       0
     B3u       30      30       0       0       0       0
   -------------------------------------------------------
    Total     240     240      11      11      11       0
   -------------------------------------------------------

  ==> Integral Setup <==

  ==> DiskDFJK: Density-Fitted J/K Matrices <==

    J tasked:                  Yes
    K tasked:                  Yes
    wK tasked:                 Yes
    Omega:               3.000E-01
    OpenMP threads:             24
    Integrals threads:          24
    Memory [MiB]:           102583
    Algorithm:                Core
    Integral Cache:           NONE
    Schwarz Cutoff:          1E-12
    Fitting Condition:       1E-10

   => Auxiliary Basis Set <=

  Basis Set: (AUG-CC-PV(Q+D)Z AUX)
    Blend: AUG-CC-PVQZ-JKFIT
    Number of shells: 102
    Number of basis function: 426
    Number of Cartesian functions: 594
    Spherical Harmonics?: true
    Max angular momentum: 5

  Cached 100.0% of DFT collocation blocks in 0.404 [GiB].

  Minimum eigenvalue in the overlap matrix is 4.7800183747E-05.
  Using Symmetric Orthogonalization.

  SCF Guess: Orbitals guess was supplied from a previous computation.

  ==> Iterations <==

                           Total Energy        Delta E     RMS |[F,P]|

   @DF-RKS iter   0:  -188.61437971023813   -1.88614e+02   2.13059e-04 
   @DF-RKS iter   1:  -188.61144292827058    2.93678e-03   3.76128e-05 DIIS
   @DF-RKS iter   2:  -188.61144312297122   -1.94701e-07   3.82918e-05 DIIS
   @DF-RKS iter   3:  -188.61144680594467   -3.68297e-06   4.32125e-06 DIIS
   @DF-RKS iter   4:  -188.61144685605976   -5.01151e-08   8.01744e-07 DIIS
   @DF-RKS iter   5:  -188.61144685978201   -3.72225e-09   2.30199e-07 DIIS
   @DF-RKS iter   6:  -188.61144686012665   -3.44642e-10   2.67327e-08 DIIS
   @DF-RKS iter   7:  -188.61144686013174   -5.08749e-12   4.97676e-09 DIIS
  Energy and wave function converged.


  ==> Post-Iterations <==

    Orbital Energies [Eh]
    ---------------------

    Doubly Occupied:                                                      

       1B1u  -19.295730     1Ag   -19.295694     2Ag   -10.462580  
       3Ag    -1.300262     2B1u   -1.255741     4Ag    -0.686734  
       1B3u   -0.642178     1B2u   -0.642178     3B1u   -0.639631  
       1B2g   -0.483519     1B3g   -0.483519  

    Virtual:                                                              

       5Ag     0.037280     2B2u    0.066609     2B3u    0.066609  
       4B1u    0.071416     3B3u    0.126569     3B2u    0.126569  
       6Ag     0.128796     2B2g    0.136054     2B3g    0.136054  
       7Ag     0.157404     5B1u    0.194547     4B2u    0.200233  
       4B3u    0.200233     1B1g    0.210824     8Ag     0.210827  
       6B1u    0.244042     9Ag     0.331699     5B3u    0.335851  
       5B2u    0.335851     3B2g    0.367683     3B3g    0.367683  
      10Ag     0.368806     1Au     0.448721     7B1u    0.448722  
       8B1u    0.480513    11Ag     0.540608     2B1g    0.550798  
      12Ag     0.550800     4B2g    0.579477     4B3g    0.579477  
       6B3u    0.601243     6B2u    0.601243     9B1u    0.621041  
      13Ag     0.657725     7B3u    0.706090     7B2u    0.706090  
      14Ag     0.753316     3B1g    0.753318    10B1u    0.791105  
       8B3u    0.806428     8B2u    0.806428    15Ag     0.849235  
       5B3g    0.864552     5B2g    0.864552     2Au     0.922257  
      11B1u    0.922261    12B1u    0.981530    13B1u    1.055089  
       9B3u    1.078446     9B2u    1.078446     6B3g    1.104694  
       6B2g    1.104694    16Ag     1.253976     7B2g    1.277765  
       7B3g    1.277765    14B1u    1.431744     3Au     1.431744  
      17Ag     1.432826    10B3u    1.480297    10B2u    1.480297  
      18Ag     1.487005     4B1g    1.487008    11B3u    1.518837  
      11B2u    1.518837    19Ag     1.567211     5B1g    1.567220  
       8B3g    1.595345     8B2g    1.595345    20Ag     1.597183  
      15B1u    1.605366    16B1u    1.625264    21Ag     1.809838  
       9B3g    1.825420     9B2g    1.825420     4Au     1.827930  
      17B1u    1.827941    12B3u    1.843491    12B2u    1.843491  
      18B1u    1.855760    22Ag     2.003575     6B1g    2.003575  
      23Ag     2.108323     7B1g    2.108326    13B3u    2.112962  
      13B2u    2.112962    14B3u    2.140780    14B2u    2.140780  
      10B3g    2.405621    10B2g    2.405621    11B3g    2.419344  
      11B2g    2.419344    15B2u    2.530461    15B3u    2.530461  
      19B1u    2.579483    24Ag     2.656475     5Au     2.779351  
      20B1u    2.779358    25Ag     2.905658    26Ag     3.030169  
       8B1g    3.030191    12B3g    3.039534    12B2g    3.039534  
      21B1u    3.284504    27Ag     3.356366    22B1u    3.464691  
       6Au     3.464699    13B3g    3.540466    13B2g    3.540466  
      28Ag     3.674148     9B1g    3.674156    29Ag     3.803022  
      14B2g    3.806652    14B3g    3.806652    23B1u    3.822600  
      16B2u    3.862200    16B3u    3.862200     7Au     3.916370  
      24B1u    3.916371    17B3u    3.932113    17B2u    3.932113  
      18B3u    4.023727    18B2u    4.023727    19B2u    4.035416  
      19B3u    4.035416    30Ag     4.052355    10B1g    4.052355  
      31Ag     4.135928    15B3g    4.138331    15B2g    4.138331  
       8Au     4.356187    25B1u    4.356191    11B1g    4.382075  
      32Ag     4.382082    26B1u    4.413632    20B2u    4.456664  
      20B3u    4.456664    33Ag     4.519158    16B3g    4.568039  
      16B2g    4.568039    17B3g    4.668958    17B2g    4.668958  
      27B1u    4.697215    34Ag     4.709590    12B1g    4.709596  
       9Au     5.253068    28B1u    5.253079    21B2u    5.365576  
      21B3u    5.365576    29B1u    5.636340    35Ag     5.644945  
      13B1g    5.644955    36Ag     5.650491    18B2g    5.731685  
      18B3g    5.731685    37Ag     5.918692    19B2g    5.985879  
      19B3g    5.985879    30B1u    6.035280    22B3u    6.131785  
      22B2u    6.131785    23B2u    6.226400    23B3u    6.226400  
      14B1g    6.405002    38Ag     6.405024    10Au     6.711505  
      31B1u    6.711507    32B1u    6.813632    20B3g    6.936270  
      20B2g    6.936270    39Ag     7.389368    15B1g    7.667677  
      40Ag     7.667677    24B2u    8.220195    24B3u    8.220195  
      41Ag     8.686683    21B2g    8.902862    21B3g    8.902862  
      33B1u    9.993552    34B1u   10.192243    11Au    10.192327  
      42Ag    10.276438    16B1g   10.276526    25B2u   10.394359  
      25B3u   10.394359    22B3g   10.573141    22B2g   10.573141  
      12Au    10.692872    35B1u   10.692878    23B3g   10.711799  
      23B2g   10.711799    26B2u   10.885642    26B3u   10.885642  
      24B3g   10.919852    24B2g   10.919852    36B1u   10.957288  
      17B1g   10.980147    43Ag    10.980156    27B2u   11.135481  
      27B3u   11.135481    44Ag    11.273882    25B2g   11.439002  
      25B3g   11.439002    28B3u   11.440294    28B2u   11.440294  
      37B1u   11.631909    13Au    11.939558    38B1u   11.939563  
      45Ag    12.015141    18B1g   12.020155    46Ag    12.020167  
      29B2u   12.103278    29B3u   12.103278    14Au    12.545308  
      39B1u   12.545351    19B1g   12.600389    47Ag    12.600419  
      26B3g   12.662016    26B2g   12.662016    40B1u   13.346775  
      48Ag    13.656554    30B2u   13.673217    30B3u   13.673217  
      49Ag    14.356929    27B2g   15.481232    27B3g   15.481232  
      41B1u   16.229120    50Ag    25.890764    42B1u   42.204158  
      51Ag    42.824414  

    Final Occupation by Irrep:
             Ag   B1g   B2g   B3g    Au   B1u   B2u   B3u 
    DOCC [     4,    0,    1,    1,    0,    3,    1,    1 ]

  @DF-RKS Final Energy:  -188.61144686013174

   => Energetics <=

    Nuclear Repulsion Energy =             58.4476075672762434
    One-Electron Energy =                -372.9355664929662453
    Two-Electron Energy =                 141.8568680200255017
    DFT Exchange-Correlation Energy =     -16.0721237835072550
    Empirical Dispersion Energy =           0.0000000000000000
    VV10 Nonlocal Energy =                  0.0917678290400313
    Total Energy =                       -188.6114468601317355

Computation Completed


Properties will be evaluated at   0.000000,   0.000000,   0.000000 [a0]

Properties computed using the SCF density matrix

  Nuclear Dipole Moment: [e a0]
     X:     0.0000      Y:    -0.0000      Z:     0.0000

  Electronic Dipole Moment: [e a0]
     X:     0.0000      Y:     0.0000      Z:     0.0000

  Dipole Moment: [e a0]
     X:     0.0000      Y:    -0.0000      Z:     0.0000     Total:     0.0000

  Dipole Moment: [D]
     X:     0.0000      Y:    -0.0000      Z:     0.0000     Total:     0.0000


*** tstop() called on bp1-compute00067.data.bp.acrc.priv at Tue Apr 27 16:34:25 2021
Module time:
	user time   =      87.13 seconds =       1.45 minutes
	system time =       2.80 seconds =       0.05 minutes
	total time  =          4 seconds =       0.07 minutes
Total time:
	user time   =     438.00 seconds =       7.30 minutes
	system time =      26.49 seconds =       0.44 minutes
	total time  =         21 seconds =       0.35 minutes

  //>>>>>>>>>>>>>>>>>>>>>>>>>>>>>>>>>>>//
  //    Loading displacement 2 of 3    //
  //<<<<<<<<<<<<<<<<<<<<<<<<<<<<<<<<<<<//

*** tstart() called on bp1-compute00067.data.bp.acrc.priv
*** at Tue Apr 27 16:34:25 2021

   => Loading Basis Set <=

    Name: AUG-CC-PV(Q+D)Z
    Role: ORBITAL
    Keyword: BASIS
    atoms 1   entry C          line   319 file /work/zw18965/.conda/envs/p4env/share/psi4/basis/aug-cc-pv_qpd_z.gbs 
    atoms 2-3 entry O          line   439 file /work/zw18965/.conda/envs/p4env/share/psi4/basis/aug-cc-pv_qpd_z.gbs 


         ---------------------------------------------------------
                                   SCF
               by Justin Turney, Rob Parrish, Andy Simmonett
                          and Daniel G. A. Smith
                              RKS Reference
                       24 Threads, 137329 MiB Core
         ---------------------------------------------------------

  ==> Geometry <==

    Molecular point group: d2h
    Full point group: D_inf_h

    Geometry (in Angstrom), charge = 0, multiplicity = 1:

       Center              X                  Y                   Z               Mass       
    ------------   -----------------  -----------------  -----------------  -----------------
         C           -0.000000000000    -0.000000000000     0.000000000000    12.000000000000
         O            0.000000000000     0.000000000000     1.158427926837    15.994914619570
         O            0.000000000000     0.000000000000    -1.158427926837    15.994914619570

  Running in d2h symmetry.

  Rotational constants: A = ************  B =      0.39269  C =      0.39269 [cm^-1]
  Rotational constants: A = ************  B =  11772.46045  C =  11772.46045 [MHz]
  Nuclear repulsion =   58.471210333035792

  Charge       = 0
  Multiplicity = 1
  Electrons    = 22
  Nalpha       = 11
  Nbeta        = 11

  ==> Algorithm <==

  SCF Algorithm Type is DF.
  DIIS enabled.
  MOM disabled.
  Fractional occupation disabled.
  Guess Type is READ.
  Energy threshold   = 1.00e-08
  Density threshold  = 1.00e-08
  Integral threshold = 0.00e+00

  ==> Primary Basis <==

  Basis Set: AUG-CC-PV(Q+D)Z
    Blend: AUG-CC-PV(Q+D)Z
    Number of shells: 60
    Number of basis function: 240
    Number of Cartesian functions: 315
    Spherical Harmonics?: true
    Max angular momentum: 4

  ==> DFT Potential <==

   => Composite Functional: WB97X-V <= 

    wB97X-V Hyb-GGA Exchange-Correlation Functional

    N. Mardirossian and M. Head-Gordon, Phys. Chem. Chem. Phys. 16, 9904 (2014)

    Deriv               =              1
    GGA                 =           TRUE
    Meta                =          FALSE

    Exchange Hybrid     =           TRUE
    MP2 Hybrid          =          FALSE

   => Exchange-Correlation Functionals <=

    1.0000   wB97X-V range-separated functional

   => Exact (HF) Exchange <=

    0.8330            HF,LR [omega = 0.3000]
    0.1670               HF 

   => VV10 Non-Local Parameters <=

    VV10 B              =     6.0000E+00
    VV10 C              =     1.0000E-02

   => Molecular Quadrature <=

    Radial Scheme          =       TREUTLER
    Pruning Scheme         =           FLAT
    Nuclear Scheme         =       TREUTLER

    BS radius alpha        =              1
    Pruning alpha          =              1
    Radial Points          =             75
    Spherical Points       =            302
    Total Points           =          67950
    Total Blocks           =            593
    Max Points             =            256
    Max Functions          =            240

   => Loading Basis Set <=

    Name: (AUG-CC-PV(Q+D)Z AUX)
    Role: JKFIT
    Keyword: DF_BASIS_SCF
    atoms 1   entry C          line   178 file /work/zw18965/.conda/envs/p4env/share/psi4/basis/aug-cc-pvqz-jkfit.gbs 
    atoms 2-3 entry O          line   318 file /work/zw18965/.conda/envs/p4env/share/psi4/basis/aug-cc-pvqz-jkfit.gbs 

   => Loading Basis Set <=

    Name: AUG-CC-PV(Q+D)Z
    Role: ORBITAL
    Keyword: BASIS
    atoms 1   entry C          line   319 file /work/zw18965/.conda/envs/p4env/share/psi4/basis/aug-cc-pv_qpd_z.gbs 
    atoms 2-3 entry O          line   439 file /work/zw18965/.conda/envs/p4env/share/psi4/basis/aug-cc-pv_qpd_z.gbs 

  Reading orbitals from file 180, no projection.

  ==> Pre-Iterations <==

   -------------------------------------------------------
    Irrep   Nso     Nmo     Nalpha   Nbeta   Ndocc  Nsocc
   -------------------------------------------------------
     Ag        51      51       0       0       0       0
     B1g       19      19       0       0       0       0
     B2g       27      27       0       0       0       0
     B3g       27      27       0       0       0       0
     Au        14      14       0       0       0       0
     B1u       42      42       0       0       0       0
     B2u       30      30       0       0       0       0
     B3u       30      30       0       0       0       0
   -------------------------------------------------------
    Total     240     240      11      11      11       0
   -------------------------------------------------------

  ==> Integral Setup <==

  ==> DiskDFJK: Density-Fitted J/K Matrices <==

    J tasked:                  Yes
    K tasked:                  Yes
    wK tasked:                 Yes
    Omega:               3.000E-01
    OpenMP threads:             24
    Integrals threads:          24
    Memory [MiB]:           102583
    Algorithm:                Core
    Integral Cache:           NONE
    Schwarz Cutoff:          1E-12
    Fitting Condition:       1E-10

   => Auxiliary Basis Set <=

  Basis Set: (AUG-CC-PV(Q+D)Z AUX)
    Blend: AUG-CC-PVQZ-JKFIT
    Number of shells: 102
    Number of basis function: 426
    Number of Cartesian functions: 594
    Spherical Harmonics?: true
    Max angular momentum: 5

  Cached 100.0% of DFT collocation blocks in 0.404 [GiB].

  Minimum eigenvalue in the overlap matrix is 4.7710526381E-05.
  Using Symmetric Orthogonalization.

  SCF Guess: Orbitals guess was supplied from a previous computation.

  ==> Iterations <==

                           Total Energy        Delta E     RMS |[F,P]|

   @DF-RKS iter   0:  -188.61179434523362   -1.88612e+02   2.71141e-05 
   @DF-RKS iter   1:  -188.61144718799818    3.47157e-04   4.74974e-06 DIIS
   @DF-RKS iter   2:  -188.61144719097231   -2.97413e-09   4.82762e-06 DIIS
   @DF-RKS iter   3:  -188.61144724941883   -5.84465e-08   5.43304e-07 DIIS
   @DF-RKS iter   4:  -188.61144725021379   -7.94955e-10   9.95102e-08 DIIS
   @DF-RKS iter   5:  -188.61144725027162   -5.78382e-11   2.90621e-08 DIIS
   @DF-RKS iter   6:  -188.61144725027694   -5.31486e-12   3.37407e-09 DIIS
  Energy and wave function converged.


  ==> Post-Iterations <==

    Orbital Energies [Eh]
    ---------------------

    Doubly Occupied:                                                      

       1B1u  -19.295618     1Ag   -19.295581     2Ag   -10.462354  
       3Ag    -1.300466     2B1u   -1.255950     4Ag    -0.686647  
       1B2u   -0.642344     1B3u   -0.642344     3B1u   -0.639656  
       1B2g   -0.483539     1B3g   -0.483539  

    Virtual:                                                              

       5Ag     0.037303     2B3u    0.066602     2B2u    0.066602  
       4B1u    0.071416     3B3u    0.126886     3B2u    0.126886  
       6Ag     0.128807     2B2g    0.136053     2B3g    0.136053  
       7Ag     0.157486     5B1u    0.194553     4B3u    0.200221  
       4B2u    0.200221     1B1g    0.210821     8Ag     0.210824  
       6B1u    0.244037     9Ag     0.331887     5B3u    0.335895  
       5B2u    0.335895     3B2g    0.367680     3B3g    0.367680  
      10Ag     0.368962     1Au     0.448708     7B1u    0.448709  
       8B1u    0.480533    11Ag     0.540731     2B1g    0.550771  
      12Ag     0.550772     4B2g    0.579567     4B3g    0.579567  
       6B2u    0.601161     6B3u    0.601161     9B1u    0.621006  
      13Ag     0.657864     7B3u    0.706090     7B2u    0.706090  
      14Ag     0.753344     3B1g    0.753347    10B1u    0.791235  
       8B3u    0.806449     8B2u    0.806449    15Ag     0.849273  
       5B2g    0.864501     5B3g    0.864501     2Au     0.922286  
      11B1u    0.922290    12B1u    0.981495    13B1u    1.056210  
       9B3u    1.078482     9B2u    1.078482     6B2g    1.105090  
       6B3g    1.105090    16Ag     1.253981     7B2g    1.277769  
       7B3g    1.277769    14B1u    1.431771     3Au     1.431771  
      17Ag     1.433060    10B3u    1.480347    10B2u    1.480347  
      18Ag     1.487034     4B1g    1.487037    11B3u    1.518981  
      11B2u    1.518981    19Ag     1.567043     5B1g    1.567053  
       8B2g    1.595352     8B3g    1.595352    20Ag     1.597315  
      15B1u    1.605698    16B1u    1.625057    21Ag     1.809791  
       9B2g    1.825473     9B3g    1.825473     4Au     1.827972  
      17B1u    1.827983    12B3u    1.843162    12B2u    1.843162  
      18B1u    1.855763    22Ag     2.003592     6B1g    2.003593  
      23Ag     2.108790     7B1g    2.108794    13B2u    2.113048  
      13B3u    2.113048    14B3u    2.141406    14B2u    2.141406  
      10B3g    2.405392    10B2g    2.405392    11B3g    2.419554  
      11B2g    2.419554    15B3u    2.531064    15B2u    2.531064  
      19B1u    2.579678    24Ag     2.657213     5Au     2.779836  
      20B1u    2.779843    25Ag     2.905876    26Ag     3.030312  
       8B1g    3.030334    12B2g    3.040171    12B3g    3.040171  
      21B1u    3.283936    27Ag     3.357008    22B1u    3.464680  
       6Au     3.464688    13B2g    3.540541    13B3g    3.540541  
      28Ag     3.674444     9B1g    3.674452    29Ag     3.803048  
      14B3g    3.806637    14B2g    3.806637    23B1u    3.823129  
      16B3u    3.862511    16B2u    3.862511     7Au     3.916445  
      24B1u    3.916446    17B2u    3.932564    17B3u    3.932564  
      18B2u    4.024136    18B3u    4.024136    19B3u    4.035568  
      19B2u    4.035568    30Ag     4.052413    10B1g    4.052414  
      31Ag     4.136542    15B3g    4.138950    15B2g    4.138950  
       8Au     4.356322    25B1u    4.356327    11B1g    4.382645  
      32Ag     4.382651    26B1u    4.413926    20B3u    4.456436  
      20B2u    4.456436    33Ag     4.520102    16B3g    4.568706  
      16B2g    4.568706    17B3g    4.667930    17B2g    4.667930  
      27B1u    4.698783    34Ag     4.709670    12B1g    4.709675  
       9Au     5.253533    28B1u    5.253544    21B3u    5.367079  
      21B2u    5.367079    29B1u    5.634461    35Ag     5.644963  
      13B1g    5.644973    36Ag     5.651624    18B2g    5.732747  
      18B3g    5.732747    37Ag     5.917679    19B2g    5.986691  
      19B3g    5.986691    30B1u    6.037216    22B2u    6.131823  
      22B3u    6.131823    23B3u    6.227230    23B2u    6.227230  
      14B1g    6.405895    38Ag     6.405917    10Au     6.713265  
      31B1u    6.713267    32B1u    6.815066    20B2g    6.937846  
      20B3g    6.937846    39Ag     7.392142    15B1g    7.669514  
      40Ag     7.669514    24B3u    8.222676    24B2u    8.222676  
      41Ag     8.689512    21B2g    8.901985    21B3g    8.901985  
      33B1u    9.995624    34B1u   10.192232    11Au    10.192317  
      42Ag    10.276568    16B1g   10.276656    25B2u   10.394651  
      25B3u   10.394651    22B2g   10.573474    22B3g   10.573474  
      12Au    10.693365    35B1u   10.693371    23B3g   10.712245  
      23B2g   10.712245    26B3u   10.886145    26B2u   10.886145  
      24B3g   10.920214    24B2g   10.920214    36B1u   10.956423  
      17B1g   10.981259    43Ag    10.981268    27B3u   11.136305  
      27B2u   11.136305    44Ag    11.275478    25B2g   11.439360  
      25B3g   11.439360    28B3u   11.440395    28B2u   11.440395  
      37B1u   11.632008    13Au    11.940561    38B1u   11.940566  
      45Ag    12.016190    18B1g   12.019715    46Ag    12.019727  
      29B3u   12.102765    29B2u   12.102765    14Au    12.545750  
      39B1u   12.545793    19B1g   12.602300    47Ag    12.602331  
      26B2g   12.664468    26B3g   12.664468    40B1u   13.349321  
      48Ag    13.657520    30B3u   13.677165    30B2u   13.677165  
      49Ag    14.357147    27B2g   15.485152    27B3g   15.485152  
      41B1u   16.235746    50Ag    25.896965    42B1u   42.204561  
      51Ag    42.833373  

    Final Occupation by Irrep:
             Ag   B1g   B2g   B3g    Au   B1u   B2u   B3u 
    DOCC [     4,    0,    1,    1,    0,    3,    1,    1 ]

  @DF-RKS Final Energy:  -188.61144725027694

   => Energetics <=

    Nuclear Repulsion Energy =             58.4712103330357920
    One-Electron Energy =                -372.9817456177827353
    Two-Electron Energy =                 141.8802065739423028
    DFT Exchange-Correlation Energy =     -16.0728861927893938
    Empirical Dispersion Energy =           0.0000000000000000
    VV10 Nonlocal Energy =                  0.0917676533170674
    Total Energy =                       -188.6114472502769388

Computation Completed


Properties will be evaluated at   0.000000,   0.000000,   0.000000 [a0]

Properties computed using the SCF density matrix

  Nuclear Dipole Moment: [e a0]
     X:     0.0000      Y:    -0.0000      Z:     0.0000

  Electronic Dipole Moment: [e a0]
     X:     0.0000      Y:     0.0000      Z:     0.0000

  Dipole Moment: [e a0]
     X:     0.0000      Y:    -0.0000      Z:     0.0000     Total:     0.0000

  Dipole Moment: [D]
     X:     0.0000      Y:    -0.0000      Z:     0.0000     Total:     0.0000


*** tstop() called on bp1-compute00067.data.bp.acrc.priv at Tue Apr 27 16:34:30 2021
Module time:
	user time   =      88.48 seconds =       1.47 minutes
	system time =       4.03 seconds =       0.07 minutes
	total time  =          5 seconds =       0.08 minutes
Total time:
	user time   =     526.62 seconds =       8.78 minutes
	system time =      30.53 seconds =       0.51 minutes
	total time  =         26 seconds =       0.43 minutes

  //>>>>>>>>>>>>>>>>>>>>>>>>>>>>>>>>>>>//
  //    Loading displacement 3 of 3    //
  //<<<<<<<<<<<<<<<<<<<<<<<<<<<<<<<<<<<//

*** tstart() called on bp1-compute00067.data.bp.acrc.priv
*** at Tue Apr 27 16:34:30 2021

   => Loading Basis Set <=

    Name: AUG-CC-PV(Q+D)Z
    Role: ORBITAL
    Keyword: BASIS
    atoms 1   entry C          line   319 file /work/zw18965/.conda/envs/p4env/share/psi4/basis/aug-cc-pv_qpd_z.gbs 
    atoms 2-3 entry O          line   439 file /work/zw18965/.conda/envs/p4env/share/psi4/basis/aug-cc-pv_qpd_z.gbs 


         ---------------------------------------------------------
                                   SCF
               by Justin Turney, Rob Parrish, Andy Simmonett
                          and Daniel G. A. Smith
                              RKS Reference
                       24 Threads, 137329 MiB Core
         ---------------------------------------------------------

  ==> Geometry <==

    Molecular point group: d2h
    Full point group: D_inf_h

    Geometry (in Angstrom), charge = 0, multiplicity = 1:

       Center              X                  Y                   Z               Mass       
    ------------   -----------------  -----------------  -----------------  -----------------
         C           -0.000000000000    -0.000000000000     0.000000000000    12.000000000000
         O            0.000000000000     0.000000000000     1.159363537520    15.994914619570
         O            0.000000000000     0.000000000000    -1.159363537520    15.994914619570

  Running in d2h symmetry.

  Rotational constants: A = ************  B =      0.39205  C =      0.39205 [cm^-1]
  Rotational constants: A = ************  B =  11753.46728  C =  11753.46728 [MHz]
  Nuclear repulsion =   58.424023849036367

  Charge       = 0
  Multiplicity = 1
  Electrons    = 22
  Nalpha       = 11
  Nbeta        = 11

  ==> Algorithm <==

  SCF Algorithm Type is DF.
  DIIS enabled.
  MOM disabled.
  Fractional occupation disabled.
  Guess Type is READ.
  Energy threshold   = 1.00e-08
[...]

  ==> Primary Basis <==

  Basis Set: AUG-CC-PV(Q+D)Z
    Blend: AUG-CC-PV(Q+D)Z
    Number of shells: 60
    Number of basis function: 240
    Number of Cartesian functions: 315
    Spherical Harmonics?: true
    Max angular momentum: 4

  ==> DFT Potential <==

   => Composite Functional: WB97X-V <= 

    wB97X-V Hyb-GGA Exchange-Correlation Functional

    N. Mardirossian and M. Head-Gordon, Phys. Chem. Chem. Phys. 16, 9904 (2014)

    Deriv               =              1
    GGA                 =           TRUE
    Meta                =          FALSE

    Exchange Hybrid     =           TRUE
    MP2 Hybrid          =          FALSE

   => Exchange-Correlation Functionals <=

    1.0000   wB97X-V range-separated functional

   => Exact (HF) Exchange <=

    0.8330            HF,LR [omega = 0.3000]
    0.1670               HF 

   => VV10 Non-Local Parameters <=

    VV10 B              =     6.0000E+00
    VV10 C              =     1.0000E-02

   => Molecular Quadrature <=

    Radial Scheme          =       TREUTLER
    Pruning Scheme         =           FLAT
    Nuclear Scheme         =       TREUTLER

    BS radius alpha        =              1
    Pruning alpha          =              1
    Radial Points          =             75
    Spherical Points       =            302
    Total Points           =          67950
    Total Blocks           =            595
    Max Points             =            255
    Max Functions          =            240

   => Loading Basis Set <=

    Name: (AUG-CC-PV(Q+D)Z AUX)
    Role: JKFIT
    Keyword: DF_BASIS_SCF
    atoms 1   entry C          line   178 file /work/zw18965/.conda/envs/p4env/share/psi4/basis/aug-cc-pvqz-jkfit.gbs 
    atoms 2-3 entry O          line   318 file /work/zw18965/.conda/envs/p4env/share/psi4/basis/aug-cc-pvqz-jkfit.gbs 

  ==> Pre-Iterations <==

   -------------------------------------------------------
    Irrep   Nso     Nmo     Nalpha   Nbeta   Ndocc  Nsocc
   -------------------------------------------------------
     A1        81      81       0       0       0       0
     A2        41      41       0       0       0       0
     B1        49      49       0       0       0       0
     B2        69      69       0       0       0       0
   -------------------------------------------------------
    Total     240     240      11      11      11       0
   -------------------------------------------------------

  ==> Integral Setup <==

  ==> DiskDFJK: Density-Fitted J/K Matrices <==

    J tasked:                  Yes
    K tasked:                  Yes
    wK tasked:                 Yes
    Omega:               3.000E-01
    OpenMP threads:             24
    Integrals threads:          24
    Memory [MiB]:           102583
    Algorithm:                Core
    Integral Cache:           NONE
    Schwarz Cutoff:          1E-12
    Fitting Condition:       1E-10

   => Auxiliary Basis Set <=

  Basis Set: (AUG-CC-PV(Q+D)Z AUX)
    Blend: AUG-CC-PVQZ-JKFIT
    Number of shells: 102
    Number of basis function: 426
    Number of Cartesian functions: 594
    Spherical Harmonics?: true
    Max angular momentum: 5

  Cached 100.0% of DFT collocation blocks in 0.404 [GiB].

  Minimum eigenvalue in the overlap matrix is 4.7735681080E-05.
  Using Symmetric Orthogonalization.

  SCF Guess: Superposition of Atomic Densities via on-the-fly atomic UHF.

  ==> Iterations <==

                           Total Energy        Delta E     RMS |[F,P]|

   @DF-RKS iter SAD:  -187.91405393596725   -1.87914e+02   0.00000e+00 
   @DF-RKS iter   1:  -188.49715708005979   -5.83103e-01   4.89620e-03 DIIS
   @DF-RKS iter   2:  -188.46447050468754    3.26866e-02   5.60736e-03 DIIS
   @DF-RKS iter   3:  -188.61107473841295   -1.46604e-01   2.48264e-04 DIIS
   @DF-RKS iter   4:  -188.61142644804596   -3.51710e-04   5.99273e-05 DIIS
   @DF-RKS iter   5:  -188.61144681029515   -2.03622e-05   5.10478e-06 DIIS
   @DF-RKS iter   6:  -188.61144709441524   -2.84120e-07   1.12195e-06 DIIS
   @DF-RKS iter   7:  -188.61144710764890   -1.32337e-08   1.82372e-07 DIIS
   @DF-RKS iter   8:  -188.61144710803836   -3.89463e-10   1.82610e-08 DIIS
   @DF-RKS iter   9:  -188.61144710804263   -4.26326e-12   2.50784e-09 DIIS
   @DF-RKS iter  10:  -188.61144710804288   -2.55795e-13   2.23796e-10 DIIS
   @DF-RKS iter  11:  -188.61144710804280    8.52651e-14   3.46215e-11 DIIS
  Energy and wave function converged.


  ==> Post-Iterations <==

    Orbital Energies [Eh]
    ---------------------

    Doubly Occupied:                                                      

       1B2   -19.295649     1A1   -19.295612     2A1   -10.462417  
       3A1    -1.300410     2B2    -1.255892     4A1    -0.686671  
       1B1    -0.642298     5A1    -0.642298     3B2    -0.639649  
       1A2    -0.483534     4B2    -0.483534  

    Virtual:                                                              

       6A1     0.037296     2B1     0.066604     7A1     0.066604  
       5B2     0.071416     8A1     0.126790     3B1     0.126798  
       9A1     0.128811     6B2     0.136053     2A2     0.136053  
      10A1     0.157465     7B2     0.194552     4B1     0.200224  
      11A1     0.200224     5B1     0.210822    12A1     0.210825  
       8B2     0.244038    13A1     0.331835     6B1     0.335883  
      14A1     0.335883     9B2     0.367680     3A2     0.367680  
      15A1     0.368919     4A2     0.448712    10B2     0.448713  
      11B2     0.480528    16A1     0.540697     7B1     0.550778  
      17A1     0.550780    12B2     0.579542     5A2     0.579542  
       8B1     0.601183    18A1     0.601184    13B2     0.621016  
      19A1     0.657825     9B1     0.706090    20A1     0.706090  
      21A1     0.753336    10B1     0.753339    14B2     0.791199  
      22A1     0.806443    11B1     0.806443    23A1     0.849263  
      15B2     0.864513     6A2     0.864514     7A2     0.922278  
      16B2     0.922282    17B2     0.981506    18B2     1.055889  
      24A1     1.078471    12B1     1.078472     8A2     1.104980  
      19B2     1.104990    25A1     1.253980    20B2     1.277769  
       9A2     1.277769    21B2     1.431764    10A2     1.431764  
      26A1     1.432995    13B1     1.480333    27A1     1.480333  
      28A1     1.487026    14B1     1.487029    29A1     1.518938  
      15B1     1.518938    30A1     1.567094    16B1     1.567104  
      22B2     1.595350    11A2     1.595350    31A1     1.597280  
      23B2     1.605605    24B2     1.625114    32A1     1.809804  
      25B2     1.825455    12A2     1.825455    13A2     1.827962  
      26B2     1.827973    17B1     1.843254    33A1     1.843254  
      27B2     1.855761    34A1     2.003588    18B1     2.003589  
      35A1     2.108621    19B1     2.108625    36A1     2.113043  
      20B1     2.113043    37A1     2.141251    21B1     2.141252  
      14A2     2.405456    28B2     2.405458    15A2     2.419494  
      29B2     2.419494    38A1     2.530890    22B1     2.530896  
      30B2     2.579624    39A1     2.657015    16A2     2.779702  
      31B2     2.779709    40A1     2.905817    41A1     3.030271  
      23B1     3.030292    32B2     3.039993    17A2     3.039994  
      33B2     3.284095    42A1     3.356829    34B2     3.464683  
      18A2     3.464691    19A2     3.540521    35B2     3.540521  
      43A1     3.674361    24B1     3.674369    44A1     3.803040  
      36B2     3.806642    20A2     3.806642    37B2     3.822982  
      25B1     3.862424    45A1     3.862424    21A2     3.916424  
      38B2     3.916425    46A1     3.932441    26B1     3.932441  
      47A1     4.024022    27B1     4.024022    28B1     4.035525  
      48A1     4.035526    49A1     4.052398    29B1     4.052399  
      50A1     4.136372    22A2     4.138779    39B2     4.138779  
      23A2     4.356283    40B2     4.356288    30B1     4.382488  
      51A1     4.382494    41B2     4.413844    52A1     4.456487  
      31B1     4.456499    53A1     4.519851    42B2     4.568517  
      24A2     4.568517    43B2     4.668207    25A2     4.668216  
      44B2     4.698357    54A1     4.709650    32B1     4.709656  
      26A2     5.253406    45B2     5.253416    55A1     5.366660  
      33B1     5.366662    46B2     5.634977    56A1     5.644959  
      34B1     5.644968    57A1     5.651314    47B2     5.732447  
      27A2     5.732449    58A1     5.917962    28A2     5.986466  
      48B2     5.986466    49B2     6.036677    35B1     6.131812  
      59A1     6.131812    60A1     6.226998    36B1     6.226998  
      37B1     6.405647    61A1     6.405669    29A2     6.712775  
      50B2     6.712777    51B2     6.814671    30A2     6.937412  
      52B2     6.937415    62A1     7.391370    38B1     7.669000  
      63A1     7.669001    64A1     8.221985    39B1     8.221987  
      65A1     8.688728    53B2     8.902223    31A2     8.902227  
      54B2     9.995044    55B2    10.192235    32A2    10.192320  
      66A1    10.276532    40B1    10.276619    41B1    10.394572  
      67A1    10.394572    33A2    10.573382    56B2    10.573385  
      34A2    10.693229    57B2    10.693235    58B2    10.712119  
      35A2    10.712119    42B1    10.886002    68A1    10.886002  
      59B2    10.920105    36A2    10.920111    60B2    10.956675  
      43B1    10.980949    69A1    10.980959    44B1    11.136077  
      70A1    11.136078    71A1    11.275034    61B2    11.439260  
      37A2    11.439260    72A1    11.440368    45B1    11.440368  
      62B2    11.631978    38A2    11.940286    63B2    11.940291  
      73A1    12.015882    46B1    12.019827    74A1    12.019839  
      47B1    12.102916    75A1    12.102931    39A2    12.545626  
      64B2    12.545670    48B1    12.601766    76A1    12.601796  
      65B2    12.663786    40A2    12.663787    66B2    13.348620  
      77A1    13.657189    49B1    13.676071    78A1    13.676141  
      79A1    14.357082    67B2    15.484035    41A2    15.484051  
      68B2    16.233895    80A1    25.895244    69B2    42.204454  
      81A1    42.830877  

    Final Occupation by Irrep:
             A1    A2    B1    B2 
    DOCC [     5,    1,    1,    4 ]

  @DF-RKS Final Energy:  -188.61144710804280

   => Energetics <=

    Nuclear Repulsion Energy =             58.4646569629811665
    One-Electron Energy =                -372.9689254586995730
    Two-Electron Energy =                 141.8737281192742898
    DFT Exchange-Correlation Energy =     -16.0726744330782125
    Empirical Dispersion Energy =           0.0000000000000000
    VV10 Nonlocal Energy =                  0.0917677014795303
    Total Energy =                       -188.6114471080427961

Computation Completed


Properties will be evaluated at   0.000000,   0.000000,   0.000000 [a0]

Properties computed using the SCF density matrix

  Nuclear Dipole Moment: [e a0]
     X:     0.0000      Y:     0.0000      Z:     0.0000

  Electronic Dipole Moment: [e a0]
     X:    -0.0009      Y:     0.0000      Z:     0.0000

  Dipole Moment: [e a0]
     X:    -0.0009      Y:     0.0000      Z:     0.0000     Total:     0.0009

  Dipole Moment: [D]
     X:    -0.0023      Y:     0.0000      Z:     0.0000     Total:     0.0023


*** tstop() called on bp1-compute00067.data.bp.acrc.priv at Tue Apr 27 16:35:39 2021
Module time:
	user time   =     130.79 seconds =       2.18 minutes
	system time =       4.10 seconds =       0.07 minutes
	total time  =          6 seconds =       0.10 minutes
Total time:
	user time   =    1985.55 seconds =      33.09 minutes
	system time =      91.58 seconds =       1.53 minutes
	total time  =         95 seconds =       1.58 minutes

         ----------------------------------------------------------
                                   FINDIF
                     R. A. King and Jonathon Misiewicz
         ---------------------------------------------------------

  Computing second-derivative from energies using projected, 
  symmetry-adapted, cartesian coordinates.

  6 energies passed in, including the reference geometry.
    Using 3-point formula.
    Energy without displacement: -188.6114473251
    Check energies below for precision!
    0: -1 :      -188.6114463937
    0: 1  :      -188.6114464268
    1: -1 :      -188.6114445401
    2: -1 :      -188.6114471103
    3: -1 :      -188.6114471080

-------------------------------------------------------------


  ==> Harmonic Vibrational Analysis <==

  non-mass-weighted Hessian:       Symmetric? True   Hermitian? True   Lin Dep Dim?  5 (0)
  projection of translations (True) and rotations (True) removed 5 degrees of freedom (5)
  total projector:                 Symmetric? True   Hermitian? True   Lin Dep Dim?  5 (5)
  mass-weighted Hessian:           Symmetric? True   Hermitian? True   Lin Dep Dim?  5 (0)
  pre-proj  low-frequency mode:    0.0000i [cm^-1]
  pre-proj  low-frequency mode:    0.0000i [cm^-1]
  pre-proj  low-frequency mode:    0.0000  [cm^-1]
  pre-proj  low-frequency mode:    0.0000  [cm^-1]
  pre-proj  low-frequency mode:    0.0000  [cm^-1]
  pre-proj  all modes:['0.0000i' '0.0000i' '0.0000' '0.0000' '0.0000' '673.8613' '677.3866'
 '1390.6876' '2426.4154']
  projected mass-weighted Hessian: Symmetric? True   Hermitian? True   Lin Dep Dim?  5 (5)
  post-proj low-frequency mode:    0.0000i [cm^-1] (TR)
  post-proj low-frequency mode:    0.0000  [cm^-1] (TR)
  post-proj low-frequency mode:    0.0000  [cm^-1] (TR)
  post-proj low-frequency mode:    0.0000  [cm^-1] (TR)
  post-proj low-frequency mode:    0.0000  [cm^-1] (TR)
  post-proj  all modes:['0.0000i' '0.0000' '0.0000' '0.0000' '0.0000' '673.8613' '677.3866'
 '1390.6876' '2426.4154']

  Vibration                       6                   7                   8           
  Freq [cm^-1]                 673.8613            677.3866           1390.6876       
  Irrep                          B2u                 B3u                  Ag          
  Reduced mass [u]             12.8774             12.8774             15.9949        
  Force const [mDyne/A]         3.4452              3.4814             18.2260        
  Turning point v=0 [a0]        0.1178              0.1175              0.0736        
  RMS dev v=0 [a0 u^1/2]        0.2989              0.2981              0.2081        
  Char temp [K]                969.5363            974.6085           2000.8898       
  ----------------------------------------------------------------------------------
      1   C               -0.00  0.88  0.00    0.88  0.00 -0.00    0.00 -0.00  0.00   
      2   O               -0.00 -0.33 -0.00   -0.33  0.00  0.00   -0.00 -0.00  0.71   
      3   O               -0.00 -0.33 -0.00   -0.33  0.00  0.00    0.00 -0.00 -0.71   

  Vibration                       9           
  Freq [cm^-1]                2426.4154       
  Irrep                          B1u          
  Reduced mass [u]             12.8774        
  Force const [mDyne/A]        44.6691        
  Turning point v=0 [a0]        0.0621        
  RMS dev v=0 [a0 u^1/2]        0.1575        
  Char temp [K]               3491.0716       
  ----------------------------------------------------------------------------------
      1   C                0.00  0.00  0.88   
      2   O               -0.00  0.00 -0.33   
      3   O                0.00  0.00 -0.33   

  ==> Thermochemistry Components <==

  Entropy, S
    Electronic S            0.000 [cal/(mol K)]        0.000 [J/(mol K)]       0.00000000 [mEh/K] (multiplicity = 1)
    Translational S        37.270 [cal/(mol K)]      155.938 [J/(mol K)]       0.05939371 [mEh/K] (mol. weight = 43.9898 [u], P = 101325.00 [Pa])
    Rotational S           13.067 [cal/(mol K)]       54.673 [J/(mol K)]       0.02082375 [mEh/K] (symmetry no. = 2)
    Vibrational S           0.692 [cal/(mol K)]        2.893 [J/(mol K)]       0.00110202 [mEh/K]
  Total S                  51.029 [cal/(mol K)]      213.504 [J/(mol K)]       0.08131948 [mEh/K]
  Correction S              0.000 [cal/(mol K)]        0.000 [J/(mol K)]       0.00000000 [mEh/K]

  Constant volume heat capacity, Cv
    Electronic Cv           0.000 [cal/(mol K)]        0.000 [J/(mol K)]       0.00000000 [mEh/K]
    Translational Cv        2.981 [cal/(mol K)]       12.472 [J/(mol K)]       0.00475022 [mEh/K]
    Rotational Cv           1.987 [cal/(mol K)]        8.314 [J/(mol K)]       0.00316681 [mEh/K]
    Vibrational Cv          1.865 [cal/(mol K)]        7.802 [J/(mol K)]       0.00297158 [mEh/K]
  Total Cv                  6.833 [cal/(mol K)]       28.588 [J/(mol K)]       0.01088861 [mEh/K]
  Correction Cv             0.000 [cal/(mol K)]        0.000 [J/(mol K)]       0.00000000 [mEh/K]

  Constant pressure heat capacity, Cp
    Electronic Cp           0.000 [cal/(mol K)]        0.000 [J/(mol K)]       0.00000000 [mEh/K]
    Translational Cp        4.968 [cal/(mol K)]       20.786 [J/(mol K)]       0.00791703 [mEh/K]
    Rotational Cp           1.987 [cal/(mol K)]        8.314 [J/(mol K)]       0.00316681 [mEh/K]
    Vibrational Cp          1.865 [cal/(mol K)]        7.802 [J/(mol K)]       0.00297158 [mEh/K]
  Total Cp                  8.820 [cal/(mol K)]       36.903 [J/(mol K)]       0.01405542 [mEh/K]
  Correction Cp             0.000 [cal/(mol K)]        0.000 [J/(mol K)]       0.00000000 [mEh/K]

  ==> Thermochemistry Energy Analysis <==

  Raw electronic energy, E0
  Total E0, Electronic energy at well bottom at 0 [K]                 -188.61144733 [Eh]

  Zero-point energy, ZPE_vib = Sum_i nu_i / 2
    Electronic ZPE          0.000 [kcal/mol]        0.000 [kJ/mol]       0.00000000 [Eh]
    Translational ZPE       0.000 [kcal/mol]        0.000 [kJ/mol]       0.00000000 [Eh]
    Rotational ZPE          0.000 [kcal/mol]        0.000 [kJ/mol]       0.00000000 [Eh]
    Vibrational ZPE         7.389 [kcal/mol]       30.914 [kJ/mol]       0.01177437 [Eh]        2584.175 [cm^-1]
  Correction ZPE            7.389 [kcal/mol]       30.914 [kJ/mol]       0.01177437 [Eh]        2584.175 [cm^-1]
  Total ZPE, Electronic energy at 0 [K]                               -188.59967296 [Eh]

  Thermal Energy, E (includes ZPE)
    Electronic E            0.000 [kcal/mol]        0.000 [kJ/mol]       0.00000000 [Eh]
    Translational E         0.889 [kcal/mol]        3.718 [kJ/mol]       0.00141628 [Eh]
    Rotational E            0.592 [kcal/mol]        2.479 [kJ/mol]       0.00094418 [Eh]
    Vibrational E           7.548 [kcal/mol]       31.579 [kJ/mol]       0.01202788 [Eh]
  Correction E              9.029 [kcal/mol]       37.777 [kJ/mol]       0.01438834 [Eh]
  Total E, Electronic energy at  298.15 [K]                           -188.59705898 [Eh]

  Enthalpy, H_trans = E_trans + k_B * T
    Electronic H            0.000 [kcal/mol]        0.000 [kJ/mol]       0.00000000 [Eh]
    Translational H         1.481 [kcal/mol]        6.197 [kJ/mol]       0.00236046 [Eh]
    Rotational H            0.592 [kcal/mol]        2.479 [kJ/mol]       0.00094418 [Eh]
    Vibrational H           7.548 [kcal/mol]       31.579 [kJ/mol]       0.01202788 [Eh]
  Correction H              9.621 [kcal/mol]       40.256 [kJ/mol]       0.01533253 [Eh]
  Total H, Enthalpy at  298.15 [K]                                    -188.59611480 [Eh]

  Gibbs free energy, G = H - T * S
    Electronic G            0.000 [kcal/mol]        0.000 [kJ/mol]       0.00000000 [Eh]
    Translational G        -9.631 [kcal/mol]      -40.296 [kJ/mol]      -0.01534777 [Eh]
    Rotational G           -3.303 [kcal/mol]      -13.822 [kJ/mol]      -0.00526442 [Eh]
    Vibrational G           7.341 [kcal/mol]       30.717 [kJ/mol]       0.01169932 [Eh]
  Correction G             -5.593 [kcal/mol]      -23.401 [kJ/mol]      -0.00891288 [Eh]
  Total G, Free enthalpy at  298.15 [K]                               -188.62036020 [Eh]

    Psi4 stopped on: Tuesday, 27 April 2021 04:35PM
    Psi4 wall time for execution: 0:01:35.47

*** Psi4 exiting successfully. Buy a developer a beer!
