
    -----------------------------------------------------------------------
          Psi4: An Open-Source Ab Initio Electronic Structure Package
                               Psi4 1.3.2 release

                         Git: Rev {HEAD} ecbda83 


    R. M. Parrish, L. A. Burns, D. G. A. Smith, A. C. Simmonett,
    A. E. DePrince III, E. G. Hohenstein, U. Bozkaya, A. Yu. Sokolov,
    R. Di Remigio, R. M. Richard, J. F. Gonthier, A. M. James,
    H. R. McAlexander, A. Kumar, M. Saitow, X. Wang, B. P. Pritchard,
    P. Verma, H. F. Schaefer III, K. Patkowski, R. A. King, E. F. Valeev,
    F. A. Evangelista, J. M. Turney, T. D. Crawford, and C. D. Sherrill,
    J. Chem. Theory Comput. 13(7) pp 3185--3197 (2017).
    (doi: 10.1021/acs.jctc.7b00174)


                         Additional Contributions by
    P. Kraus, H. Kruse, M. H. Lechner, M. C. Schieber, R. A. Shaw,
    A. Alenaizan, R. Galvelis, Z. L. Glick, S. Lehtola, and J. P. Misiewicz

    -----------------------------------------------------------------------


    Psi4 started on: Tuesday, 27 April 2021 04:34PM

    Process ID: 63282
    Host:       bp1-compute00065.data.bp.acrc.priv
    PSIDATADIR: /work/zw18965/.conda/envs/p4env/share/psi4
    Memory:     500.0 MiB
    Threads:    24
    
  ==> Input File <==

--------------------------------------------------------------------------
memory 144 GB

molecule {
0 1
C 0.0000000000 0.0000000000 0.0000000000
O 0.0000000000 0.0000000000 1.1314000000
}

set dynamic_level 1
set basis aug-cc-pV(Q+d)Z
 
optimize("wB97X-V")
frequencies("wB97X-V")
--------------------------------------------------------------------------

  Memory set to 134.110 GiB by Python driver.
gradient() will perform gradient computation by finite difference of analytic energies.

         ----------------------------------------------------------
                                   FINDIF
                     R. A. King and Jonathon Misiewicz
         ---------------------------------------------------------

  Using finite-differences of energies to determine gradients.
    Generating geometries for use with 3-point formula.
    Displacement size will be 5.00e-03.
    Number of atoms is 2.
    Number of symmetric SALCs is 1.
    Translations projected? 1. Rotations projected? 1.
    Number of geometries (including reference) is 3.

  //>>>>>>>>>>>>>>>>>>>>>>>>>>>>>>>>>>>//
  //    Loading displacement 1 of 3    //
  //<<<<<<<<<<<<<<<<<<<<<<<<<<<<<<<<<<<//

*** tstart() called on bp1-compute00065.data.bp.acrc.priv
*** at Tue Apr 27 16:34:00 2021

   => Loading Basis Set <=

    Name: AUG-CC-PV(Q+D)Z
    Role: ORBITAL
    Keyword: BASIS
    atoms 1 entry C          line   319 file /work/zw18965/.conda/envs/p4env/share/psi4/basis/aug-cc-pv_qpd_z.gbs 
    atoms 2 entry O          line   439 file /work/zw18965/.conda/envs/p4env/share/psi4/basis/aug-cc-pv_qpd_z.gbs 


         ---------------------------------------------------------
                                   SCF
               by Justin Turney, Rob Parrish, Andy Simmonett
                          and Daniel G. A. Smith
                              RKS Reference
                       24 Threads, 137329 MiB Core
         ---------------------------------------------------------

  ==> Geometry <==

    Molecular point group: c2v
    Full point group: C_inf_v

    Geometry (in Angstrom), charge = 0, multiplicity = 1:

       Center              X                  Y                   Z               Mass       
    ------------   -----------------  -----------------  -----------------  -----------------
         C            0.000000000000     0.000000000000    -0.646426204420    12.000000000000
         O            0.000000000000     0.000000000000     0.484973795580    15.994914619570

  Running in c2v symmetry.

  Rotational constants: A = ************  B =      1.92079  C =      1.92079 [cm^-1]
  Rotational constants: A = ************  B =  57583.86692  C =  57583.86692 [MHz]
  Nuclear repulsion =   22.450509202899067

  Charge       = 0
  Multiplicity = 1
  Electrons    = 14
  Nalpha       = 7
  Nbeta        = 7

  ==> Algorithm <==

  SCF Algorithm Type is DF.
  DIIS enabled.
  MOM disabled.
  Fractional occupation disabled.
  Guess Type is SAD.
  Energy threshold   = 1.00e-08
  Density threshold  = 1.00e-08
  Integral threshold = 0.00e+00

  ==> Primary Basis <==

  Basis Set: AUG-CC-PV(Q+D)Z
    Blend: AUG-CC-PV(Q+D)Z
    Number of shells: 40
    Number of basis function: 160
    Number of Cartesian functions: 210
    Spherical Harmonics?: true
    Max angular momentum: 4

  ==> DFT Potential <==

   => Composite Functional: WB97X-V <= 

    wB97X-V Hyb-GGA Exchange-Correlation Functional

    N. Mardirossian and M. Head-Gordon, Phys. Chem. Chem. Phys. 16, 9904 (2014)

    Deriv               =              1
    GGA                 =           TRUE
    Meta                =          FALSE

    Exchange Hybrid     =           TRUE
    MP2 Hybrid          =          FALSE

   => Exchange-Correlation Functionals <=

    1.0000   wB97X-V range-separated functional

   => Exact (HF) Exchange <=

    0.8330            HF,LR [omega = 0.3000]
    0.1670               HF 

   => VV10 Non-Local Parameters <=

    VV10 B              =     6.0000E+00
    VV10 C              =     1.0000E-02

   => Molecular Quadrature <=

    Radial Scheme          =       TREUTLER
    Pruning Scheme         =           FLAT
    Nuclear Scheme         =       TREUTLER

    BS radius alpha        =              1
    Pruning alpha          =              1
    Radial Points          =             75
    Spherical Points       =            302
    Total Points           =          45300
    Total Blocks           =            420
    Max Points             =            256
    Max Functions          =            160

   => Loading Basis Set <=

    Name: (AUG-CC-PV(Q+D)Z AUX)
    Role: JKFIT
    Keyword: DF_BASIS_SCF
    atoms 1 entry C          line   178 file /work/zw18965/.conda/envs/p4env/share/psi4/basis/aug-cc-pvqz-jkfit.gbs 
    atoms 2 entry O          line   318 file /work/zw18965/.conda/envs/p4env/share/psi4/basis/aug-cc-pvqz-jkfit.gbs 

  ==> Pre-Iterations <==

   -------------------------------------------------------
    Irrep   Nso     Nmo     Nalpha   Nbeta   Ndocc  Nsocc
   -------------------------------------------------------
     A1        62      62       0       0       0       0
     A2        22      22       0       0       0       0
     B1        38      38       0       0       0       0
     B2        38      38       0       0       0       0
   -------------------------------------------------------
    Total     160     160       7       7       7       0
   -------------------------------------------------------

  ==> Integral Setup <==

  ==> DiskDFJK: Density-Fitted J/K Matrices <==

    J tasked:                  Yes
    K tasked:                  Yes
    wK tasked:                 Yes
    Omega:               3.000E-01
    OpenMP threads:             24
    Integrals threads:          24
    Memory [MiB]:           102800
    Algorithm:                Core
    Integral Cache:           NONE
    Schwarz Cutoff:          1E-12
    Fitting Condition:       1E-10

   => Auxiliary Basis Set <=

  Basis Set: (AUG-CC-PV(Q+D)Z AUX)
    Blend: AUG-CC-PVQZ-JKFIT
    Number of shells: 68
    Number of basis function: 284
    Number of Cartesian functions: 396
    Spherical Harmonics?: true
    Max angular momentum: 5

  Cached 100.0% of DFT collocation blocks in 0.192 [GiB].

  Minimum eigenvalue in the overlap matrix is 9.9225385960E-05.
  Using Symmetric Orthogonalization.

  SCF Guess: Superposition of Atomic Densities via on-the-fly atomic UHF.

  ==> Iterations <==

                           Total Energy        Delta E     RMS |[F,P]|

   @DF-RKS iter SAD:  -112.57084866858285   -1.12571e+02   0.00000e+00 
   @DF-RKS iter   1:  -113.29231035869250   -7.21462e-01   4.12440e-03 DIIS
   @DF-RKS iter   2:  -113.27441319782471    1.78972e-02   4.94037e-03 DIIS
   @DF-RKS iter   3:  -113.32866008613837   -5.42469e-02   6.44539e-04 DIIS
   @DF-RKS iter   4:  -113.32981735163486   -1.15727e-03   7.29024e-05 DIIS
   @DF-RKS iter   5:  -113.32983541581604   -1.80642e-05   1.14550e-05 DIIS
   @DF-RKS iter   6:  -113.32983614341116   -7.27595e-07   2.36092e-06 DIIS
   @DF-RKS iter   7:  -113.32983619274289   -4.93317e-08   3.19548e-07 DIIS
   @DF-RKS iter   8:  -113.32983619390387   -1.16098e-09   6.61167e-08 DIIS
   @DF-RKS iter   9:  -113.32983619392388   -2.00089e-11   6.37745e-09 DIIS
  Energy and wave function converged.


  ==> Post-Iterations <==

    Orbital Energies [Eh]
    ---------------------

    Doubly Occupied:                                                      

       1A1   -19.319509     2A1   -10.389432     3A1    -1.294543  
       4A1    -0.696714     1B2    -0.589596     1B1    -0.589596  
       5A1    -0.493585  

    Virtual:                                                              

       2B1     0.049666     2B2     0.049666     6A1     0.060355  
       7A1     0.078637     3B1     0.093021     3B2     0.093021  
       8A1     0.155120     4B1     0.161095     4B2     0.161095  
       9A1     0.217008    10A1     0.223416     1A2     0.223416  
      11A1     0.294455     5B1     0.307120     5B2     0.307120  
       6B1     0.365500     6B2     0.365500    12A1     0.377015  
      13A1     0.481649     2A2     0.507774    14A1     0.507774  
       7B2     0.581817     7B1     0.581817    15A1     0.589152  
       3A2     0.721190    16A1     0.721191     8B1     0.723912  
       8B2     0.723912    17A1     0.728941     9B1     0.776584  
       9B2     0.776584    18A1     0.838520    10B1     0.839177  
      10B2     0.839177    19A1     0.854639    20A1     0.861226  
       4A2     0.861227    11B1     1.006695    11B2     1.006695  
      21A1     1.076836    22A1     1.378004    12B1     1.379071  
      12B2     1.379071     5A2     1.419952    23A1     1.419953  
      13B1     1.449737    13B2     1.449737    24A1     1.588272  
       6A2     1.677673    25A1     1.677676    26A1     1.690818  
      14B2     1.698604    14B1     1.698604    15B2     1.861731  
      15B1     1.861731     7A2     2.032489    27A1     2.032490  
      28A1     2.033611     8A2     2.053385    29A1     2.053388  
      16B2     2.139736    16B1     2.139736    30A1     2.193504  
      17B1     2.219219    17B2     2.219219    31A1     2.264359  
       9A2     2.264361    18B2     2.274270    18B1     2.274270  
      32A1     2.359923    19B2     2.408647    19B1     2.408647  
      20B2     2.680845    20B1     2.680845    33A1     2.807998  
      34A1     2.871391    10A2     2.871396    35A1     3.338732  
      21B2     3.559412    21B1     3.559412    36A1     3.560955  
      11A2     3.560962    37A1     3.753401    22B1     3.853388  
      22B2     3.853388    38A1     3.962542    12A2     3.962545  
      23B2     4.014200    23B1     4.014200    39A1     4.093150  
      24B2     4.103902    24B1     4.103902    13A2     4.133999  
      40A1     4.134001    41A1     4.300845    25B2     4.528993  
      25B1     4.528993    26B2     4.884389    26B1     4.884389  
      42A1     4.891293    43A1     4.910407    14A2     4.910411  
      44A1     5.642190    15A2     5.697826    45A1     5.697828  
      27B1     5.904915    27B2     5.904915    28B2     5.940628  
      28B1     5.940628    16A2     6.058910    46A1     6.058924  
      29B2     6.073288    29B1     6.073288    47A1     6.152878  
      30B1     6.194850    30B2     6.194850    17A2     6.332475  
      48A1     6.332478    49A1     6.929631    18A2     7.063857  
      50A1     7.063858    31B2     7.207705    31B1     7.207705  
      51A1     7.896448    52A1     8.165152    32B2     8.269787  
      32B1     8.269787    53A1    10.205543    19A2    10.205606  
      33B2    10.477513    33B1    10.477513    34B2    10.586387  
      34B1    10.586387    54A1    10.722352    20A2    10.722353  
      55A1    10.940248    35B2    10.967219    35B1    10.967219  
      36B1    11.376660    36B2    11.376660    56A1    11.549889  
      21A2    11.809195    57A1    11.809203    37B2    12.245799  
      37B1    12.245799    22A2    12.402704    58A1    12.402732  
      59A1    13.268513    38B2    13.700217    38B1    13.700217  
      60A1    14.000428    61A1    24.133559    62A1    41.872276  

    Final Occupation by Irrep:
             A1    A2    B1    B2 
    DOCC [     5,    0,    1,    1 ]

  @DF-RKS Final Energy:  -113.32983619392388

   => Energetics <=

    Nuclear Repulsion Energy =             22.4505092028990667
    One-Electron Energy =                -198.1934187020090690
    Two-Electron Energy =                  72.1995404691556359
    DFT Exchange-Correlation Energy =      -9.8455996200711340
    Empirical Dispersion Energy =           0.0000000000000000
    VV10 Nonlocal Energy =                  0.0591324561016224
    Total Energy =                       -113.3298361939238816

Computation Completed


Properties will be evaluated at   0.000000,   0.000000,   0.000000 [a0]

Properties computed using the SCF density matrix

  Nuclear Dipole Moment: [e a0]
     X:     0.0000      Y:     0.0000      Z:     0.0023

  Electronic Dipole Moment: [e a0]
     X:     0.0000      Y:     0.0000      Z:     0.0233

  Dipole Moment: [e a0]
     X:     0.0000      Y:     0.0000      Z:     0.0256     Total:     0.0256

  Dipole Moment: [D]
     X:     0.0000      Y:     0.0000      Z:     0.0651     Total:     0.0651


*** tstop() called on bp1-compute00065.data.bp.acrc.priv at Tue Apr 27 16:34:04 2021
Module time:
	user time   =      74.11 seconds =       1.24 minutes
	system time =       3.35 seconds =       0.06 minutes
	total time  =          4 seconds =       0.07 minutes
Total time:
	user time   =      74.11 seconds =       1.24 minutes
	system time =       3.35 seconds =       0.06 minutes
	total time  =          4 seconds =       0.07 minutes

  //>>>>>>>>>>>>>>>>>>>>>>>>>>>>>>>>>>>//
  //    Loading displacement 2 of 3    //
  //<<<<<<<<<<<<<<<<<<<<<<<<<<<<<<<<<<<//

*** tstart() called on bp1-compute00065.data.bp.acrc.priv
*** at Tue Apr 27 16:34:04 2021

   => Loading Basis Set <=

    Name: AUG-CC-PV(Q+D)Z
    Role: ORBITAL
    Keyword: BASIS
    atoms 1 entry C          line   319 file /work/zw18965/.conda/envs/p4env/share/psi4/basis/aug-cc-pv_qpd_z.gbs 
    atoms 2 entry O          line   439 file /work/zw18965/.conda/envs/p4env/share/psi4/basis/aug-cc-pv_qpd_z.gbs 


         ---------------------------------------------------------
                                   SCF
               by Justin Turney, Rob Parrish, Andy Simmonett
                          and Daniel G. A. Smith
                              RKS Reference
                       24 Threads, 137329 MiB Core
         ---------------------------------------------------------

  ==> Geometry <==

    Molecular point group: c2v
    Full point group: C_inf_v

    Geometry (in Angstrom), charge = 0, multiplicity = 1:

       Center              X                  Y                   Z               Mass       
    ------------   -----------------  -----------------  -----------------  -----------------
         C            0.000000000000     0.000000000000    -0.647003544760    12.000000000000
         O            0.000000000000     0.000000000000     0.485406938504    15.994914619570

  Running in c2v symmetry.

  Rotational constants: A = ************  B =      1.91736  C =      1.91736 [cm^-1]
  Rotational constants: A = ************  B =  57481.14520  C =  57481.14520 [MHz]
  Nuclear repulsion =   22.430475951585748

  Charge       = 0
  Multiplicity = 1
  Electrons    = 14
  Nalpha       = 7
  Nbeta        = 7

  ==> Algorithm <==

  SCF Algorithm Type is DF.
  DIIS enabled.
  MOM disabled.
  Fractional occupation disabled.
  Guess Type is SAD.
  Energy threshold   = 1.00e-08
  Density threshold  = 1.00e-08
  Integral threshold = 0.00e+00

  ==> Primary Basis <==

  Basis Set: AUG-CC-PV(Q+D)Z
    Blend: AUG-CC-PV(Q+D)Z
    Number of shells: 40
    Number of basis function: 160
    Number of Cartesian functions: 210
    Spherical Harmonics?: true
    Max angular momentum: 4

  ==> DFT Potential <==

   => Composite Functional: WB97X-V <= 

    wB97X-V Hyb-GGA Exchange-Correlation Functional

    N. Mardirossian and M. Head-Gordon, Phys. Chem. Chem. Phys. 16, 9904 (2014)

    Deriv               =              1
    GGA                 =           TRUE
    Meta                =          FALSE

    Exchange Hybrid     =           TRUE
    MP2 Hybrid          =          FALSE

   => Exchange-Correlation Functionals <=

    1.0000   wB97X-V range-separated functional

   => Exact (HF) Exchange <=

    0.8330            HF,LR [omega = 0.3000]
    0.1670               HF 

   => VV10 Non-Local Parameters <=

    VV10 B              =     6.0000E+00
    VV10 C              =     1.0000E-02

   => Molecular Quadrature <=

    Radial Scheme          =       TREUTLER
    Pruning Scheme         =           FLAT
    Nuclear Scheme         =       TREUTLER

    BS radius alpha        =              1
    Pruning alpha          =              1
    Radial Points          =             75
    Spherical Points       =            302
    Total Points           =          45300
    Total Blocks           =            421
    Max Points             =            256
    Max Functions          =            160

   => Loading Basis Set <=

    Name: (AUG-CC-PV(Q+D)Z AUX)
    Role: JKFIT
    Keyword: DF_BASIS_SCF
    atoms 1 entry C          line   178 file /work/zw18965/.conda/envs/p4env/share/psi4/basis/aug-cc-pvqz-jkfit.gbs 
    atoms 2 entry O          line   318 file /work/zw18965/.conda/envs/p4env/share/psi4/basis/aug-cc-pvqz-jkfit.gbs 

  ==> Pre-Iterations <==

   -------------------------------------------------------
    Irrep   Nso     Nmo     Nalpha   Nbeta   Ndocc  Nsocc
   -------------------------------------------------------
     A1        62      62       0       0       0       0
     A2        22      22       0       0       0       0
     B1        38      38       0       0       0       0
     B2        38      38       0       0       0       0
   -------------------------------------------------------
    Total     160     160       7       7       7       0
   -------------------------------------------------------

  ==> Integral Setup <==

  ==> DiskDFJK: Density-Fitted J/K Matrices <==

    J tasked:                  Yes
    K tasked:                  Yes
    wK tasked:                 Yes
    Omega:               3.000E-01
    OpenMP threads:             24
    Integrals threads:          24
    Memory [MiB]:           102800
    Algorithm:                Core
    Integral Cache:           NONE
    Schwarz Cutoff:          1E-12
    Fitting Condition:       1E-10

   => Auxiliary Basis Set <=

  Basis Set: (AUG-CC-PV(Q+D)Z AUX)
    Blend: AUG-CC-PVQZ-JKFIT
    Number of shells: 68
    Number of basis function: 284
    Number of Cartesian functions: 396
    Spherical Harmonics?: true
    Max angular momentum: 5

  Cached 100.0% of DFT collocation blocks in 0.192 [GiB].

  Minimum eigenvalue in the overlap matrix is 9.9424095497E-05.
  Using Symmetric Orthogonalization.

  SCF Guess: Superposition of Atomic Densities via on-the-fly atomic UHF.

  ==> Iterations <==

                           Total Energy        Delta E     RMS |[F,P]|

   @DF-RKS iter SAD:  -112.56912912773836   -1.12569e+02   0.00000e+00 
   @DF-RKS iter   1:  -113.29226244066915   -7.23133e-01   4.12384e-03 DIIS
   @DF-RKS iter   2:  -113.27401663558216    1.82458e-02   4.95480e-03 DIIS
   @DF-RKS iter   3:  -113.32863430552730   -5.46177e-02   6.42406e-04 DIIS
   @DF-RKS iter   4:  -113.32978534272600   -1.15104e-03   7.28985e-05 DIIS
   @DF-RKS iter   5:  -113.32980339976558   -1.80570e-05   1.14628e-05 DIIS
   @DF-RKS iter   6:  -113.32980412727780   -7.27512e-07   2.36309e-06 DIIS
   @DF-RKS iter   7:  -113.32980417664393   -4.93661e-08   3.20027e-07 DIIS
   @DF-RKS iter   8:  -113.32980417780259   -1.15865e-09   6.64513e-08 DIIS
   @DF-RKS iter   9:  -113.32980417782284   -2.02505e-11   6.41069e-09 DIIS
  Energy and wave function converged.


  ==> Post-Iterations <==

    Orbital Energies [Eh]
    ---------------------

    Doubly Occupied:                                                      

       1A1   -19.319557     2A1   -10.389815     3A1    -1.293986  
       4A1    -0.696709     1B2    -0.589232     1B1    -0.589232  
       5A1    -0.493671  

    Virtual:                                                              

       2B1     0.049461     2B2     0.049461     6A1     0.060367  
       7A1     0.078622     3B1     0.092869     3B2     0.092869  
       8A1     0.155115     4B1     0.161113     4B2     0.161113  
       9A1     0.217004    10A1     0.223415     1A2     0.223415  
      11A1     0.294440     5B1     0.307047     5B2     0.307047  
       6B1     0.365499     6B2     0.365499    12A1     0.376965  
      13A1     0.481645     2A2     0.507815    14A1     0.507816  
       7B1     0.581840     7B2     0.581840    15A1     0.588661  
       3A2     0.721160    16A1     0.721161     8B2     0.723901  
       8B1     0.723901    17A1     0.728849     9B1     0.776429  
       9B2     0.776429    18A1     0.838229    10B1     0.839222  
      10B2     0.839222    19A1     0.854307    20A1     0.861168  
       4A2     0.861169    11B1     1.006531    11B2     1.006531  
      21A1     1.076319    22A1     1.377660    12B1     1.378967  
      12B2     1.378967     5A2     1.420033    23A1     1.420034  
      13B1     1.449794    13B2     1.449794    24A1     1.588290  
       6A2     1.677593    25A1     1.677597    26A1     1.691027  
      14B1     1.697840    14B2     1.697840    15B1     1.862207  
      15B2     1.862207     7A2     2.032450    27A1     2.032451  
      28A1     2.033091     8A2     2.053179    29A1     2.053181  
      16B1     2.139678    16B2     2.139678    30A1     2.193415  
      17B2     2.218994    17B1     2.218994    31A1     2.264192  
       9A2     2.264194    18B2     2.273922    18B1     2.273922  
      32A1     2.359774    19B1     2.408321    19B2     2.408321  
      20B1     2.680068    20B2     2.680068    33A1     2.806550  
      34A1     2.870601    10A2     2.870606    35A1     3.338842  
      21B1     3.559030    21B2     3.559030    36A1     3.560737  
      11A2     3.560744    37A1     3.752893    22B1     3.853389  
      22B2     3.853389    38A1     3.962529    12A2     3.962531  
      23B1     4.014083    23B2     4.014083    39A1     4.092802  
      24B2     4.102850    24B1     4.102850    13A2     4.133546  
      40A1     4.133549    41A1     4.299218    25B1     4.529320  
      25B2     4.529320    26B1     4.882806    26B2     4.882806  
      42A1     4.892879    43A1     4.909821    14A2     4.909825  
      44A1     5.638363    15A2     5.697751    45A1     5.697753  
      27B1     5.904005    27B2     5.904005    28B1     5.939656  
      28B2     5.939656    16A2     6.058623    46A1     6.058636  
      29B1     6.072928    29B2     6.072928    47A1     6.153342  
      30B1     6.194755    30B2     6.194755    17A2     6.332044  
      48A1     6.332047    49A1     6.925647    18A2     7.060131  
      50A1     7.060133    31B1     7.205471    31B2     7.205471  
      51A1     7.892924    52A1     8.165937    32B1     8.266307  
      32B2     8.266307    53A1    10.205556    19A2    10.205620  
      33B2    10.476810    33B1    10.476810    34B1    10.586201  
      34B2    10.586201    54A1    10.721429    20A2    10.721430  
      55A1    10.939891    35B1    10.966626    35B2    10.966626  
      36B1    11.376627    36B2    11.376627    56A1    11.548178  
      21A2    11.808148    57A1    11.808156    37B1    12.244067  
      37B2    12.244067    22A2    12.401942    58A1    12.401970  
      59A1    13.263216    38B1    13.694646    38B2    13.694646  
      60A1    13.999105    61A1    24.120886    62A1    41.867428  

    Final Occupation by Irrep:
             A1    A2    B1    B2 
    DOCC [     5,    0,    1,    1 ]

  @DF-RKS Final Energy:  -113.32980417782284

   => Energetics <=

    Nuclear Repulsion Energy =             22.4304759515857484
    One-Electron Energy =                -198.1553544495467634
    Two-Electron Energy =                  72.1807143397252418
    DFT Exchange-Correlation Energy =      -9.8447723731775554
    Empirical Dispersion Energy =           0.0000000000000000
    VV10 Nonlocal Energy =                  0.0591323535904978
    Total Energy =                       -113.3298041778228225

Computation Completed


Properties will be evaluated at   0.000000,   0.000000,   0.000000 [a0]

Properties computed using the SCF density matrix

  Nuclear Dipole Moment: [e a0]
     X:     0.0000      Y:     0.0000      Z:     0.0023

  Electronic Dipole Moment: [e a0]
     X:     0.0000      Y:     0.0000      Z:     0.0218

  Dipole Moment: [e a0]
     X:     0.0000      Y:     0.0000      Z:     0.0241     Total:     0.0241

  Dipole Moment: [D]
     X:     0.0000      Y:     0.0000      Z:     0.0612     Total:     0.0612


*** tstop() called on bp1-compute00065.data.bp.acrc.priv at Tue Apr 27 16:34:07 2021
Module time:
	user time   =      73.29 seconds =       1.22 minutes
	system time =       2.39 seconds =       0.04 minutes
	total time  =          3 seconds =       0.05 minutes
Total time:
	user time   =     147.54 seconds =       2.46 minutes
	system time =       5.75 seconds =       0.10 minutes
	total time  =          7 seconds =       0.12 minutes

  //>>>>>>>>>>>>>>>>>>>>>>>>>>>>>>>>>>>//
  //    Loading displacement 3 of 3    //
  //<<<<<<<<<<<<<<<<<<<<<<<<<<<<<<<<<<<//

*** tstart() called on bp1-compute00065.data.bp.acrc.priv
*** at Tue Apr 27 16:34:07 2021

   => Loading Basis Set <=

    Name: AUG-CC-PV(Q+D)Z
    Role: ORBITAL
    Keyword: BASIS
    atoms 1 entry C          line   319 file /work/zw18965/.conda/envs/p4env/share/psi4/basis/aug-cc-pv_qpd_z.gbs 
    atoms 2 entry O          line   439 file /work/zw18965/.conda/envs/p4env/share/psi4/basis/aug-cc-pv_qpd_z.gbs 


         ---------------------------------------------------------
                                   SCF
               by Justin Turney, Rob Parrish, Andy Simmonett
                          and Daniel G. A. Smith
                              RKS Reference
                       24 Threads, 137329 MiB Core
         ---------------------------------------------------------

  ==> Geometry <==

    Molecular point group: c2v
    Full point group: C_inf_v

    Geometry (in Angstrom), charge = 0, multiplicity = 1:

       Center              X                  Y                   Z               Mass       
    ------------   -----------------  -----------------  -----------------  -----------------
         C            0.000000000000     0.000000000000    -0.645848864080    12.000000000000
         O            0.000000000000     0.000000000000     0.484540652657    15.994914619570

  Running in c2v symmetry.

  Rotational constants: A = ************  B =      1.92423  C =      1.92423 [cm^-1]
  Rotational constants: A = ************  B =  57686.86423  C =  57686.86423 [MHz]
  Nuclear repulsion =   22.470578270654173

  Charge       = 0
  Multiplicity = 1
  Electrons    = 14
  Nalpha       = 7
  Nbeta        = 7

  ==> Algorithm <==

  SCF Algorithm Type is DF.
  DIIS enabled.
  MOM disabled.
  Fractional occupation disabled.
  Guess Type is SAD.
  Energy threshold   = 1.00e-08
  Density threshold  = 1.00e-08
  Integral threshold = 0.00e+00

  ==> Primary Basis <==

  Basis Set: AUG-CC-PV(Q+D)Z
    Blend: AUG-CC-PV(Q+D)Z
    Number of shells: 40
    Number of basis function: 160
    Number of Cartesian functions: 210
    Spherical Harmonics?: true
    Max angular momentum: 4

  ==> DFT Potential <==

   => Composite Functional: WB97X-V <= 

    wB97X-V Hyb-GGA Exchange-Correlation Functional

    N. Mardirossian and M. Head-Gordon, Phys. Chem. Chem. Phys. 16, 9904 (2014)

    Deriv               =              1
    GGA                 =           TRUE
    Meta                =          FALSE

    Exchange Hybrid     =           TRUE
    MP2 Hybrid          =          FALSE

   => Exchange-Correlation Functionals <=

    1.0000   wB97X-V range-separated functional

   => Exact (HF) Exchange <=

    0.8330            HF,LR [omega = 0.3000]
    0.1670               HF 

   => VV10 Non-Local Parameters <=

    VV10 B              =     6.0000E+00
    VV10 C              =     1.0000E-02

   => Molecular Quadrature <=

    Radial Scheme          =       TREUTLER
    Pruning Scheme         =           FLAT
    Nuclear Scheme         =       TREUTLER

    BS radius alpha        =              1
    Pruning alpha          =              1
    Radial Points          =             75
    Spherical Points       =            302
    Total Points           =          45300
    Total Blocks           =            420
    Max Points             =            256
    Max Functions          =            160

   => Loading Basis Set <=

    Name: (AUG-CC-PV(Q+D)Z AUX)
    Role: JKFIT
    Keyword: DF_BASIS_SCF
    atoms 1 entry C          line   178 file /work/zw18965/.conda/envs/p4env/share/psi4/basis/aug-cc-pvqz-jkfit.gbs 
    atoms 2 entry O          line   318 file /work/zw18965/.conda/envs/p4env/share/psi4/basis/aug-cc-pvqz-jkfit.gbs 

  ==> Pre-Iterations <==

   -------------------------------------------------------
    Irrep   Nso     Nmo     Nalpha   Nbeta   Ndocc  Nsocc
   -------------------------------------------------------
     A1        62      62       0       0       0       0
     A2        22      22       0       0       0       0
     B1        38      38       0       0       0       0
     B2        38      38       0       0       0       0
   -------------------------------------------------------
    Total     160     160       7       7       7       0
   -------------------------------------------------------

  ==> Integral Setup <==

  ==> DiskDFJK: Density-Fitted J/K Matrices <==

    J tasked:                  Yes
    K tasked:                  Yes
    wK tasked:                 Yes
    Omega:               3.000E-01
    OpenMP threads:             24
    Integrals threads:          24
    Memory [MiB]:           102800
    Algorithm:                Core
    Integral Cache:           NONE
    Schwarz Cutoff:          1E-12
    Fitting Condition:       1E-10

   => Auxiliary Basis Set <=

  Basis Set: (AUG-CC-PV(Q+D)Z AUX)
    Blend: AUG-CC-PVQZ-JKFIT
    Number of shells: 68
    Number of basis function: 284
    Number of Cartesian functions: 396
    Spherical Harmonics?: true
    Max angular momentum: 5

  Cached 100.0% of DFT collocation blocks in 0.192 [GiB].

  Minimum eigenvalue in the overlap matrix is 9.9027007209E-05.
  Using Symmetric Orthogonalization.

  SCF Guess: Superposition of Atomic Densities via on-the-fly atomic UHF.

  ==> Iterations <==

                           Total Energy        Delta E     RMS |[F,P]|

   @DF-RKS iter SAD:  -112.57256900550902   -1.12573e+02   0.00000e+00 
   @DF-RKS iter   1:  -113.29235243130432   -7.19783e-01   4.12503e-03 DIIS
   @DF-RKS iter   2:  -113.27480155936365    1.75509e-02   4.92604e-03 DIIS
   @DF-RKS iter   3:  -113.32868131371316   -5.38798e-02   6.46676e-04 DIIS
   @DF-RKS iter   4:  -113.32984482874089   -1.16352e-03   7.29067e-05 DIIS
   @DF-RKS iter   5:  -113.32986290034877   -1.80716e-05   1.14471e-05 DIIS
   @DF-RKS iter   6:  -113.32986362802326   -7.27674e-07   2.35878e-06 DIIS
   @DF-RKS iter   7:  -113.32986367732049   -4.92972e-08   3.19071e-07 DIIS
   @DF-RKS iter   8:  -113.32986367847190   -1.15141e-09   6.57849e-08 DIIS
   @DF-RKS iter   9:  -113.32986367849198   -2.00799e-11   6.34452e-09 DIIS
  Energy and wave function converged.


  ==> Post-Iterations <==

    Orbital Energies [Eh]
    ---------------------

    Doubly Occupied:                                                      

       1A1   -19.319460     2A1   -10.389049     3A1    -1.295101  
       4A1    -0.696719     1B2    -0.589959     1B1    -0.589959  
       5A1    -0.493498  

    Virtual:                                                              

       2B2     0.049871     2B1     0.049871     6A1     0.060343  
       7A1     0.078651     3B2     0.093175     3B1     0.093175  
       8A1     0.155125     4B2     0.161077     4B1     0.161077  
       9A1     0.217012    10A1     0.223416     1A2     0.223416  
      11A1     0.294470     5B2     0.307193     5B1     0.307193  
       6B1     0.365500     6B2     0.365500    12A1     0.377064  
      13A1     0.481652     2A2     0.507732    14A1     0.507732  
       7B2     0.581793     7B1     0.581793    15A1     0.589639  
       3A2     0.721220    16A1     0.721221     8B2     0.723922  
       8B1     0.723922    17A1     0.729032     9B1     0.776739  
       9B2     0.776739    18A1     0.838803    10B1     0.839132  
      10B2     0.839132    19A1     0.854979    20A1     0.861284  
       4A2     0.861286    11B1     1.006860    11B2     1.006860  
      21A1     1.077358    22A1     1.378350    12B1     1.379176  
      12B2     1.379176     5A2     1.419871    23A1     1.419872  
      13B2     1.449679    13B1     1.449679    24A1     1.588252  
       6A2     1.677752    25A1     1.677755    26A1     1.690611  
      14B1     1.699370    14B2     1.699370    15B1     1.861257  
      15B2     1.861257     7A2     2.032528    27A1     2.032530  
      28A1     2.034131     8A2     2.053593    29A1     2.053595  
      16B2     2.139794    16B1     2.139794    30A1     2.193594  
      17B1     2.219442    17B2     2.219442    31A1     2.264526  
       9A2     2.264527    18B1     2.274618    18B2     2.274618  
      32A1     2.360075    19B2     2.408972    19B1     2.408972  
      20B2     2.681624    20B1     2.681624    33A1     2.809445  
      34A1     2.872180    10A2     2.872186    35A1     3.338618  
      21B1     3.559791    21B2     3.559791    36A1     3.561175  
      11A2     3.561182    37A1     3.753908    22B1     3.853386  
      22B2     3.853386    38A1     3.962557    12A2     3.962559  
      23B1     4.014314    23B2     4.014314    39A1     4.093498  
      24B1     4.104955    24B2     4.104955    13A2     4.134452  
      40A1     4.134455    41A1     4.302481    25B1     4.528677  
      25B2     4.528677    26B2     4.885970    26B1     4.885970  
      42A1     4.889709    43A1     4.910989    14A2     4.910993  
      44A1     5.646017    15A2     5.697902    45A1     5.697903  
      27B1     5.905827    27B2     5.905827    28B2     5.941597  
      28B1     5.941597    16A2     6.059196    46A1     6.059210  
      29B1     6.073651    29B2     6.073651    47A1     6.152409  
      30B2     6.194945    30B1     6.194945    17A2     6.332910  
      48A1     6.332913    49A1     6.933615    18A2     7.067589  
      50A1     7.067591    31B2     7.209942    31B1     7.209942  
      51A1     7.899969    52A1     8.164383    32B1     8.273267  
      32B2     8.273267    53A1    10.205531    19A2    10.205593  
      33B1    10.478220    33B2    10.478220    34B1    10.586570  
      34B2    10.586570    54A1    10.723279    20A2    10.723281  
      55A1    10.940602    35B1    10.967809    35B2    10.967809  
      36B2    11.376693    36B1    11.376693    56A1    11.551595  
      21A2    11.810243    57A1    11.810250    37B1    12.247551  
      37B2    12.247551    22A2    12.403472    58A1    12.403499  
      59A1    13.273797    38B1    13.705793    38B2    13.705793  
      60A1    14.001783    61A1    24.146226    62A1    41.877134  

    Final Occupation by Irrep:
             A1    A2    B1    B2 
    DOCC [     5,    0,    1,    1 ]

  @DF-RKS Final Energy:  -113.32986367849198

   => Energetics <=

    Nuclear Repulsion Energy =             22.4705782706541726
    One-Electron Energy =                -198.2315435015518403
    Two-Electron Energy =                  72.2183979151602387
    DFT Exchange-Correlation Energy =      -9.8464289232978821
    Empirical Dispersion Energy =           0.0000000000000000
    VV10 Nonlocal Energy =                  0.0591325605433456
    Total Energy =                       -113.3298636784919751

Computation Completed


Properties will be evaluated at   0.000000,   0.000000,   0.000000 [a0]

Properties computed using the SCF density matrix

  Nuclear Dipole Moment: [e a0]
     X:     0.0000      Y:     0.0000      Z:     0.0023

  Electronic Dipole Moment: [e a0]
     X:     0.0000      Y:     0.0000      Z:     0.0248

  Dipole Moment: [e a0]
     X:     0.0000      Y:     0.0000      Z:     0.0271     Total:     0.0271

  Dipole Moment: [D]
     X:     0.0000      Y:     0.0000      Z:     0.0689     Total:     0.0689


*** tstop() called on bp1-compute00065.data.bp.acrc.priv at Tue Apr 27 16:34:11 2021
Module time:
	user time   =      72.87 seconds =       1.21 minutes
	system time =       2.72 seconds =       0.05 minutes
	total time  =          4 seconds =       0.07 minutes
Total time:
	user time   =     220.54 seconds =       3.68 minutes
	system time =       8.48 seconds =       0.14 minutes
	total time  =         11 seconds =       0.18 minutes

         ----------------------------------------------------------
                                   FINDIF
                     R. A. King and Jonathon Misiewicz
         ---------------------------------------------------------

  Computing gradient from energies.
    Using 3-point formula.
    Energy without displacement: -113.3298361939
    Check energies below for precision!
    Forces are for mass-weighted, symmetry-adapted cartesians (in au).

     Coord      Energy(-1)        Energy(+1)            Force
        0   -113.3298041778   -113.3298636785     -0.0059500669


-------------------------------------------------------------
  ## New Matrix (Symmetry 0) ##
  Irrep: 1 Size: 2 x 3

                 1                   2                   3

    1     0.00000000000000     0.00000000000000    -0.01557987117286
    2     0.00000000000000     0.00000000000000     0.01557987117286




			-----------------------------------------
			 OPTKING 2.0: for geometry optimizations 
			  - R.A. King,  Bethel University        
			-----------------------------------------
	At level 1: Red. Int., RFO, no backsteps, dynamic trust

	Internal coordinates to be generated automatically.
	Detected frag 1 with atoms:  1 2
	---Fragment 1 Bond Connectivity---
	 1 : 2
	 2 : 1

	---Fragment 1 Geometry and Gradient---
	 C           0.0000000000        0.0000000000       -1.2215684867
	 O           0.0000000000        0.0000000000        0.9164676517
	             0.0000000000        0.0000000000       -0.0155798712
	             0.0000000000        0.0000000000        0.0155798712

	Previous optimization step data not found.  Starting new optimization.

	---Fragment 1 Intrafragment Coordinates---
	 - Coordinate -           - BOHR/RAD -       - ANG/DEG -
	 R(1,2)           =         2.138036	       1.131400

	Current energy   :      -113.3298361939

	Generating empirical Hessian (Schlegel '84) for each fragment.
	Taking RFO optimization step.
	Going to follow RFO solution 1.
	Using RFO vector 1.
	Norm of target step-size    0.01049
	Projected energy change by RFO approximation:        -0.0001084035

	Back-transformation to cartesian coordinates...
	Successfully converged to displaced geometry.

	--- Internal Coordinate Step in ANG or DEG, aJ/ANG or AJ/DEG ---
	 ---------------------------------------------------------------------------
	   Coordinate                Previous        Force       Change         New 
	   ----------                --------       ------       ------       ------
	    1 R(1,2)          =      1.131400    -0.128358    -0.005551     1.125849
	 ---------------------------------------------------------------------------
	Successfully symmetrized geometry.

  ==> Convergence Check <==

  Measures of convergence in internal coordinates in au.
  Criteria marked as inactive (o), active & met (*), and active & unmet ( ).
  --------------------------------------------------------------------------------------------- ~
   Step     Total Energy     Delta E     MAX Force     RMS Force      MAX Disp      RMS Disp    ~
  --------------------------------------------------------------------------------------------- ~
    Convergence Criteria    1.00e-06 *    3.00e-04 *             o    1.20e-03 *             o  ~
  --------------------------------------------------------------------------------------------- ~
      1    -113.32983619   -1.13e+02      1.56e-02      1.56e-02 o    1.05e-02      1.05e-02 o  ~
  ---------------------------------------------------------------------------------------------

	Writing optimization data to binary file.
	Structure for next step:
	Cartesian Geometry (in Angstrom)
	    C     0.0000000000   0.0000000000  -0.6436505312
	    O     0.0000000000   0.0000000000   0.4821981230
			--------------------------
			 OPTKING Finished Execution 
			--------------------------

    Structure for next step:
    Molecular point group: c2v
    Full point group: C_inf_v

    Geometry (in Angstrom), charge = 0, multiplicity = 1:

    C            0.000000000000     0.000000000000    -0.643254441551
    O            0.000000000000     0.000000000000     0.482594217112

gradient() will perform gradient computation by finite difference of analytic energies.

         ----------------------------------------------------------
                                   FINDIF
                     R. A. King and Jonathon Misiewicz
         ---------------------------------------------------------

  Using finite-differences of energies to determine gradients.
    Generating geometries for use with 3-point formula.
    Displacement size will be 5.00e-03.
    Number of atoms is 2.
    Number of symmetric SALCs is 1.
    Translations projected? 1. Rotations projected? 1.
    Number of geometries (including reference) is 3.

  //>>>>>>>>>>>>>>>>>>>>>>>>>>>>>>>>>>>//
  //    Loading displacement 1 of 3    //
  //<<<<<<<<<<<<<<<<<<<<<<<<<<<<<<<<<<<//

*** tstart() called on bp1-compute00065.data.bp.acrc.priv
*** at Tue Apr 27 16:34:11 2021

   => Loading Basis Set <=

    Name: AUG-CC-PV(Q+D)Z
    Role: ORBITAL
    Keyword: BASIS
    atoms 1 entry C          line   319 file /work/zw18965/.conda/envs/p4env/share/psi4/basis/aug-cc-pv_qpd_z.gbs 
    atoms 2 entry O          line   439 file /work/zw18965/.conda/envs/p4env/share/psi4/basis/aug-cc-pv_qpd_z.gbs 


         ---------------------------------------------------------
                                   SCF
               by Justin Turney, Rob Parrish, Andy Simmonett
                          and Daniel G. A. Smith
                              RKS Reference
                       24 Threads, 137329 MiB Core
         ---------------------------------------------------------

  ==> Geometry <==

    Molecular point group: c2v
    Full point group: C_inf_v

    Geometry (in Angstrom), charge = 0, multiplicity = 1:

       Center              X                  Y                   Z               Mass       
    ------------   -----------------  -----------------  -----------------  -----------------
         C            0.000000000000     0.000000000000    -0.643254441551    12.000000000000
         O            0.000000000000     0.000000000000     0.482594217112    15.994914619570

  Running in c2v symmetry.

  Rotational constants: A = ************  B =      1.93978  C =      1.93978 [cm^-1]
  Rotational constants: A = ************  B =  58153.13670  C =  58153.13670 [MHz]
  Nuclear repulsion =   22.561208308690723

  Charge       = 0
  Multiplicity = 1
  Electrons    = 14
  Nalpha       = 7
  Nbeta        = 7

  ==> Algorithm <==

  SCF Algorithm Type is DF.
  DIIS enabled.
  MOM disabled.
  Fractional occupation disabled.
  Guess Type is READ.
  Energy threshold   = 1.00e-08
  Density threshold  = 1.00e-08
  Integral threshold = 0.00e+00

  ==> Primary Basis <==

  Basis Set: AUG-CC-PV(Q+D)Z
    Blend: AUG-CC-PV(Q+D)Z
    Number of shells: 40
    Number of basis function: 160
    Number of Cartesian functions: 210
    Spherical Harmonics?: true
    Max angular momentum: 4

  ==> DFT Potential <==

   => Composite Functional: WB97X-V <= 

    wB97X-V Hyb-GGA Exchange-Correlation Functional

    N. Mardirossian and M. Head-Gordon, Phys. Chem. Chem. Phys. 16, 9904 (2014)

    Deriv               =              1
    GGA                 =           TRUE
    Meta                =          FALSE

    Exchange Hybrid     =           TRUE
    MP2 Hybrid          =          FALSE

   => Exchange-Correlation Functionals <=

    1.0000   wB97X-V range-separated functional

   => Exact (HF) Exchange <=

    0.8330            HF,LR [omega = 0.3000]
    0.1670               HF 

   => VV10 Non-Local Parameters <=

    VV10 B              =     6.0000E+00
    VV10 C              =     1.0000E-02

   => Molecular Quadrature <=

    Radial Scheme          =       TREUTLER
    Pruning Scheme         =           FLAT
    Nuclear Scheme         =       TREUTLER

    BS radius alpha        =              1
    Pruning alpha          =              1
    Radial Points          =             75
    Spherical Points       =            302
    Total Points           =          45300
    Total Blocks           =            420
    Max Points             =            256
    Max Functions          =            160

   => Loading Basis Set <=

    Name: (AUG-CC-PV(Q+D)Z AUX)
    Role: JKFIT
    Keyword: DF_BASIS_SCF
    atoms 1 entry C          line   178 file /work/zw18965/.conda/envs/p4env/share/psi4/basis/aug-cc-pvqz-jkfit.gbs 
    atoms 2 entry O          line   318 file /work/zw18965/.conda/envs/p4env/share/psi4/basis/aug-cc-pvqz-jkfit.gbs 

   => Loading Basis Set <=

    Name: AUG-CC-PV(Q+D)Z
    Role: ORBITAL
    Keyword: BASIS
    atoms 1 entry C          line   319 file /work/zw18965/.conda/envs/p4env/share/psi4/basis/aug-cc-pv_qpd_z.gbs 
    atoms 2 entry O          line   439 file /work/zw18965/.conda/envs/p4env/share/psi4/basis/aug-cc-pv_qpd_z.gbs 

  Reading orbitals from file 180, no projection.

  ==> Pre-Iterations <==

   -------------------------------------------------------
    Irrep   Nso     Nmo     Nalpha   Nbeta   Ndocc  Nsocc
   -------------------------------------------------------
     A1        62      62       0       0       0       0
     A2        22      22       0       0       0       0
     B1        38      38       0       0       0       0
     B2        38      38       0       0       0       0
   -------------------------------------------------------
    Total     160     160       7       7       7       0
   -------------------------------------------------------

  ==> Integral Setup <==

  ==> DiskDFJK: Density-Fitted J/K Matrices <==

    J tasked:                  Yes
    K tasked:                  Yes
    wK tasked:                 Yes
    Omega:               3.000E-01
    OpenMP threads:             24
    Integrals threads:          24
    Memory [MiB]:           102800
    Algorithm:                Core
    Integral Cache:           NONE
    Schwarz Cutoff:          1E-12
    Fitting Condition:       1E-10

   => Auxiliary Basis Set <=

  Basis Set: (AUG-CC-PV(Q+D)Z AUX)
    Blend: AUG-CC-PVQZ-JKFIT
    Number of shells: 68
    Number of basis function: 284
    Number of Cartesian functions: 396
    Spherical Harmonics?: true
    Max angular momentum: 5

  Cached 100.0% of DFT collocation blocks in 0.192 [GiB].

  Minimum eigenvalue in the overlap matrix is 9.8139545897E-05.
  Using Symmetric Orthogonalization.

  SCF Guess: Orbitals guess was supplied from a previous computation.

  ==> Iterations <==

                           Total Energy        Delta E     RMS |[F,P]|

   @DF-RKS iter   0:  -113.33299668112909   -1.13333e+02   2.89577e-04 
   @DF-RKS iter   1:  -113.32992766155081    3.06902e-03   3.07154e-05 DIIS
   @DF-RKS iter   2:  -113.32992695050199    7.11049e-07   3.87213e-05 DIIS
   @DF-RKS iter   3:  -113.32993036437610   -3.41387e-06   3.94094e-06 DIIS
   @DF-RKS iter   4:  -113.32993039711180   -3.27357e-08   6.33032e-07 DIIS
   @DF-RKS iter   5:  -113.32993039910077   -1.98898e-09   1.56413e-07 DIIS
   @DF-RKS iter   6:  -113.32993039920996   -1.09182e-10   2.26580e-08 DIIS
   @DF-RKS iter   7:  -113.32993039921305   -3.09797e-12   3.56184e-09 DIIS
  Energy and wave function converged.


  ==> Post-Iterations <==

    Orbital Energies [Eh]
    ---------------------

    Doubly Occupied:                                                      

       1A1   -19.319237     2A1   -10.387322     3A1    -1.297609  
       4A1    -0.696744     1B1    -0.591601     1B2    -0.591601  
       5A1    -0.493103  

    Virtual:                                                              

       2B1     0.050771     2B2     0.050771     6A1     0.060288  
       7A1     0.078718     3B1     0.093889     3B2     0.093889  
       8A1     0.155145     4B1     0.160999     4B2     0.160999  
       9A1     0.217027    10A1     0.223418     1A2     0.223418  
      11A1     0.294533     5B1     0.307522     5B2     0.307522  
       6B2     0.365505     6B1     0.365505    12A1     0.377282  
      13A1     0.481670     2A2     0.507542    14A1     0.507543  
       7B1     0.581686     7B2     0.581686    15A1     0.591785  
       3A2     0.721351    16A1     0.721352     8B1     0.723971  
       8B2     0.723971    17A1     0.729442     9B2     0.777435  
       9B1     0.777435    10B2     0.838930    10B1     0.838930  
      18A1     0.839968    19A1     0.856609    20A1     0.861548  
       4A2     0.861550    11B2     1.007608    11B1     1.007608  
      21A1     1.079784    12B2     1.379644    12B1     1.379644  
      22A1     1.379921     5A2     1.419511    23A1     1.419512  
      13B1     1.449413    13B2     1.449413    24A1     1.588138  
       6A2     1.678095    25A1     1.678099    26A1     1.689703  
      14B2     1.702824    14B1     1.702824    15B2     1.859137  
      15B1     1.859137     7A2     2.032705    27A1     2.032706  
      28A1     2.036471     8A2     2.054534    29A1     2.054536  
      16B1     2.140053    16B2     2.140053    30A1     2.194007  
      17B1     2.220445    17B2     2.220445    31A1     2.265273  
       9A2     2.265274    18B2     2.276185    18B1     2.276185  
      32A1     2.360802    19B2     2.410416    19B1     2.410416  
      20B1     2.685156    20B2     2.685156    33A1     2.815946  
      34A1     2.875724    10A2     2.875729    35A1     3.338034  
      21B1     3.561448    21B2     3.561448    36A1     3.562172  
      11A2     3.562178    37A1     3.756177    22B2     3.853373  
      22B1     3.853373    38A1     3.962634    12A2     3.962637  
      23B1     4.014809    23B2     4.014809    39A1     4.095059  
      24B2     4.109706    24B1     4.109706    13A2     4.136496  
      40A1     4.136499    41A1     4.309935    25B2     4.527415  
      25B1     4.527415    42A1     4.882632    26B1     4.893059  
      26B2     4.893059    43A1     4.913555    14A2     4.913559  
      44A1     5.663222    15A2     5.698240    45A1     5.698241  
      27B1     5.909958    27B2     5.909958    28B2     5.945915  
      28B1     5.945915    16A2     6.060461    46A1     6.060475  
      29B2     6.075324    29B1     6.075324    47A1     6.150261  
      30B2     6.195380    30B1     6.195380    17A2     6.334917  
      48A1     6.334920    49A1     6.951515    18A2     7.084447  
      50A1     7.084449    31B1     7.220045    31B2     7.220045  
      51A1     7.915747    52A1     8.161141    32B2     8.288912  
      32B1     8.288912    53A1    10.205481    19A2    10.205540  
      33B2    10.481429    33B1    10.481429    34B2    10.587339  
      34B1    10.587339    54A1    10.727501    20A2    10.727504  
      55A1    10.942142    35B1    10.970405    35B2    10.970405  
      36B2    11.376851    36B1    11.376851    56A1    11.559206  
      21A2    11.814953    57A1    11.814961    37B1    12.255687  
      37B2    12.255687    22A2    12.406977    58A1    12.407003  
      59A1    13.297366    38B1    13.730929    38B2    13.730929  
      60A1    14.008283    61A1    24.203056    62A1    41.899105  

    Final Occupation by Irrep:
             A1    A2    B1    B2 
    DOCC [     5,    0,    1,    1 ]

  @DF-RKS Final Energy:  -113.32993039921305

   => Energetics <=

    Nuclear Repulsion Energy =             22.5612083086907234
    One-Electron Energy =                -198.4036184865640848
    Two-Electron Energy =                  72.3035279629451253
    DFT Exchange-Correlation Energy =      -9.8501812381217189
    Empirical Dispersion Energy =           0.0000000000000000
    VV10 Nonlocal Energy =                  0.0591330538369168
    Total Energy =                       -113.3299303992130547

Computation Completed


Properties will be evaluated at   0.000000,   0.000000,   0.000000 [a0]

Properties computed using the SCF density matrix

  Nuclear Dipole Moment: [e a0]
     X:     0.0000      Y:     0.0000      Z:     0.0023

  Electronic Dipole Moment: [e a0]
     X:     0.0000      Y:     0.0000      Z:     0.0316

  Dipole Moment: [e a0]
     X:     0.0000      Y:     0.0000      Z:     0.0339     Total:     0.0339

  Dipole Moment: [D]
     X:     0.0000      Y:     0.0000      Z:     0.0861     Total:     0.0861


*** tstop() called on bp1-compute00065.data.bp.acrc.priv at Tue Apr 27 16:34:13 2021
Module time:
	user time   =      53.58 seconds =       0.89 minutes
	system time =       1.70 seconds =       0.03 minutes
	total time  =          2 seconds =       0.03 minutes
Total time:
	user time   =     274.50 seconds =       4.58 minutes
	system time =      10.19 seconds =       0.17 minutes
	total time  =         13 seconds =       0.22 minutes

  //>>>>>>>>>>>>>>>>>>>>>>>>>>>>>>>>>>>//
  //    Loading displacement 2 of 3    //
  //<<<<<<<<<<<<<<<<<<<<<<<<<<<<<<<<<<<//

*** tstart() called on bp1-compute00065.data.bp.acrc.priv
*** at Tue Apr 27 16:34:13 2021

   => Loading Basis Set <=

    Name: AUG-CC-PV(Q+D)Z
    Role: ORBITAL
    Keyword: BASIS
    atoms 1 entry C          line   319 file /work/zw18965/.conda/envs/p4env/share/psi4/basis/aug-cc-pv_qpd_z.gbs 
    atoms 2 entry O          line   439 file /work/zw18965/.conda/envs/p4env/share/psi4/basis/aug-cc-pv_qpd_z.gbs 


         ---------------------------------------------------------
                                   SCF
               by Justin Turney, Rob Parrish, Andy Simmonett
                          and Daniel G. A. Smith
                              RKS Reference
                       24 Threads, 137329 MiB Core
         ---------------------------------------------------------

  ==> Geometry <==

    Molecular point group: c2v
    Full point group: C_inf_v

    Geometry (in Angstrom), charge = 0, multiplicity = 1:

       Center              X                  Y                   Z               Mass       
    ------------   -----------------  -----------------  -----------------  -----------------
         C            0.000000000000     0.000000000000    -0.643831781891    12.000000000000
         O            0.000000000000     0.000000000000     0.483027360036    15.994914619570

  Running in c2v symmetry.

  Rotational constants: A = ************  B =      1.93630  C =      1.93630 [cm^-1]
  Rotational constants: A = ************  B =  58048.88867  C =  58048.88867 [MHz]
  Nuclear repulsion =   22.540977099175279

  Charge       = 0
  Multiplicity = 1
  Electrons    = 14
  Nalpha       = 7
  Nbeta        = 7

  ==> Algorithm <==

  SCF Algorithm Type is DF.
  DIIS enabled.
  MOM disabled.
  Fractional occupation disabled.
  Guess Type is READ.
  Energy threshold   = 1.00e-08
  Density threshold  = 1.00e-08
  Integral threshold = 0.00e+00

  ==> Primary Basis <==

  Basis Set: AUG-CC-PV(Q+D)Z
    Blend: AUG-CC-PV(Q+D)Z
    Number of shells: 40
    Number of basis function: 160
    Number of Cartesian functions: 210
    Spherical Harmonics?: true
    Max angular momentum: 4

  ==> DFT Potential <==

   => Composite Functional: WB97X-V <= 

    wB97X-V Hyb-GGA Exchange-Correlation Functional

    N. Mardirossian and M. Head-Gordon, Phys. Chem. Chem. Phys. 16, 9904 (2014)

    Deriv               =              1
    GGA                 =           TRUE
    Meta                =          FALSE

    Exchange Hybrid     =           TRUE
    MP2 Hybrid          =          FALSE

   => Exchange-Correlation Functionals <=

    1.0000   wB97X-V range-separated functional

   => Exact (HF) Exchange <=

    0.8330            HF,LR [omega = 0.3000]
    0.1670               HF 

   => VV10 Non-Local Parameters <=

    VV10 B              =     6.0000E+00
    VV10 C              =     1.0000E-02

   => Molecular Quadrature <=

    Radial Scheme          =       TREUTLER
    Pruning Scheme         =           FLAT
    Nuclear Scheme         =       TREUTLER

    BS radius alpha        =              1
    Pruning alpha          =              1
    Radial Points          =             75
    Spherical Points       =            302
    Total Points           =          45300
    Total Blocks           =            421
    Max Points             =            256
    Max Functions          =            160

   => Loading Basis Set <=

    Name: (AUG-CC-PV(Q+D)Z AUX)
    Role: JKFIT
    Keyword: DF_BASIS_SCF
    atoms 1 entry C          line   178 file /work/zw18965/.conda/envs/p4env/share/psi4/basis/aug-cc-pvqz-jkfit.gbs 
    atoms 2 entry O          line   318 file /work/zw18965/.conda/envs/p4env/share/psi4/basis/aug-cc-pvqz-jkfit.gbs 

   => Loading Basis Set <=

    Name: AUG-CC-PV(Q+D)Z
    Role: ORBITAL
    Keyword: BASIS
    atoms 1 entry C          line   319 file /work/zw18965/.conda/envs/p4env/share/psi4/basis/aug-cc-pv_qpd_z.gbs 
    atoms 2 entry O          line   439 file /work/zw18965/.conda/envs/p4env/share/psi4/basis/aug-cc-pv_qpd_z.gbs 

  Reading orbitals from file 180, no projection.

  ==> Pre-Iterations <==

   -------------------------------------------------------
    Irrep   Nso     Nmo     Nalpha   Nbeta   Ndocc  Nsocc
   -------------------------------------------------------
     A1        62      62       0       0       0       0
     A2        22      22       0       0       0       0
     B1        38      38       0       0       0       0
     B2        38      38       0       0       0       0
   -------------------------------------------------------
    Total     160     160       7       7       7       0
   -------------------------------------------------------

  ==> Integral Setup <==

  ==> DiskDFJK: Density-Fitted J/K Matrices <==

    J tasked:                  Yes
    K tasked:                  Yes
    wK tasked:                 Yes
    Omega:               3.000E-01
    OpenMP threads:             24
    Integrals threads:          24
    Memory [MiB]:           102800
    Algorithm:                Core
    Integral Cache:           NONE
    Schwarz Cutoff:          1E-12
    Fitting Condition:       1E-10

   => Auxiliary Basis Set <=

  Basis Set: (AUG-CC-PV(Q+D)Z AUX)
    Blend: AUG-CC-PVQZ-JKFIT
    Number of shells: 68
    Number of basis function: 284
    Number of Cartesian functions: 396
    Spherical Harmonics?: true
    Max angular momentum: 5

  Cached 100.0% of DFT collocation blocks in 0.192 [GiB].

  Minimum eigenvalue in the overlap matrix is 9.8336475176E-05.
  Using Symmetric Orthogonalization.

  SCF Guess: Orbitals guess was supplied from a previous computation.

  ==> Iterations <==

                           Total Energy        Delta E     RMS |[F,P]|

   @DF-RKS iter   0:  -113.32940227448347   -1.13329e+02   5.31559e-05 
   @DF-RKS iter   1:  -113.32992358129823   -5.21307e-04   5.62304e-06 DIIS
   @DF-RKS iter   2:  -113.32992355668102    2.46172e-08   7.09584e-06 DIIS
   @DF-RKS iter   3:  -113.32992367147884   -1.14798e-07   7.22795e-07 DIIS
   @DF-RKS iter   4:  -113.32992367258034   -1.10150e-09   1.13803e-07 DIIS
   @DF-RKS iter   5:  -113.32992367264556   -6.52278e-11   2.80773e-08 DIIS
   @DF-RKS iter   6:  -113.32992367264906   -3.49587e-12   4.12100e-09 DIIS
  Energy and wave function converged.


  ==> Post-Iterations <==

    Orbital Energies [Eh]
    ---------------------

    Doubly Occupied:                                                      

       1A1   -19.319287     2A1   -10.387707     3A1    -1.297050  
       4A1    -0.696738     1B2    -0.591235     1B1    -0.591235  
       5A1    -0.493191  

    Virtual:                                                              

       2B1     0.050573     2B2     0.050573     6A1     0.060300  
       7A1     0.078703     3B1     0.093727     3B2     0.093727  
       8A1     0.155141     4B1     0.161016     4B2     0.161016  
       9A1     0.217024    10A1     0.223418     1A2     0.223418  
      11A1     0.294519     5B1     0.307448     5B2     0.307448  
       6B2     0.365504     6B1     0.365504    12A1     0.377234  
      13A1     0.481666     2A2     0.507584    14A1     0.507585  
       7B1     0.581710     7B2     0.581710    15A1     0.591314  
       3A2     0.721322    16A1     0.721323     8B2     0.723960  
       8B1     0.723960    17A1     0.729351     9B2     0.777280  
       9B1     0.777280    10B2     0.838975    10B1     0.838975  
      18A1     0.839723    19A1     0.856233    20A1     0.861489  
       4A2     0.861491    11B2     1.007440    11B1     1.007440  
      21A1     1.079234    12B2     1.379540    12B1     1.379540  
      22A1     1.379569     5A2     1.419591    23A1     1.419591  
      13B1     1.449473    13B2     1.449473    24A1     1.588167  
       6A2     1.678021    25A1     1.678024    26A1     1.689901  
      14B2     1.702053    14B1     1.702053    15B2     1.859607  
      15B1     1.859607     7A2     2.032665    27A1     2.032667  
      28A1     2.035950     8A2     2.054323    29A1     2.054325  
      16B2     2.139995    16B1     2.139995    30A1     2.193913  
      17B1     2.220222    17B2     2.220222    31A1     2.265107  
       9A2     2.265108    18B2     2.275836    18B1     2.275836  
      32A1     2.360634    19B2     2.410097    19B1     2.410097  
      20B2     2.684366    20B1     2.684366    33A1     2.814500  
      34A1     2.874936    10A2     2.874941    35A1     3.338173  
      21B2     3.561086    21B1     3.561086    36A1     3.561948  
      11A2     3.561955    37A1     3.755674    22B1     3.853377  
      22B2     3.853377    38A1     3.962615    12A2     3.962618  
      23B2     4.014702    23B1     4.014702    39A1     4.094712  
      24B2     4.108646    24B1     4.108646    13A2     4.136040  
      40A1     4.136043    41A1     4.308262    25B2     4.527674  
      25B1     4.527674    42A1     4.884201    26B1     4.891484  
      26B2     4.891484    43A1     4.912991    14A2     4.912995  
      44A1     5.659393    15A2     5.698165    45A1     5.698165  
      27B2     5.909035    27B1     5.909035    28B2     5.944959  
      28B1     5.944959    16A2     6.060182    46A1     6.060196  
      29B2     6.074946    29B1     6.074946    47A1     6.150745  
      30B2     6.195282    30B1     6.195282    17A2     6.334463  
      48A1     6.334466    49A1     6.947533    18A2     7.080683  
      50A1     7.080685    31B2     7.217790    31B1     7.217790  
      51A1     7.912245    52A1     8.161828    32B2     8.285430  
      32B1     8.285430    53A1    10.205492    19A2    10.205551  
      33B1    10.480710    33B2    10.480710    34B1    10.587175  
      34B2    10.587175    54A1    10.726554    20A2    10.726556  
      55A1    10.941806    35B2    10.969834    35B1    10.969834  
      36B2    11.376815    36B1    11.376815    56A1    11.557520  
      21A2    11.813904    57A1    11.813912    37B2    12.253840  
      37B1    12.253840    22A2    12.406189    58A1    12.406215  
      59A1    13.292148    38B2    13.725325    38B1    13.725325  
      60A1    14.006776    61A1    24.190424    62A1    41.894197  

    Final Occupation by Irrep:
             A1    A2    B1    B2 
    DOCC [     5,    0,    1,    1 ]

  @DF-RKS Final Energy:  -113.32992367264906

   => Energetics <=

    Nuclear Repulsion Energy =             22.5409770991752794
    One-Electron Energy =                -198.3652203680535138
    Two-Electron Energy =                  72.2845293204320569
    DFT Exchange-Correlation Energy =      -9.8493426648923190
    Empirical Dispersion Energy =           0.0000000000000000
    VV10 Nonlocal Energy =                  0.0591329406894340
    Total Energy =                       -113.3299236726490591

Computation Completed


Properties will be evaluated at   0.000000,   0.000000,   0.000000 [a0]

Properties computed using the SCF density matrix

  Nuclear Dipole Moment: [e a0]
     X:     0.0000      Y:     0.0000      Z:     0.0023

  Electronic Dipole Moment: [e a0]
     X:     0.0000      Y:     0.0000      Z:     0.0301

  Dipole Moment: [e a0]
     X:     0.0000      Y:     0.0000      Z:     0.0324     Total:     0.0324

  Dipole Moment: [D]
     X:     0.0000      Y:     0.0000      Z:     0.0823     Total:     0.0823


*** tstop() called on bp1-compute00065.data.bp.acrc.priv at Tue Apr 27 16:34:16 2021
Module time:
	user time   =      56.02 seconds =       0.93 minutes
	system time =       2.51 seconds =       0.04 minutes
	total time  =          3 seconds =       0.05 minutes
Total time:
	user time   =     330.66 seconds =       5.51 minutes
	system time =      12.71 seconds =       0.21 minutes
	total time  =         16 seconds =       0.27 minutes

  //>>>>>>>>>>>>>>>>>>>>>>>>>>>>>>>>>>>//
  //    Loading displacement 3 of 3    //
  //<<<<<<<<<<<<<<<<<<<<<<<<<<<<<<<<<<<//

*** tstart() called on bp1-compute00065.data.bp.acrc.priv
*** at Tue Apr 27 16:34:16 2021

   => Loading Basis Set <=

    Name: AUG-CC-PV(Q+D)Z
    Role: ORBITAL
    Keyword: BASIS
    atoms 1 entry C          line   319 file /work/zw18965/.conda/envs/p4env/share/psi4/basis/aug-cc-pv_qpd_z.gbs 
    atoms 2 entry O          line   439 file /work/zw18965/.conda/envs/p4env/share/psi4/basis/aug-cc-pv_qpd_z.gbs 


         ---------------------------------------------------------
                                   SCF
               by Justin Turney, Rob Parrish, Andy Simmonett
                          and Daniel G. A. Smith
                              RKS Reference
                       24 Threads, 137329 MiB Core
         ---------------------------------------------------------

  ==> Geometry <==

    Molecular point group: c2v
    Full point group: C_inf_v

    Geometry (in Angstrom), charge = 0, multiplicity = 1:

       Center              X                  Y                   Z               Mass       
    ------------   -----------------  -----------------  -----------------  -----------------
         C            0.000000000000     0.000000000000    -0.642677101211    12.000000000000
         O            0.000000000000     0.000000000000     0.482161074189    15.994914619570

  Running in c2v symmetry.

  Rotational constants: A = ************  B =      1.94327  C =      1.94327 [cm^-1]
  Rotational constants: A = ************  B =  58257.66581  C =  58257.66581 [MHz]
  Nuclear repulsion =   22.581475867076716

  Charge       = 0
  Multiplicity = 1
  Electrons    = 14
  Nalpha       = 7
  Nbeta        = 7

  ==> Algorithm <==

  SCF Algorithm Type is DF.
  DIIS enabled.
  MOM disabled.
  Fractional occupation disabled.
  Guess Type is READ.
  Energy threshold   = 1.00e-08
  Density threshold  = 1.00e-08
  Integral threshold = 0.00e+00

  ==> Primary Basis <==

  Basis Set: AUG-CC-PV(Q+D)Z
    Blend: AUG-CC-PV(Q+D)Z
    Number of shells: 40
    Number of basis function: 160
    Number of Cartesian functions: 210
    Spherical Harmonics?: true
    Max angular momentum: 4

  ==> DFT Potential <==

   => Composite Functional: WB97X-V <= 

    wB97X-V Hyb-GGA Exchange-Correlation Functional

    N. Mardirossian and M. Head-Gordon, Phys. Chem. Chem. Phys. 16, 9904 (2014)

    Deriv               =              1
    GGA                 =           TRUE
    Meta                =          FALSE

    Exchange Hybrid     =           TRUE
    MP2 Hybrid          =          FALSE

   => Exchange-Correlation Functionals <=

    1.0000   wB97X-V range-separated functional

   => Exact (HF) Exchange <=

    0.8330            HF,LR [omega = 0.3000]
    0.1670               HF 

   => VV10 Non-Local Parameters <=

    VV10 B              =     6.0000E+00
    VV10 C              =     1.0000E-02

   => Molecular Quadrature <=

    Radial Scheme          =       TREUTLER
    Pruning Scheme         =           FLAT
    Nuclear Scheme         =       TREUTLER

    BS radius alpha        =              1
    Pruning alpha          =              1
    Radial Points          =             75
    Spherical Points       =            302
    Total Points           =          45300
    Total Blocks           =            419
    Max Points             =            256
    Max Functions          =            160

   => Loading Basis Set <=

    Name: (AUG-CC-PV(Q+D)Z AUX)
    Role: JKFIT
    Keyword: DF_BASIS_SCF
    atoms 1 entry C          line   178 file /work/zw18965/.conda/envs/p4env/share/psi4/basis/aug-cc-pvqz-jkfit.gbs 
    atoms 2 entry O          line   318 file /work/zw18965/.conda/envs/p4env/share/psi4/basis/aug-cc-pvqz-jkfit.gbs 

   => Loading Basis Set <=

    Name: AUG-CC-PV(Q+D)Z
    Role: ORBITAL
    Keyword: BASIS
    atoms 1 entry C          line   319 file /work/zw18965/.conda/envs/p4env/share/psi4/basis/aug-cc-pv_qpd_z.gbs 
    atoms 2 entry O          line   439 file /work/zw18965/.conda/envs/p4env/share/psi4/basis/aug-cc-pv_qpd_z.gbs 

  Reading orbitals from file 180, no projection.

  ==> Pre-Iterations <==

   -------------------------------------------------------
    Irrep   Nso     Nmo     Nalpha   Nbeta   Ndocc  Nsocc
   -------------------------------------------------------
     A1        62      62       0       0       0       0
     A2        22      22       0       0       0       0
     B1        38      38       0       0       0       0
     B2        38      38       0       0       0       0
   -------------------------------------------------------
    Total     160     160       7       7       7       0
   -------------------------------------------------------

  ==> Integral Setup <==

  ==> DiskDFJK: Density-Fitted J/K Matrices <==

    J tasked:                  Yes
    K tasked:                  Yes
    wK tasked:                 Yes
    Omega:               3.000E-01
    OpenMP threads:             24
    Integrals threads:          24
    Memory [MiB]:           102800
    Algorithm:                Core
    Integral Cache:           NONE
    Schwarz Cutoff:          1E-12
    Fitting Condition:       1E-10

   => Auxiliary Basis Set <=

  Basis Set: (AUG-CC-PV(Q+D)Z AUX)
    Blend: AUG-CC-PVQZ-JKFIT
    Number of shells: 68
    Number of basis function: 284
    Number of Cartesian functions: 396
    Spherical Harmonics?: true
    Max angular momentum: 5

  Cached 100.0% of DFT collocation blocks in 0.192 [GiB].

  Minimum eigenvalue in the overlap matrix is 9.7942930995E-05.
  Using Symmetric Orthogonalization.

  SCF Guess: Orbitals guess was supplied from a previous computation.

  ==> Iterations <==

                           Total Energy        Delta E     RMS |[F,P]|

   @DF-RKS iter   0:  -113.33045630846384   -1.13330e+02   5.32620e-05 
   @DF-RKS iter   1:  -113.32993232686181    5.23982e-04   5.59963e-06 DIIS
   @DF-RKS iter   2:  -113.32993230340693    2.34549e-08   7.03891e-06 DIIS
   @DF-RKS iter   3:  -113.32993241627393   -1.12867e-07   7.21200e-07 DIIS
   @DF-RKS iter   4:  -113.32993241737019   -1.09625e-09   1.12703e-07 DIIS
   @DF-RKS iter   5:  -113.32993241743441   -6.42189e-11   2.78240e-08 DIIS
   @DF-RKS iter   6:  -113.32993241743807   -3.66640e-12   4.10806e-09 DIIS
  Energy and wave function converged.


  ==> Post-Iterations <==

    Orbital Energies [Eh]
    ---------------------

    Doubly Occupied:                                                      

       1A1   -19.319186     2A1   -10.386937     3A1    -1.298168  
       4A1    -0.696750     1B1    -0.591967     1B2    -0.591967  
       5A1    -0.493014  

    Virtual:                                                              

       2B2     0.050967     2B1     0.050967     6A1     0.060276  
       7A1     0.078732     3B2     0.094052     3B1     0.094052  
       8A1     0.155150     4B2     0.160981     4B1     0.160981  
       9A1     0.217030    10A1     0.223418     1A2     0.223418  
      11A1     0.294547     5B2     0.307595     5B1     0.307595  
       6B2     0.365506     6B1     0.365506    12A1     0.377330  
      13A1     0.481674     2A2     0.507499    14A1     0.507500  
       7B2     0.581662     7B1     0.581662    15A1     0.592253  
       3A2     0.721380    16A1     0.721381     8B2     0.723981  
       8B1     0.723981    17A1     0.729533     9B2     0.777590  
       9B1     0.777590    10B2     0.838885    10B1     0.838885  
      18A1     0.840205    19A1     0.856992    20A1     0.861608  
       4A2     0.861609    11B1     1.007775    11B2     1.007775  
      21A1     1.080341    12B1     1.379748    12B2     1.379748  
      22A1     1.380275     5A2     1.419432    23A1     1.419432  
      13B2     1.449353    13B1     1.449353    24A1     1.588107  
       6A2     1.678169    25A1     1.678173    26A1     1.689506  
      14B2     1.703595    14B1     1.703595    15B1     1.858669  
      15B2     1.858669     7A2     2.032744    27A1     2.032745  
      28A1     2.036993     8A2     2.054745    29A1     2.054747  
      16B1     2.140110    16B2     2.140110    30A1     2.194101  
      17B2     2.220667    17B1     2.220667    31A1     2.265439  
       9A2     2.265440    18B2     2.276534    18B1     2.276534  
      32A1     2.360974    19B2     2.410734    19B1     2.410734  
      20B1     2.685949    20B2     2.685949    33A1     2.817393  
      34A1     2.876511    10A2     2.876517    35A1     3.337890  
      21B1     3.561806    21B2     3.561806    36A1     3.562396  
      11A2     3.562403    37A1     3.756680    22B2     3.853369  
      22B1     3.853369    38A1     3.962653    12A2     3.962657  
      23B1     4.014914    23B2     4.014914    39A1     4.095406  
      24B1     4.110768    24B2     4.110768    13A2     4.136953  
      40A1     4.136955    41A1     4.311617    25B1     4.527169  
      25B2     4.527169    42A1     4.881067    26B1     4.894632  
      26B2     4.894632    43A1     4.914115    14A2     4.914119  
      44A1     5.667051    15A2     5.698315    45A1     5.698316  
      27B1     5.910885    27B2     5.910885    28B2     5.946867  
      28B1     5.946867    16A2     6.060739    46A1     6.060753  
      29B1     6.075705    29B2     6.075705    47A1     6.149773  
      30B2     6.195478    30B1     6.195478    17A2     6.335376  
      48A1     6.335378    49A1     6.955496    18A2     7.088217  
      50A1     7.088219    31B1     7.222304    31B2     7.222304  
      51A1     7.919242    52A1     8.160474    32B1     8.292395  
      32B2     8.292395    53A1    10.205472    19A2    10.205530  
      33B2    10.482151    33B1    10.482151    34B1    10.587499  
      34B2    10.587499    54A1    10.728452    20A2    10.728456  
      55A1    10.942474    35B1    10.970972    35B2    10.970972  
      36B1    11.376887    36B2    11.376887    56A1    11.560887  
      21A2    11.816001    57A1    11.816009    37B1    12.257555  
      37B2    12.257555    22A2    12.407771    58A1    12.407796  
      59A1    13.302568    38B1    13.736539    38B2    13.736539  
      60A1    14.009827    61A1    24.215678    62A1    41.904024  

    Final Occupation by Irrep:
             A1    A2    B1    B2 
    DOCC [     5,    0,    1,    1 ]

  @DF-RKS Final Energy:  -113.32993241743807

   => Energetics <=

    Nuclear Repulsion Energy =             22.5814758670767155
    One-Electron Energy =                -198.4420767902885814
    Two-Electron Energy =                  72.3225571328122356
    DFT Exchange-Correlation Energy =      -9.8510217956774575
    Empirical Dispersion Energy =           0.0000000000000000
    VV10 Nonlocal Energy =                  0.0591331686390162
    Total Energy =                       -113.3299324174380729

Computation Completed


Properties will be evaluated at   0.000000,   0.000000,   0.000000 [a0]

Properties computed using the SCF density matrix

  Nuclear Dipole Moment: [e a0]
     X:     0.0000      Y:     0.0000      Z:     0.0023

  Electronic Dipole Moment: [e a0]
     X:     0.0000      Y:     0.0000      Z:     0.0331

  Dipole Moment: [e a0]
     X:     0.0000      Y:     0.0000      Z:     0.0354     Total:     0.0354

  Dipole Moment: [D]
     X:     0.0000      Y:     0.0000      Z:     0.0899     Total:     0.0899


*** tstop() called on bp1-compute00065.data.bp.acrc.priv at Tue Apr 27 16:34:18 2021
Module time:
	user time   =      51.96 seconds =       0.87 minutes
	system time =       2.88 seconds =       0.05 minutes
	total time  =          2 seconds =       0.03 minutes
Total time:
	user time   =     382.76 seconds =       6.38 minutes
	system time =      15.60 seconds =       0.26 minutes
	total time  =         18 seconds =       0.30 minutes

         ----------------------------------------------------------
                                   FINDIF
                     R. A. King and Jonathon Misiewicz
         ---------------------------------------------------------

  Computing gradient from energies.
    Using 3-point formula.
    Energy without displacement: -113.3299303992
    Check energies below for precision!
    Forces are for mass-weighted, symmetry-adapted cartesians (in au).

     Coord      Energy(-1)        Energy(+1)            Force
        0   -113.3299236726   -113.3299324174     -0.0008744789


-------------------------------------------------------------
  ## New Matrix (Symmetry 0) ##
  Irrep: 1 Size: 2 x 3

                 1                   2                   3

    1     0.00000000000000     0.00000000000000    -0.00228976729576
    2     0.00000000000000     0.00000000000000     0.00228976729576




			-----------------------------------------
			 OPTKING 2.0: for geometry optimizations 
			  - R.A. King,  Bethel University        
			-----------------------------------------
	At level 1: Red. Int., RFO, no backsteps, dynamic trust

	Previous internal coordinate definitions found.
	---Fragment 1 Geometry and Gradient---
	 C           0.0000000000        0.0000000000       -1.2155747235
	 O           0.0000000000        0.0000000000        0.9119709001
	             0.0000000000        0.0000000000       -0.0022897673
	             0.0000000000        0.0000000000        0.0022897673

	---Fragment 1 Intrafragment Coordinates---
	 - Coordinate -           - BOHR/RAD -       - ANG/DEG -
	 R(1,2)           =         2.127546	       1.125849

	Current energy   :      -113.3299303992

	Energy change for the previous step:
		Projected    :        -0.0001084035
		Actual       :        -0.0000942053
	Energy ratio indicates good step: Trust radius increased to 1.000e+00.


	Performing BFGS update.
	Previous computed or guess Hessian on step 1.
[...]
    Total Energy =                       -113.3299301580816376

Computation Completed


Properties will be evaluated at   0.000000,   0.000000,   0.000000 [a0]

Properties computed using the SCF density matrix

  Nuclear Dipole Moment: [e a0]
     X:     0.0000      Y:     0.0000      Z:     0.0023

  Electronic Dipole Moment: [e a0]
     X:     0.0000      Y:     0.0000      Z:     0.0315

  Dipole Moment: [e a0]
     X:     0.0000      Y:     0.0000      Z:     0.0338     Total:     0.0338

  Dipole Moment: [D]
     X:     0.0000      Y:     0.0000      Z:     0.0859     Total:     0.0859


*** tstop() called on bp1-compute00065.data.bp.acrc.priv at Tue Apr 27 16:34:43 2021
Module time:
	user time   =      78.75 seconds =       1.31 minutes
	system time =       3.71 seconds =       0.06 minutes
	total time  =          4 seconds =       0.07 minutes
Total time:
	user time   =     920.05 seconds =      15.33 minutes
	system time =      36.11 seconds =       0.60 minutes
	total time  =         43 seconds =       0.72 minutes

  //>>>>>>>>>>>>>>>>>>>>>>>>>>>>>>>>>>>//
  //    Loading displacement 3 of 3    //
  //<<<<<<<<<<<<<<<<<<<<<<<<<<<<<<<<<<<//

*** tstart() called on bp1-compute00065.data.bp.acrc.priv
*** at Tue Apr 27 16:34:43 2021

   => Loading Basis Set <=

    Name: AUG-CC-PV(Q+D)Z
    Role: ORBITAL
    Keyword: BASIS
    atoms 1 entry C          line   319 file /work/zw18965/.conda/envs/p4env/share/psi4/basis/aug-cc-pv_qpd_z.gbs 
    atoms 2 entry O          line   439 file /work/zw18965/.conda/envs/p4env/share/psi4/basis/aug-cc-pv_qpd_z.gbs 


         ---------------------------------------------------------
                                   SCF
               by Justin Turney, Rob Parrish, Andy Simmonett
                          and Daniel G. A. Smith
                              RKS Reference
                       24 Threads, 137329 MiB Core
         ---------------------------------------------------------

  ==> Geometry <==

    Molecular point group: c2v
    Full point group: C_inf_v

    Geometry (in Angstrom), charge = 0, multiplicity = 1:

       Center              X                  Y                   Z               Mass       
    ------------   -----------------  -----------------  -----------------  -----------------
         C            0.000000000000     0.000000000000    -0.642130636320    12.000000000000
         O            0.000000000000     0.000000000000     0.481751095215    15.994914619570

  Running in c2v symmetry.

  Rotational constants: A = ************  B =      1.94658  C =      1.94658 [cm^-1]
  Rotational constants: A = ************  B =  58356.86467  C =  58356.86467 [MHz]
  Nuclear repulsion =   22.600693115160304

  Charge       = 0
  Multiplicity = 1
  Electrons    = 14
  Nalpha       = 7
  Nbeta        = 7

  ==> Algorithm <==

  SCF Algorithm Type is DF.
  DIIS enabled.
  MOM disabled.
  Fractional occupation disabled.
  Guess Type is SAD.
  Energy threshold   = 1.00e-10
  Density threshold  = 1.00e-10
  Integral threshold = 0.00e+00

  ==> Primary Basis <==

  Basis Set: AUG-CC-PV(Q+D)Z
    Blend: AUG-CC-PV(Q+D)Z
    Number of shells: 40
    Number of basis function: 160
    Number of Cartesian functions: 210
    Spherical Harmonics?: true
    Max angular momentum: 4

  ==> DFT Potential <==

   => Composite Functional: WB97X-V <= 

    wB97X-V Hyb-GGA Exchange-Correlation Functional

    N. Mardirossian and M. Head-Gordon, Phys. Chem. Chem. Phys. 16, 9904 (2014)

    Deriv               =              1
    GGA                 =           TRUE
    Meta                =          FALSE

    Exchange Hybrid     =           TRUE
    MP2 Hybrid          =          FALSE

   => Exchange-Correlation Functionals <=

    1.0000   wB97X-V range-separated functional

   => Exact (HF) Exchange <=

    0.8330            HF,LR [omega = 0.3000]
    0.1670               HF 

   => VV10 Non-Local Parameters <=

    VV10 B              =     6.0000E+00
    VV10 C              =     1.0000E-02

   => Molecular Quadrature <=

    Radial Scheme          =       TREUTLER
    Pruning Scheme         =           FLAT
    Nuclear Scheme         =       TREUTLER

    BS radius alpha        =              1
    Pruning alpha          =              1
    Radial Points          =             75
    Spherical Points       =            302
    Total Points           =          45300
    Total Blocks           =            419
    Max Points             =            256
    Max Functions          =            160

   => Loading Basis Set <=

    Name: (AUG-CC-PV(Q+D)Z AUX)
    Role: JKFIT
    Keyword: DF_BASIS_SCF
    atoms 1 entry C          line   178 file /work/zw18965/.conda/envs/p4env/share/psi4/basis/aug-cc-pvqz-jkfit.gbs 
    atoms 2 entry O          line   318 file /work/zw18965/.conda/envs/p4env/share/psi4/basis/aug-cc-pvqz-jkfit.gbs 

  ==> Pre-Iterations <==

   -------------------------------------------------------
    Irrep   Nso     Nmo     Nalpha   Nbeta   Ndocc  Nsocc
   -------------------------------------------------------
     A1        62      62       0       0       0       0
     A2        22      22       0       0       0       0
     B1        38      38       0       0       0       0
     B2        38      38       0       0       0       0
   -------------------------------------------------------
    Total     160     160       7       7       7       0
   -------------------------------------------------------

  ==> Integral Setup <==

  ==> DiskDFJK: Density-Fitted J/K Matrices <==

    J tasked:                  Yes
    K tasked:                  Yes
    wK tasked:                 Yes
    Omega:               3.000E-01
    OpenMP threads:             24
    Integrals threads:          24
    Memory [MiB]:           102800
    Algorithm:                Core
    Integral Cache:           NONE
    Schwarz Cutoff:          1E-12
    Fitting Condition:       1E-10

   => Auxiliary Basis Set <=

  Basis Set: (AUG-CC-PV(Q+D)Z AUX)
    Blend: AUG-CC-PVQZ-JKFIT
    Number of shells: 68
    Number of basis function: 284
    Number of Cartesian functions: 396
    Spherical Harmonics?: true
    Max angular momentum: 5

  Cached 100.0% of DFT collocation blocks in 0.192 [GiB].

  Minimum eigenvalue in the overlap matrix is 9.7757117752E-05.
  Using Symmetric Orthogonalization.

  SCF Guess: Superposition of Atomic Densities via on-the-fly atomic UHF.

  ==> Iterations <==

                           Total Energy        Delta E     RMS |[F,P]|

   @DF-RKS iter SAD:  -112.58366639818817   -1.12584e+02   0.00000e+00 
   @DF-RKS iter   1:  -113.29248107784653   -7.08815e-01   4.13077e-03 DIIS
   @DF-RKS iter   2:  -113.27710609300445    1.53750e-02   4.83615e-03 DIIS
   @DF-RKS iter   3:  -113.32870681996540   -5.16007e-02   6.60522e-04 DIIS
   @DF-RKS iter   4:  -113.32991105547232   -1.20424e-03   7.29462e-05 DIIS
   @DF-RKS iter   5:  -113.32992918162502   -1.81262e-05   1.13938e-05 DIIS
   @DF-RKS iter   6:  -113.32992990970187   -7.28077e-07   2.34556e-06 DIIS
   @DF-RKS iter   7:  -113.32992995878182   -4.90799e-08   3.16051e-07 DIIS
   @DF-RKS iter   8:  -113.32992995991081   -1.12900e-09   6.37139e-08 DIIS
   @DF-RKS iter   9:  -113.32992995992988   -1.90710e-11   6.14074e-09 DIIS
   @DF-RKS iter  10:  -113.32992995993001   -1.27898e-13   9.62173e-10 DIIS
   @DF-RKS iter  11:  -113.32992995993004   -2.84217e-14   8.40796e-11 DIIS
  Energy and wave function converged.


  ==> Post-Iterations <==

    Orbital Energies [Eh]
    ---------------------

    Doubly Occupied:                                                      

       1A1   -19.319137     2A1   -10.386572     3A1    -1.298697  
       4A1    -0.696756     1B1    -0.592315     1B2    -0.592315  
       5A1    -0.492930  

    Virtual:                                                              

       2B2     0.051151     2B1     0.051151     6A1     0.060265  
       7A1     0.078746     3B2     0.094209     3B1     0.094209  
       8A1     0.155154     4B2     0.160965     4B1     0.160965  
       9A1     0.217033    10A1     0.223418     1A2     0.223418  
      11A1     0.294560     5B2     0.307665     5B1     0.307665  
       6B1     0.365508     6B2     0.365508    12A1     0.377375  
      13A1     0.481678     2A2     0.507459    14A1     0.507459  
       7B2     0.581639     7B1     0.581639    15A1     0.592692  
       3A2     0.721407    16A1     0.721408     8B1     0.723991  
       8B2     0.723991    17A1     0.729619     9B1     0.777737  
       9B2     0.777737    10B1     0.838843    10B2     0.838843  
      18A1     0.840422    19A1     0.857362    20A1     0.861664  
       4A2     0.861665    11B1     1.007935    11B2     1.007935  
      21A1     1.080874    12B2     1.379847    12B1     1.379847  
      22A1     1.380610     5A2     1.419357    23A1     1.419357  
      13B1     1.449295    13B2     1.449295    24A1     1.588076  
       6A2     1.678239    25A1     1.678242    26A1     1.689322  
      14B1     1.704326    14B2     1.704326    15B1     1.858227  
      15B2     1.858227     7A2     2.032781    27A1     2.032782  
      28A1     2.037486     8A2     2.054945    29A1     2.054948  
      16B1     2.140165    16B2     2.140165    30A1     2.194191  
      17B1     2.220877    17B2     2.220877    31A1     2.265595  
       9A2     2.265596    18B2     2.276865    18B1     2.276865  
      32A1     2.361139    19B1     2.411034    19B2     2.411034  
      20B1     2.686702    20B2     2.686702    33A1     2.818761  
      34A1     2.877256    10A2     2.877262    35A1     3.337748  
      21B1     3.562142    21B2     3.562142    36A1     3.562609  
      11A2     3.562616    37A1     3.757155    22B2     3.853365  
      22B1     3.853365    38A1     3.962673    12A2     3.962677  
      23B2     4.015013    23B1     4.015013    39A1     4.095735  
      24B1     4.111775    24B2     4.111775    13A2     4.137385  
      40A1     4.137387    41A1     4.313215    25B1     4.526947  
      25B2     4.526947    42A1     4.879589    26B1     4.896119  
      26B2     4.896119    43A1     4.914641    14A2     4.914645  
      44A1     5.670675    15A2     5.698386    45A1     5.698387  
      27B1     5.911764    27B2     5.911764    28B2     5.947765  
      28B1     5.947765    16A2     6.061000    46A1     6.061014  
      29B1     6.076070    29B2     6.076070    47A1     6.149308  
      30B2     6.195571    30B1     6.195571    17A2     6.335814  
      48A1     6.335816    49A1     6.959263    18A2     7.091792  
      50A1     7.091794    31B1     7.224445    31B2     7.224445  
      51A1     7.922542    52A1     8.159865    32B1     8.295691  
      32B2     8.295691    53A1    10.205463    19A2    10.205520  
      33B1    10.482837    33B2    10.482837    34B1    10.587647  
      34B2    10.587647    54A1    10.729357    20A2    10.729361  
      55A1    10.942784    35B1    10.971505    35B2    10.971505  
      36B2    11.376922    36B1    11.376922    56A1    11.562473  
      21A2    11.816994    57A1    11.817002    37B1    12.259343  
      37B2    12.259343    22A2    12.408526    58A1    12.408551  
      59A1    13.307476    38B1    13.741854    38B2    13.741854  
      60A1    14.011322    61A1    24.227617    62A1    41.908690  

    Final Occupation by Irrep:
             A1    A2    B1    B2 
    DOCC [     5,    0,    1,    1 ]

  @DF-RKS Final Energy:  -113.32992995993004

   => Energetics <=

    Nuclear Repulsion Energy =             22.6006931151603041
    One-Electron Energy =                -198.4785371022478841
    Two-Electron Energy =                  72.3406003039539200
    DFT Exchange-Correlation Energy =      -9.8518195563414004
    Empirical Dispersion Energy =           0.0000000000000000
    VV10 Nonlocal Energy =                  0.0591332795450094
    Total Energy =                       -113.3299299599300412

Computation Completed


Properties will be evaluated at   0.000000,   0.000000,   0.000000 [a0]

Properties computed using the SCF density matrix

  Nuclear Dipole Moment: [e a0]
     X:     0.0000      Y:     0.0000      Z:     0.0023

  Electronic Dipole Moment: [e a0]
     X:     0.0000      Y:     0.0000      Z:     0.0345

  Dipole Moment: [e a0]
     X:     0.0000      Y:     0.0000      Z:     0.0368     Total:     0.0368

  Dipole Moment: [D]
     X:     0.0000      Y:     0.0000      Z:     0.0936     Total:     0.0936


*** tstop() called on bp1-compute00065.data.bp.acrc.priv at Tue Apr 27 16:34:46 2021
Module time:
	user time   =      77.99 seconds =       1.30 minutes
	system time =       2.50 seconds =       0.04 minutes
	total time  =          3 seconds =       0.05 minutes
Total time:
	user time   =     998.17 seconds =      16.64 minutes
	system time =      38.62 seconds =       0.64 minutes
	total time  =         46 seconds =       0.77 minutes

         ----------------------------------------------------------
                                   FINDIF
                     R. A. King and Jonathon Misiewicz
         ---------------------------------------------------------

  Computing second-derivative from energies using projected, 
  symmetry-adapted, cartesian coordinates.

  3 energies passed in, including the reference geometry.
    Using 3-point formula.
    Energy without displacement: -113.3299324282
    Check energies below for precision!
    0: -1 :      -113.3299301581
    0: 1  :      -113.3299299599

-------------------------------------------------------------


  ==> Harmonic Vibrational Analysis <==

  non-mass-weighted Hessian:       Symmetric? True   Hermitian? True   Lin Dep Dim?  5 (0)
  projection of translations (True) and rotations (True) removed 5 degrees of freedom (5)
  total projector:                 Symmetric? True   Hermitian? True   Lin Dep Dim?  5 (5)
  mass-weighted Hessian:           Symmetric? True   Hermitian? True   Lin Dep Dim?  5 (0)
  pre-proj  low-frequency mode:    0.0000i [cm^-1]
  pre-proj  low-frequency mode:    0.0000  [cm^-1]
  pre-proj  low-frequency mode:    0.0000  [cm^-1]
  pre-proj  low-frequency mode:    0.0000  [cm^-1]
  pre-proj  low-frequency mode:    0.0000  [cm^-1]
  pre-proj  all modes:['0.0000i' '0.0000' '0.0000' '0.0000' '0.0000' '2237.9396']
  projected mass-weighted Hessian: Symmetric? True   Hermitian? True   Lin Dep Dim?  5 (5)
  post-proj low-frequency mode:    0.0000i [cm^-1] (TR)
  post-proj low-frequency mode:    0.0000  [cm^-1] (TR)
  post-proj low-frequency mode:    0.0000  [cm^-1] (TR)
  post-proj low-frequency mode:    0.0000  [cm^-1] (TR)
  post-proj low-frequency mode:    0.0000  [cm^-1] (TR)
  post-proj  all modes:['0.0000i' '0.0000' '0.0000' '0.0000' '0.0000' '2237.9396']

  Vibration                       6           
  Freq [cm^-1]                2237.9396       
  Irrep                           A1          
  Reduced mass [u]             13.4388        
  Force const [mDyne/A]        39.6557        
  Turning point v=0 [a0]        0.0633        
  RMS dev v=0 [a0 u^1/2]        0.1640        
  Char temp [K]               3219.8968       
  ----------------------------------------------------------------------------------
      1   C                0.00  0.00  0.80   
      2   O               -0.00  0.00 -0.60   

  ==> Thermochemistry Components <==

  Entropy, S
    Electronic S            0.000 [cal/(mol K)]        0.000 [J/(mol K)]       0.00000000 [mEh/K] (multiplicity = 1)
    Translational S        35.923 [cal/(mol K)]      150.302 [J/(mol K)]       0.05724692 [mEh/K] (mol. weight = 27.9949 [u], P = 101325.00 [Pa])
    Rotational S           11.267 [cal/(mol K)]       47.139 [J/(mol K)]       0.01795432 [mEh/K] (symmetry no. = 1)
    Vibrational S           0.000 [cal/(mol K)]        0.002 [J/(mol K)]       0.00000076 [mEh/K]
  Total S                  47.190 [cal/(mol K)]      197.443 [J/(mol K)]       0.07520201 [mEh/K]
  Correction S              0.000 [cal/(mol K)]        0.000 [J/(mol K)]       0.00000000 [mEh/K]

  Constant volume heat capacity, Cv
    Electronic Cv           0.000 [cal/(mol K)]        0.000 [J/(mol K)]       0.00000000 [mEh/K]
    Translational Cv        2.981 [cal/(mol K)]       12.472 [J/(mol K)]       0.00475022 [mEh/K]
    Rotational Cv           1.987 [cal/(mol K)]        8.314 [J/(mol K)]       0.00316681 [mEh/K]
    Vibrational Cv          0.005 [cal/(mol K)]        0.020 [J/(mol K)]       0.00000754 [mEh/K]
  Total Cv                  4.973 [cal/(mol K)]       20.806 [J/(mol K)]       0.00792456 [mEh/K]
  Correction Cv             0.000 [cal/(mol K)]        0.000 [J/(mol K)]       0.00000000 [mEh/K]

  Constant pressure heat capacity, Cp
    Electronic Cp           0.000 [cal/(mol K)]        0.000 [J/(mol K)]       0.00000000 [mEh/K]
    Translational Cp        4.968 [cal/(mol K)]       20.786 [J/(mol K)]       0.00791703 [mEh/K]
    Rotational Cp           1.987 [cal/(mol K)]        8.314 [J/(mol K)]       0.00316681 [mEh/K]
    Vibrational Cp          0.005 [cal/(mol K)]        0.020 [J/(mol K)]       0.00000754 [mEh/K]
  Total Cp                  6.960 [cal/(mol K)]       29.120 [J/(mol K)]       0.01109137 [mEh/K]
  Correction Cp             0.000 [cal/(mol K)]        0.000 [J/(mol K)]       0.00000000 [mEh/K]

  ==> Thermochemistry Energy Analysis <==

  Raw electronic energy, E0
  Total E0, Electronic energy at well bottom at 0 [K]                 -113.32993243 [Eh]

  Zero-point energy, ZPE_vib = Sum_i nu_i / 2
    Electronic ZPE          0.000 [kcal/mol]        0.000 [kJ/mol]       0.00000000 [Eh]
    Translational ZPE       0.000 [kcal/mol]        0.000 [kJ/mol]       0.00000000 [Eh]
    Rotational ZPE          0.000 [kcal/mol]        0.000 [kJ/mol]       0.00000000 [Eh]
    Vibrational ZPE         3.199 [kcal/mol]       13.386 [kJ/mol]       0.00509840 [Eh]        1118.970 [cm^-1]
  Correction ZPE            3.199 [kcal/mol]       13.386 [kJ/mol]       0.00509840 [Eh]        1118.970 [cm^-1]
  Total ZPE, Electronic energy at 0 [K]                               -113.32483403 [Eh]

  Thermal Energy, E (includes ZPE)
    Electronic E            0.000 [kcal/mol]        0.000 [kJ/mol]       0.00000000 [Eh]
    Translational E         0.889 [kcal/mol]        3.718 [kJ/mol]       0.00141628 [Eh]
    Rotational E            0.592 [kcal/mol]        2.479 [kJ/mol]       0.00094418 [Eh]
    Vibrational E           3.199 [kcal/mol]       13.386 [kJ/mol]       0.00509861 [Eh]
  Correction E              4.681 [kcal/mol]       19.584 [kJ/mol]       0.00745907 [Eh]
  Total E, Electronic energy at  298.15 [K]                           -113.32247336 [Eh]

  Enthalpy, H_trans = E_trans + k_B * T
    Electronic H            0.000 [kcal/mol]        0.000 [kJ/mol]       0.00000000 [Eh]
    Translational H         1.481 [kcal/mol]        6.197 [kJ/mol]       0.00236046 [Eh]
    Rotational H            0.592 [kcal/mol]        2.479 [kJ/mol]       0.00094418 [Eh]
    Vibrational H           3.199 [kcal/mol]       13.386 [kJ/mol]       0.00509861 [Eh]
  Correction H              5.273 [kcal/mol]       22.063 [kJ/mol]       0.00840326 [Eh]
  Total H, Enthalpy at  298.15 [K]                                    -113.32152917 [Eh]

  Gibbs free energy, G = H - T * S
    Electronic G            0.000 [kcal/mol]        0.000 [kJ/mol]       0.00000000 [Eh]
    Translational G        -9.229 [kcal/mol]      -38.615 [kJ/mol]      -0.01470771 [Eh]
    Rotational G           -2.767 [kcal/mol]      -11.576 [kJ/mol]      -0.00440890 [Eh]
    Vibrational G           3.199 [kcal/mol]       13.386 [kJ/mol]       0.00509838 [Eh]
  Correction G             -8.797 [kcal/mol]      -36.805 [kJ/mol]      -0.01401822 [Eh]
  Total G, Free enthalpy at  298.15 [K]                               -113.34395065 [Eh]

    Psi4 stopped on: Tuesday, 27 April 2021 04:34PM
    Psi4 wall time for execution: 0:00:46.46

*** Psi4 exiting successfully. Buy a developer a beer!
