
    -----------------------------------------------------------------------
          Psi4: An Open-Source Ab Initio Electronic Structure Package
                               Psi4 1.3.2 release

                         Git: Rev {HEAD} ecbda83 


    R. M. Parrish, L. A. Burns, D. G. A. Smith, A. C. Simmonett,
    A. E. DePrince III, E. G. Hohenstein, U. Bozkaya, A. Yu. Sokolov,
    R. Di Remigio, R. M. Richard, J. F. Gonthier, A. M. James,
    H. R. McAlexander, A. Kumar, M. Saitow, X. Wang, B. P. Pritchard,
    P. Verma, H. F. Schaefer III, K. Patkowski, R. A. King, E. F. Valeev,
    F. A. Evangelista, J. M. Turney, T. D. Crawford, and C. D. Sherrill,
    J. Chem. Theory Comput. 13(7) pp 3185--3197 (2017).
    (doi: 10.1021/acs.jctc.7b00174)


                         Additional Contributions by
    P. Kraus, H. Kruse, M. H. Lechner, M. C. Schieber, R. A. Shaw,
    A. Alenaizan, R. Galvelis, Z. L. Glick, S. Lehtola, and J. P. Misiewicz

    -----------------------------------------------------------------------


    Psi4 started on: Tuesday, 20 April 2021 11:02AM

    Process ID: 49118
    Host:       bp1-compute00155.data.bp.acrc.priv
    PSIDATADIR: /work/zw18965/.conda/envs/p4env/share/psi4
    Memory:     500.0 MiB
    Threads:    24
    
  ==> Input File <==

--------------------------------------------------------------------------
memory 144 GB

molecule {
0 1
O     0.562242499669   0.000000000000   0.000000000000
C    -0.562242499669   0.000000000000   0.000000000000}

set basis aug-cc-pV(Q+d)Z
 
optimize("wB97X-V")
frequencies("wB97X-V")--------------------------------------------------------------------------

  Memory set to 134.110 GiB by Python driver.
gradient() will perform gradient computation by finite difference of analytic energies.

         ----------------------------------------------------------
                                   FINDIF
                     R. A. King and Jonathon Misiewicz
         ---------------------------------------------------------

  Using finite-differences of energies to determine gradients.
    Generating geometries for use with 3-point formula.
    Displacement size will be 5.00e-03.
    Number of atoms is 2.
    Number of symmetric SALCs is 1.
    Translations projected? 1. Rotations projected? 1.
    Number of geometries (including reference) is 3.

  //>>>>>>>>>>>>>>>>>>>>>>>>>>>>>>>>>>>//
  //    Loading displacement 1 of 3    //
  //<<<<<<<<<<<<<<<<<<<<<<<<<<<<<<<<<<<//

*** tstart() called on bp1-compute00155.data.bp.acrc.priv
*** at Tue Apr 20 11:02:46 2021

   => Loading Basis Set <=

    Name: AUG-CC-PV(Q+D)Z
    Role: ORBITAL
    Keyword: BASIS
    atoms 1 entry O          line   439 file /work/zw18965/.conda/envs/p4env/share/psi4/basis/aug-cc-pv_qpd_z.gbs 
    atoms 2 entry C          line   319 file /work/zw18965/.conda/envs/p4env/share/psi4/basis/aug-cc-pv_qpd_z.gbs 


         ---------------------------------------------------------
                                   SCF
               by Justin Turney, Rob Parrish, Andy Simmonett
                          and Daniel G. A. Smith
                              RKS Reference
                       24 Threads, 137329 MiB Core
         ---------------------------------------------------------

  ==> Geometry <==

    Molecular point group: c2v
    Full point group: C_inf_v

    Geometry (in Angstrom), charge = 0, multiplicity = 1:

       Center              X                  Y                   Z               Mass       
    ------------   -----------------  -----------------  -----------------  -----------------
         O            0.000000000000     0.000000000000     0.482009685524    15.994914619570
         C            0.000000000000     0.000000000000    -0.642475313814    12.000000000000

  Running in c2v symmetry.

  Rotational constants: A = ************  B =      1.94449  C =      1.94449 [cm^-1]
  Rotational constants: A = ************  B =  58294.26646  C =  58294.26646 [MHz]
  Nuclear repulsion =   22.588568213105230

  Charge       = 0
  Multiplicity = 1
  Electrons    = 14
  Nalpha       = 7
  Nbeta        = 7

  ==> Algorithm <==

  SCF Algorithm Type is DF.
  DIIS enabled.
  MOM disabled.
  Fractional occupation disabled.
  Guess Type is SAD.
  Energy threshold   = 1.00e-08
  Density threshold  = 1.00e-08
  Integral threshold = 0.00e+00

  ==> Primary Basis <==

  Basis Set: AUG-CC-PV(Q+D)Z
    Blend: AUG-CC-PV(Q+D)Z
    Number of shells: 40
    Number of basis function: 160
    Number of Cartesian functions: 210
    Spherical Harmonics?: true
    Max angular momentum: 4

  ==> DFT Potential <==

   => Composite Functional: WB97X-V <= 

    wB97X-V Hyb-GGA Exchange-Correlation Functional

    N. Mardirossian and M. Head-Gordon, Phys. Chem. Chem. Phys. 16, 9904 (2014)

    Deriv               =              1
    GGA                 =           TRUE
    Meta                =          FALSE

    Exchange Hybrid     =           TRUE
    MP2 Hybrid          =          FALSE

   => Exchange-Correlation Functionals <=

    1.0000   wB97X-V range-separated functional

   => Exact (HF) Exchange <=

    0.8330            HF,LR [omega = 0.3000]
    0.1670               HF 

   => VV10 Non-Local Parameters <=

    VV10 B              =     6.0000E+00
    VV10 C              =     1.0000E-02

   => Molecular Quadrature <=

    Radial Scheme          =       TREUTLER
    Pruning Scheme         =           FLAT
    Nuclear Scheme         =       TREUTLER

    BS radius alpha        =              1
    Pruning alpha          =              1
    Radial Points          =             75
    Spherical Points       =            302
    Total Points           =          45300
    Total Blocks           =            419
    Max Points             =            256
    Max Functions          =            160

   => Loading Basis Set <=

    Name: (AUG-CC-PV(Q+D)Z AUX)
    Role: JKFIT
    Keyword: DF_BASIS_SCF
    atoms 1 entry O          line   318 file /work/zw18965/.conda/envs/p4env/share/psi4/basis/aug-cc-pvqz-jkfit.gbs 
    atoms 2 entry C          line   178 file /work/zw18965/.conda/envs/p4env/share/psi4/basis/aug-cc-pvqz-jkfit.gbs 

  ==> Pre-Iterations <==

   -------------------------------------------------------
    Irrep   Nso     Nmo     Nalpha   Nbeta   Ndocc  Nsocc
   -------------------------------------------------------
     A1        62      62       0       0       0       0
     A2        22      22       0       0       0       0
     B1        38      38       0       0       0       0
     B2        38      38       0       0       0       0
   -------------------------------------------------------
    Total     160     160       7       7       7       0
   -------------------------------------------------------

  ==> Integral Setup <==

  ==> DiskDFJK: Density-Fitted J/K Matrices <==

    J tasked:                  Yes
    K tasked:                  Yes
    wK tasked:                 Yes
    Omega:               3.000E-01
    OpenMP threads:             24
    Integrals threads:          24
    Memory [MiB]:           102800
    Algorithm:                Core
    Integral Cache:           NONE
    Schwarz Cutoff:          1E-12
    Fitting Condition:       1E-10

   => Auxiliary Basis Set <=

  Basis Set: (AUG-CC-PV(Q+D)Z AUX)
    Blend: AUG-CC-PVQZ-JKFIT
    Number of shells: 68
    Number of basis function: 284
    Number of Cartesian functions: 396
    Spherical Harmonics?: true
    Max angular momentum: 5

  Cached 100.0% of DFT collocation blocks in 0.192 [GiB].

  Minimum eigenvalue in the overlap matrix is 9.7874285316E-05.
  Using Symmetric Orthogonalization.

  SCF Guess: Superposition of Atomic Densities via on-the-fly atomic UHF.

  ==> Iterations <==

                           Total Energy        Delta E     RMS |[F,P]|

   @DF-RKS iter SAD:  -112.58263643555016   -1.12583e+02   0.00000e+00 
   @DF-RKS iter   1:  -113.29247964777858   -7.09843e-01   4.13011e-03 DIIS
   @DF-RKS iter   2:  -113.27690678977646    1.55729e-02   4.84430e-03 DIIS
   @DF-RKS iter   3:  -113.32871267746178   -5.18059e-02   6.59233e-04 DIIS
   @DF-RKS iter   4:  -113.32991310613215   -1.20043e-03   7.29417e-05 DIIS
   @DF-RKS iter   5:  -113.32993122673912   -1.81206e-05   1.13989e-05 DIIS
   @DF-RKS iter   6:  -113.32993195478821   -7.28049e-07   2.34675e-06 DIIS
   @DF-RKS iter   7:  -113.32993200388799   -4.90998e-08   3.16327e-07 DIIS
   @DF-RKS iter   8:  -113.32993200501893   -1.13094e-09   6.39011e-08 DIIS
   @DF-RKS iter   9:  -113.32993200503816   -1.92273e-11   6.15905e-09 DIIS
  Energy and wave function converged.


  ==> Post-Iterations <==

    Orbital Energies [Eh]
    ---------------------

    Doubly Occupied:                                                      

       1A1   -19.319168     2A1   -10.386803     3A1    -1.298363  
       4A1    -0.696752     1B2    -0.592096     1B1    -0.592096  
       5A1    -0.492983  

    Virtual:                                                              

       2B1     0.051035     2B2     0.051035     6A1     0.060272  
       7A1     0.078737     3B1     0.094110     3B2     0.094110  
       8A1     0.155152     4B1     0.160975     4B2     0.160975  
       9A1     0.217031    10A1     0.223418     1A2     0.223418  
      11A1     0.294552     5B1     0.307621     5B2     0.307621  
       6B1     0.365507     6B2     0.365507    12A1     0.377347  
      13A1     0.481675     2A2     0.507484    14A1     0.507485  
       7B2     0.581653     7B1     0.581653    15A1     0.592415  
       3A2     0.721390    16A1     0.721391     8B2     0.723985  
       8B1     0.723985    17A1     0.729565     9B1     0.777645  
       9B2     0.777645    10B1     0.838870    10B2     0.838870  
      18A1     0.840286    19A1     0.857128    20A1     0.861628  
       4A2     0.861630    11B1     1.007834    11B2     1.007834  
      21A1     1.080537    12B2     1.379785    12B1     1.379785  
      22A1     1.380399     5A2     1.419404    23A1     1.419405  
      13B2     1.449332    13B1     1.449332    24A1     1.588096  
       6A2     1.678195    25A1     1.678198    26A1     1.689438  
      14B1     1.703865    14B2     1.703865    15B1     1.858506  
      15B2     1.858506     7A2     2.032757    27A1     2.032759  
      28A1     2.037175     8A2     2.054819    29A1     2.054821  
      16B2     2.140130    16B1     2.140130    30A1     2.194134  
      17B1     2.220744    17B2     2.220744    31A1     2.265497  
       9A2     2.265498    18B2     2.276657    18B1     2.276657  
      32A1     2.361035    19B1     2.410845    19B2     2.410845  
      20B1     2.686227    20B2     2.686227    33A1     2.817898  
      34A1     2.876786    10A2     2.876792    35A1     3.337838  
      21B1     3.561930    21B2     3.561930    36A1     3.562475  
      11A2     3.562481    37A1     3.756855    22B2     3.853368  
      22B1     3.853368    38A1     3.962660    12A2     3.962664  
      23B1     4.014951    23B2     4.014951    39A1     4.095528  
      24B1     4.111140    24B2     4.111140    13A2     4.137112  
      40A1     4.137115    41A1     4.312206    25B1     4.527086  
      25B2     4.527086    42A1     4.880521    26B1     4.895181  
      26B2     4.895181    43A1     4.914309    14A2     4.914313  
      44A1     5.668389    15A2     5.698341    45A1     5.698342  
      27B2     5.911209    27B1     5.911209    28B1     5.947199  
      28B2     5.947199    16A2     6.060835    46A1     6.060850  
      29B1     6.075840    29B2     6.075840    47A1     6.149601  
      30B2     6.195512    30B1     6.195512    17A2     6.335537  
      48A1     6.335540    49A1     6.956887    18A2     7.089537  
      50A1     7.089539    31B1     7.223094    31B2     7.223094  
      51A1     7.920461    52A1     8.160247    32B2     8.293612  
      32B1     8.293612    53A1    10.205469    19A2    10.205526  
      33B1    10.482404    33B2    10.482404    34B1    10.587554  
      34B2    10.587554    54A1    10.728786    20A2    10.728789  
      55A1    10.942589    35B1    10.971169    35B2    10.971169  
      36B1    11.376900    36B2    11.376900    56A1    11.561473  
      21A2    11.816368    57A1    11.816376    37B1    12.258213  
      37B2    12.258213    22A2    12.408049    58A1    12.408074  
      59A1    13.304382    38B2    13.738501    38B1    13.738501  
      60A1    14.010375    61A1    24.220088    62A1    41.905746  

    Final Occupation by Irrep:
             A1    A2    B1    B2 
    DOCC [     5,    0,    1,    1 ]

  @DF-RKS Final Energy:  -113.32993200503816

   => Energetics <=

    Nuclear Repulsion Energy =             22.5885682131052299
    One-Electron Energy =                -198.4555338573600238
    Two-Electron Energy =                  72.3292165979188297
    DFT Exchange-Correlation Energy =      -9.8513161682501327
    Empirical Dispersion Energy =           0.0000000000000000
    VV10 Nonlocal Energy =                  0.0591332095479560
    Total Energy =                       -113.3299320050381596

Computation Completed


Properties will be evaluated at   0.000000,   0.000000,   0.000000 [a0]

Properties computed using the SCF density matrix

  Nuclear Dipole Moment: [e a0]
     X:     0.0000      Y:     0.0000      Z:     0.0023

  Electronic Dipole Moment: [e a0]
     X:     0.0000      Y:     0.0000      Z:     0.0336

  Dipole Moment: [e a0]
     X:     0.0000      Y:     0.0000      Z:     0.0359     Total:     0.0359

  Dipole Moment: [D]
     X:     0.0000      Y:     0.0000      Z:     0.0913     Total:     0.0913


*** tstop() called on bp1-compute00155.data.bp.acrc.priv at Tue Apr 20 11:02:50 2021
Module time:
	user time   =      73.92 seconds =       1.23 minutes
	system time =       3.18 seconds =       0.05 minutes
	total time  =          4 seconds =       0.07 minutes
Total time:
	user time   =      73.92 seconds =       1.23 minutes
	system time =       3.18 seconds =       0.05 minutes
	total time  =          4 seconds =       0.07 minutes

  //>>>>>>>>>>>>>>>>>>>>>>>>>>>>>>>>>>>//
  //    Loading displacement 2 of 3    //
  //<<<<<<<<<<<<<<<<<<<<<<<<<<<<<<<<<<<//

*** tstart() called on bp1-compute00155.data.bp.acrc.priv
*** at Tue Apr 20 11:02:50 2021

   => Loading Basis Set <=

    Name: AUG-CC-PV(Q+D)Z
    Role: ORBITAL
    Keyword: BASIS
    atoms 1 entry O          line   439 file /work/zw18965/.conda/envs/p4env/share/psi4/basis/aug-cc-pv_qpd_z.gbs 
    atoms 2 entry C          line   319 file /work/zw18965/.conda/envs/p4env/share/psi4/basis/aug-cc-pv_qpd_z.gbs 


         ---------------------------------------------------------
                                   SCF
               by Justin Turney, Rob Parrish, Andy Simmonett
                          and Daniel G. A. Smith
                              RKS Reference
                       24 Threads, 137329 MiB Core
         ---------------------------------------------------------

  ==> Geometry <==

    Molecular point group: c2v
    Full point group: C_inf_v

    Geometry (in Angstrom), charge = 0, multiplicity = 1:

       Center              X                  Y                   Z               Mass       
    ------------   -----------------  -----------------  -----------------  -----------------
         O            0.000000000000     0.000000000000     0.481576542601    15.994914619570
         C            0.000000000000     0.000000000000    -0.641897973474    12.000000000000

  Running in c2v symmetry.

  Rotational constants: A = ************  B =      1.94799  C =      1.94799 [cm^-1]
  Rotational constants: A = ************  B =  58399.17649  C =  58399.17649 [MHz]
  Nuclear repulsion =   22.608884980235793

  Charge       = 0
  Multiplicity = 1
  Electrons    = 14
  Nalpha       = 7
  Nbeta        = 7

  ==> Algorithm <==

  SCF Algorithm Type is DF.
  DIIS enabled.
  MOM disabled.
  Fractional occupation disabled.
  Guess Type is SAD.
  Energy threshold   = 1.00e-08
  Density threshold  = 1.00e-08
  Integral threshold = 0.00e+00

  ==> Primary Basis <==

  Basis Set: AUG-CC-PV(Q+D)Z
    Blend: AUG-CC-PV(Q+D)Z
    Number of shells: 40
    Number of basis function: 160
    Number of Cartesian functions: 210
    Spherical Harmonics?: true
    Max angular momentum: 4

  ==> DFT Potential <==

   => Composite Functional: WB97X-V <= 

    wB97X-V Hyb-GGA Exchange-Correlation Functional

    N. Mardirossian and M. Head-Gordon, Phys. Chem. Chem. Phys. 16, 9904 (2014)

    Deriv               =              1
    GGA                 =           TRUE
    Meta                =          FALSE

    Exchange Hybrid     =           TRUE
    MP2 Hybrid          =          FALSE

   => Exchange-Correlation Functionals <=

    1.0000   wB97X-V range-separated functional

   => Exact (HF) Exchange <=

    0.8330            HF,LR [omega = 0.3000]
    0.1670               HF 

   => VV10 Non-Local Parameters <=

    VV10 B              =     6.0000E+00
    VV10 C              =     1.0000E-02

   => Molecular Quadrature <=

    Radial Scheme          =       TREUTLER
    Pruning Scheme         =           FLAT
    Nuclear Scheme         =       TREUTLER

    BS radius alpha        =              1
    Pruning alpha          =              1
    Radial Points          =             75
    Spherical Points       =            302
    Total Points           =          45300
    Total Blocks           =            419
    Max Points             =            256
    Max Functions          =            160

   => Loading Basis Set <=

    Name: (AUG-CC-PV(Q+D)Z AUX)
    Role: JKFIT
    Keyword: DF_BASIS_SCF
    atoms 1 entry O          line   318 file /work/zw18965/.conda/envs/p4env/share/psi4/basis/aug-cc-pvqz-jkfit.gbs 
    atoms 2 entry C          line   178 file /work/zw18965/.conda/envs/p4env/share/psi4/basis/aug-cc-pvqz-jkfit.gbs 

  ==> Pre-Iterations <==

   -------------------------------------------------------
    Irrep   Nso     Nmo     Nalpha   Nbeta   Ndocc  Nsocc
   -------------------------------------------------------
     A1        62      62       0       0       0       0
     A2        22      22       0       0       0       0
     B1        38      38       0       0       0       0
     B2        38      38       0       0       0       0
   -------------------------------------------------------
    Total     160     160       7       7       7       0
   -------------------------------------------------------

  ==> Integral Setup <==

  ==> DiskDFJK: Density-Fitted J/K Matrices <==

    J tasked:                  Yes
    K tasked:                  Yes
    wK tasked:                 Yes
    Omega:               3.000E-01
    OpenMP threads:             24
    Integrals threads:          24
    Memory [MiB]:           102800
    Algorithm:                Core
    Integral Cache:           NONE
    Schwarz Cutoff:          1E-12
    Fitting Condition:       1E-10

   => Auxiliary Basis Set <=

  Basis Set: (AUG-CC-PV(Q+D)Z AUX)
    Blend: AUG-CC-PVQZ-JKFIT
    Number of shells: 68
    Number of basis function: 284
    Number of Cartesian functions: 396
    Spherical Harmonics?: true
    Max angular momentum: 5

  Cached 100.0% of DFT collocation blocks in 0.192 [GiB].

  Minimum eigenvalue in the overlap matrix is 9.7678089990E-05.
  Using Symmetric Orthogonalization.

  SCF Guess: Superposition of Atomic Densities via on-the-fly atomic UHF.

  ==> Iterations <==

                           Total Energy        Delta E     RMS |[F,P]|

   @DF-RKS iter SAD:  -112.58436177398804   -1.12584e+02   0.00000e+00 
   @DF-RKS iter   1:  -113.29248081373164   -7.08119e-01   4.13123e-03 DIIS
   @DF-RKS iter   2:  -113.27723896798531    1.52418e-02   4.83066e-03 DIIS
   @DF-RKS iter   3:  -113.32870190031252   -5.14629e-02   6.61393e-04 DIIS
   @DF-RKS iter   4:  -113.32990870892856   -1.20681e-03   7.29494e-05 DIIS
   @DF-RKS iter   5:  -113.32992683888125   -1.81300e-05   1.13904e-05 DIIS
   @DF-RKS iter   6:  -113.32992756698563   -7.28104e-07   2.34477e-06 DIIS
   @DF-RKS iter   7:  -113.32992761604254   -4.90569e-08   3.15865e-07 DIIS
   @DF-RKS iter   8:  -113.32992761717003   -1.12749e-09   6.35880e-08 DIIS
   @DF-RKS iter   9:  -113.32992761718893   -1.89004e-11   6.12846e-09 DIIS
  Energy and wave function converged.


  ==> Post-Iterations <==

    Orbital Energies [Eh]
    ---------------------

    Doubly Occupied:                                                      

       1A1   -19.319116     2A1   -10.386417     3A1    -1.298922  
       4A1    -0.696759     1B2    -0.592463     1B1    -0.592463  
       5A1    -0.492894  

    Virtual:                                                              

       2B2     0.051229     2B1     0.051229     6A1     0.060260  
       7A1     0.078752     3B2     0.094276     3B1     0.094276  
       8A1     0.155156     4B2     0.160958     4B1     0.160958  
       9A1     0.217034    10A1     0.223418     1A2     0.223418  
      11A1     0.294566     5B2     0.307695     5B1     0.307695  
       6B1     0.365509     6B2     0.365509    12A1     0.377395  
      13A1     0.481679     2A2     0.507441    14A1     0.507442  
       7B2     0.581629     7B1     0.581629    15A1     0.592878  
       3A2     0.721419    16A1     0.721419     8B1     0.723995  
       8B2     0.723995    17A1     0.729656     9B1     0.777800  
       9B2     0.777800    10B1     0.838825    10B2     0.838825  
      18A1     0.840513    19A1     0.857521    20A1     0.861688  
       4A2     0.861689    11B1     1.008003    11B2     1.008003  
      21A1     1.081102    12B2     1.379889    12B1     1.379889  
      22A1     1.380754     5A2     1.419325    23A1     1.419325  
      13B2     1.449271    13B1     1.449271    24A1     1.588063  
       6A2     1.678268    25A1     1.678271    26A1     1.689244  
      14B1     1.704638    14B2     1.704638    15B1     1.858039  
      15B2     1.858039     7A2     2.032797    27A1     2.032798  
      28A1     2.037697     8A2     2.055031    29A1     2.055033  
      16B1     2.140188    16B2     2.140188    30A1     2.194229  
      17B1     2.220966    17B2     2.220966    31A1     2.265662  
       9A2     2.265663    18B2     2.277006    18B1     2.277006  
      32A1     2.361211    19B2     2.411161    19B1     2.411161  
      20B1     2.687023    20B2     2.687023    33A1     2.819344  
      34A1     2.877573    10A2     2.877579    35A1     3.337687  
      21B1     3.562284    21B2     3.562284    36A1     3.562700  
      11A2     3.562707    37A1     3.757357    22B1     3.853364  
      22B2     3.853364    38A1     3.962681    12A2     3.962685  
      23B1     4.015054    23B2     4.015054    39A1     4.095875  
      24B2     4.112204    24B1     4.112204    13A2     4.137569  
      40A1     4.137572    41A1     4.313897    25B1     4.526856  
      25B2     4.526856    42A1     4.878961    26B1     4.896752  
      26B2     4.896752    43A1     4.914864    14A2     4.914868  
      44A1     5.672218    15A2     5.698417    45A1     5.698417  
      27B2     5.912139    27B1     5.912139    28B2     5.948147  
      28B1     5.948147    16A2     6.061111    46A1     6.061125  
      29B1     6.076226    29B2     6.076226    47A1     6.149109  
      30B1     6.195611    30B2     6.195611    17A2     6.336001  
      48A1     6.336004    49A1     6.960867    18A2     7.093316  
      50A1     7.093318    31B1     7.225358    31B2     7.225358  
      51A1     7.923945    52A1     8.159611    32B1     8.297095  
      32B2     8.297095    53A1    10.205460    19A2    10.205516  
      33B1    10.483130    33B2    10.483130    34B1    10.587709  
      34B2    10.587709    54A1    10.729744    20A2    10.729747  
      55A1    10.942915    35B1    10.971731    35B2    10.971731  
      36B2    11.376938    36B1    11.376938    56A1    11.563147  
      21A2    11.817417    57A1    11.817425    37B1    12.260110  
      37B2    12.260110    22A2    12.408849    58A1    12.408874  
      59A1    13.309561    38B1    13.744118    38B2    13.744118  
      60A1    14.011969    61A1    24.232696    62A1    41.910680  

    Final Occupation by Irrep:
             A1    A2    B1    B2 
    DOCC [     5,    0,    1,    1 ]

  @DF-RKS Final Energy:  -113.32992761718893

   => Energetics <=

    Nuclear Repulsion Energy =             22.6088849802357927
    One-Electron Energy =                -198.4940764200136130
    Two-Electron Energy =                  72.3482901914797623
    DFT Exchange-Correlation Energy =      -9.8521596961911548
    Empirical Dispersion Energy =           0.0000000000000000
    VV10 Nonlocal Energy =                  0.0591333273002897
    Total Energy =                       -113.3299276171889289

Computation Completed


Properties will be evaluated at   0.000000,   0.000000,   0.000000 [a0]

Properties computed using the SCF density matrix

  Nuclear Dipole Moment: [e a0]
     X:     0.0000      Y:     0.0000      Z:     0.0023

  Electronic Dipole Moment: [e a0]
     X:     0.0000      Y:     0.0000      Z:     0.0351

  Dipole Moment: [e a0]
     X:     0.0000      Y:     0.0000      Z:     0.0374     Total:     0.0374

  Dipole Moment: [D]
     X:     0.0000      Y:     0.0000      Z:     0.0951     Total:     0.0951


*** tstop() called on bp1-compute00155.data.bp.acrc.priv at Tue Apr 20 11:02:53 2021
Module time:
	user time   =      74.42 seconds =       1.24 minutes
	system time =       3.19 seconds =       0.05 minutes
	total time  =          3 seconds =       0.05 minutes
Total time:
	user time   =     148.50 seconds =       2.48 minutes
	system time =       6.38 seconds =       0.11 minutes
	total time  =          7 seconds =       0.12 minutes

  //>>>>>>>>>>>>>>>>>>>>>>>>>>>>>>>>>>>//
  //    Loading displacement 3 of 3    //
  //<<<<<<<<<<<<<<<<<<<<<<<<<<<<<<<<<<<//

*** tstart() called on bp1-compute00155.data.bp.acrc.priv
*** at Tue Apr 20 11:02:53 2021

   => Loading Basis Set <=

    Name: AUG-CC-PV(Q+D)Z
    Role: ORBITAL
    Keyword: BASIS
    atoms 1 entry O          line   439 file /work/zw18965/.conda/envs/p4env/share/psi4/basis/aug-cc-pv_qpd_z.gbs 
    atoms 2 entry C          line   319 file /work/zw18965/.conda/envs/p4env/share/psi4/basis/aug-cc-pv_qpd_z.gbs 


         ---------------------------------------------------------
                                   SCF
               by Justin Turney, Rob Parrish, Andy Simmonett
                          and Daniel G. A. Smith
                              RKS Reference
                       24 Threads, 137329 MiB Core
         ---------------------------------------------------------

  ==> Geometry <==

    Molecular point group: c2v
    Full point group: C_inf_v

    Geometry (in Angstrom), charge = 0, multiplicity = 1:

       Center              X                  Y                   Z               Mass       
    ------------   -----------------  -----------------  -----------------  -----------------
         O            0.000000000000     0.000000000000     0.482442828448    15.994914619570
         C            0.000000000000     0.000000000000    -0.643052654154    12.000000000000

  Running in c2v symmetry.

  Rotational constants: A = ************  B =      1.94100  C =      1.94100 [cm^-1]
  Rotational constants: A = ************  B =  58189.63888  C =  58189.63888 [MHz]
  Nuclear repulsion =   22.568287927246192

  Charge       = 0
  Multiplicity = 1
  Electrons    = 14
  Nalpha       = 7
  Nbeta        = 7

  ==> Algorithm <==

  SCF Algorithm Type is DF.
  DIIS enabled.
  MOM disabled.
  Fractional occupation disabled.
  Guess Type is SAD.
  Energy threshold   = 1.00e-08
  Density threshold  = 1.00e-08
  Integral threshold = 0.00e+00

  ==> Primary Basis <==

  Basis Set: AUG-CC-PV(Q+D)Z
    Blend: AUG-CC-PV(Q+D)Z
    Number of shells: 40
    Number of basis function: 160
    Number of Cartesian functions: 210
    Spherical Harmonics?: true
    Max angular momentum: 4

  ==> DFT Potential <==

   => Composite Functional: WB97X-V <= 

    wB97X-V Hyb-GGA Exchange-Correlation Functional

    N. Mardirossian and M. Head-Gordon, Phys. Chem. Chem. Phys. 16, 9904 (2014)

    Deriv               =              1
    GGA                 =           TRUE
    Meta                =          FALSE

    Exchange Hybrid     =           TRUE
    MP2 Hybrid          =          FALSE

   => Exchange-Correlation Functionals <=

    1.0000   wB97X-V range-separated functional

   => Exact (HF) Exchange <=

    0.8330            HF,LR [omega = 0.3000]
    0.1670               HF 

   => VV10 Non-Local Parameters <=

    VV10 B              =     6.0000E+00
    VV10 C              =     1.0000E-02

   => Molecular Quadrature <=

    Radial Scheme          =       TREUTLER
    Pruning Scheme         =           FLAT
    Nuclear Scheme         =       TREUTLER

    BS radius alpha        =              1
    Pruning alpha          =              1
    Radial Points          =             75
    Spherical Points       =            302
    Total Points           =          45300
    Total Blocks           =            420
    Max Points             =            256
    Max Functions          =            160

   => Loading Basis Set <=

    Name: (AUG-CC-PV(Q+D)Z AUX)
    Role: JKFIT
    Keyword: DF_BASIS_SCF
    atoms 1 entry O          line   318 file /work/zw18965/.conda/envs/p4env/share/psi4/basis/aug-cc-pvqz-jkfit.gbs 
    atoms 2 entry C          line   178 file /work/zw18965/.conda/envs/p4env/share/psi4/basis/aug-cc-pvqz-jkfit.gbs 

  ==> Pre-Iterations <==

   -------------------------------------------------------
    Irrep   Nso     Nmo     Nalpha   Nbeta   Ndocc  Nsocc
   -------------------------------------------------------
     A1        62      62       0       0       0       0
     A2        22      22       0       0       0       0
     B1        38      38       0       0       0       0
     B2        38      38       0       0       0       0
   -------------------------------------------------------
    Total     160     160       7       7       7       0
   -------------------------------------------------------

  ==> Integral Setup <==

  ==> DiskDFJK: Density-Fitted J/K Matrices <==

    J tasked:                  Yes
    K tasked:                  Yes
    wK tasked:                 Yes
    Omega:               3.000E-01
    OpenMP threads:             24
    Integrals threads:          24
    Memory [MiB]:           102800
    Algorithm:                Core
    Integral Cache:           NONE
    Schwarz Cutoff:          1E-12
    Fitting Condition:       1E-10

   => Auxiliary Basis Set <=

  Basis Set: (AUG-CC-PV(Q+D)Z AUX)
    Blend: AUG-CC-PVQZ-JKFIT
    Number of shells: 68
    Number of basis function: 284
    Number of Cartesian functions: 396
    Spherical Harmonics?: true
    Max angular momentum: 5

  Cached 100.0% of DFT collocation blocks in 0.192 [GiB].

  Minimum eigenvalue in the overlap matrix is 9.8070791037E-05.
  Using Symmetric Orthogonalization.

  SCF Guess: Superposition of Atomic Densities via on-the-fly atomic UHF.

  ==> Iterations <==

                           Total Energy        Delta E     RMS |[F,P]|

   @DF-RKS iter SAD:  -112.58091177948268   -1.12581e+02   0.00000e+00 
   @DF-RKS iter   1:  -113.29247240540973   -7.11561e-01   4.12907e-03 DIIS
   @DF-RKS iter   2:  -113.27656639276472    1.59060e-02   4.85805e-03 DIIS
   @DF-RKS iter   3:  -113.32871868561334   -5.21523e-02   6.57076e-04 DIIS
   @DF-RKS iter   4:  -113.32991275168033   -1.19407e-03   7.29346e-05 DIIS
   @DF-RKS iter   5:  -113.32993086322229   -1.81115e-05   1.14074e-05 DIIS
   @DF-RKS iter   6:  -113.32993159122051   -7.27998e-07   2.34875e-06 DIIS
   @DF-RKS iter   7:  -113.32993164035366   -4.91331e-08   3.16792e-07 DIIS
   @DF-RKS iter   8:  -113.32993164148813   -1.13447e-09   6.42169e-08 DIIS
   @DF-RKS iter   9:  -113.32993164150757   -1.94404e-11   6.18998e-09 DIIS
  Energy and wave function converged.


  ==> Post-Iterations <==

    Orbital Energies [Eh]
    ---------------------

    Doubly Occupied:                                                      

       1A1   -19.319219     2A1   -10.387188     3A1    -1.297804  
       4A1    -0.696746     1B1    -0.591729     1B2    -0.591729  
       5A1    -0.493072  

    Virtual:                                                              

       2B2     0.050839     2B1     0.050839     6A1     0.060284  
       7A1     0.078723     3B2     0.093946     3B1     0.093946  
       8A1     0.155147     4B2     0.160993     4B1     0.160993  
       9A1     0.217028    10A1     0.223418     1A2     0.223418  
      11A1     0.294538     5B2     0.307547     5B1     0.307547  
       6B2     0.365505     6B1     0.365505    12A1     0.377299  
      13A1     0.481671     2A2     0.507527    14A1     0.507528  
       7B2     0.581678     7B1     0.581678    15A1     0.591949  
       3A2     0.721361    16A1     0.721362     8B2     0.723974  
       8B1     0.723974    17A1     0.729474     9B2     0.777489  
       9B1     0.777489    10B2     0.838914    10B1     0.838914  
      18A1     0.840052    19A1     0.856742    20A1     0.861569  
       4A2     0.861571    11B2     1.007666    11B1     1.007666  
      21A1     1.079978    12B2     1.379681    12B1     1.379681  
      22A1     1.380045     5A2     1.419483    23A1     1.419484  
      13B2     1.449392    13B1     1.449392    24A1     1.588127  
       6A2     1.678121    25A1     1.678125    26A1     1.689634  
      14B1     1.703093    14B2     1.703093    15B1     1.858974  
      15B2     1.858974     7A2     2.032718    27A1     2.032720  
      28A1     2.036653     8A2     2.054607    29A1     2.054610  
      16B1     2.140073    16B2     2.140073    30A1     2.194039  
      17B2     2.220522    17B1     2.220522    31A1     2.265331  
       9A2     2.265332    18B2     2.276307    18B1     2.276307  
      32A1     2.360862    19B2     2.410528    19B1     2.410528  
      20B2     2.685433    20B1     2.685433    33A1     2.816452  
      34A1     2.875999    10A2     2.876004    35A1     3.337984  
      21B1     3.561573    21B2     3.561573    36A1     3.562250  
      11A2     3.562257    37A1     3.756353    22B2     3.853372  
      22B1     3.853372    38A1     3.962640    12A2     3.962644  
      23B1     4.014846    23B2     4.014846    39A1     4.095180  
      24B2     4.110077    24B1     4.110077    13A2     4.136656  
      40A1     4.136658    41A1     4.310522    25B2     4.527328  
      25B1     4.527328    42A1     4.882085    26B1     4.893609  
      26B2     4.893609    43A1     4.913751    14A2     4.913755  
      44A1     5.664560    15A2     5.698266    45A1     5.698267  
      27B1     5.910282    27B2     5.910282    28B2     5.946248  
      28B1     5.946248    16A2     6.060558    46A1     6.060573  
      29B2     6.075457    29B1     6.075457    47A1     6.150091  
      30B1     6.195414    30B2     6.195414    17A2     6.335077  
      48A1     6.335080    49A1     6.952906    18A2     7.085764  
      50A1     7.085766    31B1     7.220834    31B2     7.220834  
      51A1     7.916969    52A1     8.160905    32B2     8.290130  
      32B1     8.290130    53A1    10.205478    19A2    10.205537  
      33B2    10.481681    33B1    10.481681    34B2    10.587395  
      34B1    10.587395    54A1    10.727833    20A2    10.727836  
      55A1    10.942258    35B2    10.970604    35B1    10.970604  
      36B2    11.376863    36B1    11.376863    56A1    11.559794  
      21A2    11.815319    57A1    11.815327    37B2    12.256337  
      37B1    12.256337    22A2    12.407254    58A1    12.407280  
      59A1    13.299186    38B2    13.732889    38B1    13.732889  
      60A1    14.008818    61A1    24.207469    62A1    41.900823  

    Final Occupation by Irrep:
             A1    A2    B1    B2 
    DOCC [     5,    0,    1,    1 ]

  @DF-RKS Final Energy:  -113.32993164150757

   => Energetics <=

    Nuclear Repulsion Energy =             22.5682879272461925
    One-Electron Energy =                -198.4170527169745810
    Two-Electron Energy =                  72.3101747901368128
    DFT Exchange-Correlation Energy =      -9.8504747356742755
    Empirical Dispersion Energy =           0.0000000000000000
    VV10 Nonlocal Energy =                  0.0591330937582921
    Total Energy =                       -113.3299316415075708

Computation Completed


Properties will be evaluated at   0.000000,   0.000000,   0.000000 [a0]

Properties computed using the SCF density matrix

  Nuclear Dipole Moment: [e a0]
     X:     0.0000      Y:     0.0000      Z:     0.0023

  Electronic Dipole Moment: [e a0]
     X:     0.0000      Y:     0.0000      Z:     0.0321

  Dipole Moment: [e a0]
     X:     0.0000      Y:     0.0000      Z:     0.0344     Total:     0.0344

  Dipole Moment: [D]
     X:     0.0000      Y:     0.0000      Z:     0.0875     Total:     0.0875


*** tstop() called on bp1-compute00155.data.bp.acrc.priv at Tue Apr 20 11:02:57 2021
Module time:
	user time   =      73.84 seconds =       1.23 minutes
	system time =       2.12 seconds =       0.04 minutes
	total time  =          4 seconds =       0.07 minutes
Total time:
	user time   =     222.50 seconds =       3.71 minutes
	system time =       8.51 seconds =       0.14 minutes
	total time  =         11 seconds =       0.18 minutes

         ----------------------------------------------------------
                                   FINDIF
                     R. A. King and Jonathon Misiewicz
         ---------------------------------------------------------

  Computing gradient from energies.
    Using 3-point formula.
    Energy without displacement: -113.3299320050
    Check energies below for precision!
    Forces are for mass-weighted, symmetry-adapted cartesians (in au).

     Coord      Energy(-1)        Energy(+1)            Force
        0   -113.3299276172   -113.3299316415     -0.0004024319


-------------------------------------------------------------
  ## New Matrix (Symmetry 0) ##
  Irrep: 1 Size: 2 x 3

                 1                   2                   3

    1     0.00000000000000     0.00000000000000    -0.00105374220000
    2     0.00000000000000     0.00000000000000     0.00105374220000




			-----------------------------------------
			 OPTKING 2.0: for geometry optimizations 
			  - R.A. King,  Bethel University        
			-----------------------------------------

	Internal coordinates to be generated automatically.
	Detected frag 1 with atoms:  1 2
	---Fragment 1 Bond Connectivity---
	 1 : 2
	 2 : 1

	---Fragment 1 Geometry and Gradient---
	 O           0.0000000000        0.0000000000        0.9108662955
	 C           0.0000000000        0.0000000000       -1.2141023855
	             0.0000000000        0.0000000000       -0.0010537422
	             0.0000000000        0.0000000000        0.0010537422

	Previous optimization step data not found.  Starting new optimization.

	---Fragment 1 Intrafragment Coordinates---
	 - Coordinate -           - BOHR/RAD -       - ANG/DEG -
	 R(1,2)           =         2.124969	       1.124485

	Current energy   :      -113.3299320050

	Generating empirical Hessian (Schlegel '84) for each fragment.
	Taking RFO optimization step.
	Going to follow RFO solution 1.
	Using RFO vector 1.
	Norm of target step-size    0.00068
	Projected energy change by RFO approximation:        -0.0000004867

	Back-transformation to cartesian coordinates...
	Successfully converged to displaced geometry.

	--- Internal Coordinate Step in ANG or DEG, aJ/ANG or AJ/DEG ---
	 ---------------------------------------------------------------------------
	   Coordinate                Previous        Force       Change         New 
	   ----------                --------       ------       ------       ------
	    1 R(1,2)          =      1.124485     0.008681     0.000362     1.124847
	 ---------------------------------------------------------------------------
	Successfully symmetrized geometry.

  ==> Convergence Check <==

  Measures of convergence in internal coordinates in au.
  Criteria marked as inactive (o), active & met (*), and active & unmet ( ).
  --------------------------------------------------------------------------------------------- ~
   Step     Total Energy     Delta E     MAX Force     RMS Force      MAX Disp      RMS Disp    ~
  --------------------------------------------------------------------------------------------- ~
    Convergence Criteria    1.00e-06 *    3.00e-04 *             o    1.20e-03 *             o  ~
  --------------------------------------------------------------------------------------------- ~
      1    -113.32993201   -1.13e+02      1.05e-03      1.05e-03 o    6.84e-04 *    6.84e-04 o  ~
  ---------------------------------------------------------------------------------------------

	Writing optimization data to binary file.
	Structure for next step:
	Cartesian Geometry (in Angstrom)
	    O     0.0000000000   0.0000000000   0.4821905330
	    C     0.0000000000   0.0000000000  -0.6426561607
			--------------------------
			 OPTKING Finished Execution 
			--------------------------

    Structure for next step:
    Molecular point group: c2v
    Full point group: C_inf_v

    Geometry (in Angstrom), charge = 0, multiplicity = 1:

    O            0.000000000000     0.000000000000     0.482164727427
    C            0.000000000000     0.000000000000    -0.642681970647

gradient() will perform gradient computation by finite difference of analytic energies.

         ----------------------------------------------------------
                                   FINDIF
                     R. A. King and Jonathon Misiewicz
         ---------------------------------------------------------

  Using finite-differences of energies to determine gradients.
    Generating geometries for use with 3-point formula.
    Displacement size will be 5.00e-03.
    Number of atoms is 2.
    Number of symmetric SALCs is 1.
    Translations projected? 1. Rotations projected? 1.
    Number of geometries (including reference) is 3.

  //>>>>>>>>>>>>>>>>>>>>>>>>>>>>>>>>>>>//
  //    Loading displacement 1 of 3    //
  //<<<<<<<<<<<<<<<<<<<<<<<<<<<<<<<<<<<//

*** tstart() called on bp1-compute00155.data.bp.acrc.priv
*** at Tue Apr 20 11:02:57 2021

   => Loading Basis Set <=

    Name: AUG-CC-PV(Q+D)Z
    Role: ORBITAL
    Keyword: BASIS
    atoms 1 entry O          line   439 file /work/zw18965/.conda/envs/p4env/share/psi4/basis/aug-cc-pv_qpd_z.gbs 
    atoms 2 entry C          line   319 file /work/zw18965/.conda/envs/p4env/share/psi4/basis/aug-cc-pv_qpd_z.gbs 


         ---------------------------------------------------------
                                   SCF
               by Justin Turney, Rob Parrish, Andy Simmonett
                          and Daniel G. A. Smith
                              RKS Reference
                       24 Threads, 137329 MiB Core
         ---------------------------------------------------------

  ==> Geometry <==

    Molecular point group: c2v
    Full point group: C_inf_v

    Geometry (in Angstrom), charge = 0, multiplicity = 1:

       Center              X                  Y                   Z               Mass       
    ------------   -----------------  -----------------  -----------------  -----------------
         O            0.000000000000     0.000000000000     0.482164727427    15.994914619570
         C            0.000000000000     0.000000000000    -0.642681970647    12.000000000000

  Running in c2v symmetry.

  Rotational constants: A = ************  B =      1.94324  C =      1.94324 [cm^-1]
  Rotational constants: A = ************  B =  58256.78300  C =  58256.78300 [MHz]
  Nuclear repulsion =   22.581304773039349

  Charge       = 0
  Multiplicity = 1
  Electrons    = 14
  Nalpha       = 7
  Nbeta        = 7

  ==> Algorithm <==

  SCF Algorithm Type is DF.
  DIIS enabled.
  MOM disabled.
  Fractional occupation disabled.
  Guess Type is READ.
  Energy threshold   = 1.00e-08
  Density threshold  = 1.00e-08
  Integral threshold = 0.00e+00

  ==> Primary Basis <==

  Basis Set: AUG-CC-PV(Q+D)Z
    Blend: AUG-CC-PV(Q+D)Z
    Number of shells: 40
    Number of basis function: 160
    Number of Cartesian functions: 210
    Spherical Harmonics?: true
    Max angular momentum: 4

  ==> DFT Potential <==

   => Composite Functional: WB97X-V <= 

    wB97X-V Hyb-GGA Exchange-Correlation Functional

    N. Mardirossian and M. Head-Gordon, Phys. Chem. Chem. Phys. 16, 9904 (2014)

    Deriv               =              1
    GGA                 =           TRUE
    Meta                =          FALSE

    Exchange Hybrid     =           TRUE
    MP2 Hybrid          =          FALSE

   => Exchange-Correlation Functionals <=

    1.0000   wB97X-V range-separated functional

   => Exact (HF) Exchange <=

    0.8330            HF,LR [omega = 0.3000]
    0.1670               HF 

   => VV10 Non-Local Parameters <=

    VV10 B              =     6.0000E+00
    VV10 C              =     1.0000E-02

   => Molecular Quadrature <=

    Radial Scheme          =       TREUTLER
    Pruning Scheme         =           FLAT
    Nuclear Scheme         =       TREUTLER

    BS radius alpha        =              1
    Pruning alpha          =              1
    Radial Points          =             75
    Spherical Points       =            302
    Total Points           =          45300
    Total Blocks           =            420
    Max Points             =            256
    Max Functions          =            160

   => Loading Basis Set <=

    Name: (AUG-CC-PV(Q+D)Z AUX)
    Role: JKFIT
    Keyword: DF_BASIS_SCF
    atoms 1 entry O          line   318 file /work/zw18965/.conda/envs/p4env/share/psi4/basis/aug-cc-pvqz-jkfit.gbs 
    atoms 2 entry C          line   178 file /work/zw18965/.conda/envs/p4env/share/psi4/basis/aug-cc-pvqz-jkfit.gbs 

   => Loading Basis Set <=

    Name: AUG-CC-PV(Q+D)Z
    Role: ORBITAL
    Keyword: BASIS
    atoms 1 entry O          line   439 file /work/zw18965/.conda/envs/p4env/share/psi4/basis/aug-cc-pv_qpd_z.gbs 
    atoms 2 entry C          line   319 file /work/zw18965/.conda/envs/p4env/share/psi4/basis/aug-cc-pv_qpd_z.gbs 

  Reading orbitals from file 180, no projection.

  ==> Pre-Iterations <==

   -------------------------------------------------------
    Irrep   Nso     Nmo     Nalpha   Nbeta   Ndocc  Nsocc
   -------------------------------------------------------
     A1        62      62       0       0       0       0
     A2        22      22       0       0       0       0
     B1        38      38       0       0       0       0
     B2        38      38       0       0       0       0
   -------------------------------------------------------
    Total     160     160       7       7       7       0
   -------------------------------------------------------

  ==> Integral Setup <==

  ==> DiskDFJK: Density-Fitted J/K Matrices <==

    J tasked:                  Yes
    K tasked:                  Yes
    wK tasked:                 Yes
    Omega:               3.000E-01
    OpenMP threads:             24
    Integrals threads:          24
    Memory [MiB]:           102800
    Algorithm:                Core
    Integral Cache:           NONE
    Schwarz Cutoff:          1E-12
    Fitting Condition:       1E-10

   => Auxiliary Basis Set <=

  Basis Set: (AUG-CC-PV(Q+D)Z AUX)
    Blend: AUG-CC-PVQZ-JKFIT
    Number of shells: 68
    Number of basis function: 284
    Number of Cartesian functions: 396
    Spherical Harmonics?: true
    Max angular momentum: 5

  Cached 100.0% of DFT collocation blocks in 0.192 [GiB].

  Minimum eigenvalue in the overlap matrix is 9.7944587989E-05.
  Using Symmetric Orthogonalization.

  SCF Guess: Orbitals guess was supplied from a previous computation.

  ==> Iterations <==

                           Total Energy        Delta E     RMS |[F,P]|

   @DF-RKS iter   0:  -113.32974806229197   -1.13330e+02   1.91091e-05 
   @DF-RKS iter   1:  -113.32993240797607   -1.84346e-04   2.00712e-06 DIIS
   @DF-RKS iter   2:  -113.32993240494562    3.03045e-09   2.52305e-06 DIIS
   @DF-RKS iter   3:  -113.32993241945050   -1.45049e-08   2.58436e-07 DIIS
   @DF-RKS iter   4:  -113.32993241959136   -1.40858e-10   4.01805e-08 DIIS
   @DF-RKS iter   5:  -113.32993241959950   -8.14282e-12   9.91094e-09 DIIS
  Energy and wave function converged.


  ==> Post-Iterations <==

    Orbital Energies [Eh]
    ---------------------

    Doubly Occupied:                                                      

       1A1   -19.319186     2A1   -10.386941     3A1    -1.298163  
       4A1    -0.696750     1B2    -0.591964     1B1    -0.591964  
       5A1    -0.493015  

    Virtual:                                                              

       2B1     0.050965     2B2     0.050965     6A1     0.060276  
       7A1     0.078732     3B1     0.094051     3B2     0.094051  
       8A1     0.155150     4B1     0.160982     4B2     0.160982  
       9A1     0.217030    10A1     0.223418     1A2     0.223418  
      11A1     0.294547     5B1     0.307595     5B2     0.307595  
       6B2     0.365506     6B1     0.365506    12A1     0.377330  
      13A1     0.481674     2A2     0.507500    14A1     0.507500  
       7B2     0.581662     7B1     0.581662    15A1     0.592249  
       3A2     0.721380    16A1     0.721381     8B1     0.723981  
       8B2     0.723981    17A1     0.729532     9B1     0.777589  
       9B2     0.777589    10B2     0.838886    10B1     0.838886  
      18A1     0.840203    19A1     0.856989    20A1     0.861607  
       4A2     0.861609    11B2     1.007774    11B1     1.007774  
      21A1     1.080336    12B2     1.379747    12B1     1.379747  
      22A1     1.380272     5A2     1.419432    23A1     1.419433  
      13B2     1.449353    13B1     1.449353    24A1     1.588107  
       6A2     1.678169    25A1     1.678172    26A1     1.689508  
      14B2     1.703589    14B1     1.703589    15B2     1.858673  
      15B1     1.858673     7A2     2.032743    27A1     2.032745  
      28A1     2.036988     8A2     2.054743    29A1     2.054745  
      16B1     2.140110    16B2     2.140110    30A1     2.194100  
      17B2     2.220665    17B1     2.220665    31A1     2.265437  
       9A2     2.265438    18B1     2.276531    18B2     2.276531  
      32A1     2.360972    19B2     2.410732    19B1     2.410732  
      20B2     2.685942    20B1     2.685942    33A1     2.817380  
      34A1     2.876505    10A2     2.876510    35A1     3.337891  
      21B2     3.561803    21B1     3.561803    36A1     3.562394  
      11A2     3.562401    37A1     3.756676    22B2     3.853369  
      22B1     3.853369    38A1     3.962653    12A2     3.962657  
      23B2     4.014913    23B1     4.014913    39A1     4.095403  
      24B2     4.110759    24B1     4.110759    13A2     4.136949  
      40A1     4.136951    41A1     4.311602    25B2     4.527171  
      25B1     4.527171    42A1     4.881080    26B2     4.894619  
      26B1     4.894619    43A1     4.914110    14A2     4.914114  
      44A1     5.667019    15A2     5.698314    45A1     5.698315  
      27B2     5.910877    27B1     5.910877    28B2     5.946859  
      28B1     5.946859    16A2     6.060736    46A1     6.060751  
      29B1     6.075702    29B2     6.075702    47A1     6.149777  
      30B2     6.195477    30B1     6.195477    17A2     6.335372  
      48A1     6.335374    49A1     6.955462    18A2     7.088185  
      50A1     7.088187    31B2     7.222285    31B1     7.222285  
      51A1     7.919212    52A1     8.160480    32B2     8.292365  
      32B1     8.292365    53A1    10.205472    19A2    10.205530  
      33B2    10.482145    33B1    10.482145    34B2    10.587498  
      34B1    10.587498    54A1    10.728444    20A2    10.728448  
      55A1    10.942471    35B2    10.970967    35B1    10.970967  
      36B2    11.376887    36B1    11.376887    56A1    11.560872  
      21A2    11.815992    57A1    11.816000    37B2    12.257539  
      37B1    12.257539    22A2    12.407764    58A1    12.407789  
      59A1    13.302524    38B2    13.736491    38B1    13.736491  
      60A1    14.009814    61A1    24.215572    62A1    41.903982  

    Final Occupation by Irrep:
             A1    A2    B1    B2 
    DOCC [     5,    0,    1,    1 ]

  @DF-RKS Final Energy:  -113.32993241959950

   => Energetics <=

    Nuclear Repulsion Energy =             22.5813047730393492
    One-Electron Energy =                -198.4417521178882851
    Two-Electron Energy =                  72.3223964148119052
    DFT Exchange-Correlation Energy =      -9.8510146571725219
    Empirical Dispersion Energy =           0.0000000000000000
    VV10 Nonlocal Energy =                  0.0591331676100446
    Total Energy =                       -113.3299324195995013

Computation Completed


Properties will be evaluated at   0.000000,   0.000000,   0.000000 [a0]

Properties computed using the SCF density matrix

  Nuclear Dipole Moment: [e a0]
     X:     0.0000      Y:     0.0000      Z:     0.0023

  Electronic Dipole Moment: [e a0]
     X:     0.0000      Y:     0.0000      Z:     0.0331

  Dipole Moment: [e a0]
     X:     0.0000      Y:     0.0000      Z:     0.0354     Total:     0.0354

  Dipole Moment: [D]
     X:     0.0000      Y:     0.0000      Z:     0.0899     Total:     0.0899


*** tstop() called on bp1-compute00155.data.bp.acrc.priv at Tue Apr 20 11:02:59 2021
Module time:
	user time   =      48.28 seconds =       0.80 minutes
	system time =       1.57 seconds =       0.03 minutes
	total time  =          2 seconds =       0.03 minutes
Total time:
	user time   =     271.14 seconds =       4.52 minutes
	system time =      10.09 seconds =       0.17 minutes
	total time  =         13 seconds =       0.22 minutes

  //>>>>>>>>>>>>>>>>>>>>>>>>>>>>>>>>>>>//
  //    Loading displacement 2 of 3    //
  //<<<<<<<<<<<<<<<<<<<<<<<<<<<<<<<<<<<//

*** tstart() called on bp1-compute00155.data.bp.acrc.priv
*** at Tue Apr 20 11:02:59 2021

   => Loading Basis Set <=

    Name: AUG-CC-PV(Q+D)Z
    Role: ORBITAL
    Keyword: BASIS
    atoms 1 entry O          line   439 file /work/zw18965/.conda/envs/p4env/share/psi4/basis/aug-cc-pv_qpd_z.gbs 
    atoms 2 entry C          line   319 file /work/zw18965/.conda/envs/p4env/share/psi4/basis/aug-cc-pv_qpd_z.gbs 


         ---------------------------------------------------------
                                   SCF
               by Justin Turney, Rob Parrish, Andy Simmonett
                          and Daniel G. A. Smith
                              RKS Reference
                       24 Threads, 137329 MiB Core
         ---------------------------------------------------------

  ==> Geometry <==

    Molecular point group: c2v
    Full point group: C_inf_v

    Geometry (in Angstrom), charge = 0, multiplicity = 1:

       Center              X                  Y                   Z               Mass       
    ------------   -----------------  -----------------  -----------------  -----------------
         O            0.000000000000     0.000000000000     0.481731584504    15.994914619570
         C            0.000000000000     0.000000000000    -0.642104630307    12.000000000000

  Running in c2v symmetry.

  Rotational constants: A = ************  B =      1.94673  C =      1.94673 [cm^-1]
  Rotational constants: A = ************  B =  58361.59182  C =  58361.59182 [MHz]
  Nuclear repulsion =   22.601608470530920

  Charge       = 0
  Multiplicity = 1
  Electrons    = 14
  Nalpha       = 7
  Nbeta        = 7

  ==> Algorithm <==

  SCF Algorithm Type is DF.
  DIIS enabled.
  MOM disabled.
  Fractional occupation disabled.
  Guess Type is READ.
  Energy threshold   = 1.00e-08
  Density threshold  = 1.00e-08
  Integral threshold = 0.00e+00

  ==> Primary Basis <==

  Basis Set: AUG-CC-PV(Q+D)Z
    Blend: AUG-CC-PV(Q+D)Z
    Number of shells: 40
    Number of basis function: 160
    Number of Cartesian functions: 210
    Spherical Harmonics?: true
    Max angular momentum: 4

  ==> DFT Potential <==

   => Composite Functional: WB97X-V <= 

    wB97X-V Hyb-GGA Exchange-Correlation Functional

    N. Mardirossian and M. Head-Gordon, Phys. Chem. Chem. Phys. 16, 9904 (2014)

    Deriv               =              1
    GGA                 =           TRUE
    Meta                =          FALSE

    Exchange Hybrid     =           TRUE
    MP2 Hybrid          =          FALSE

   => Exchange-Correlation Functionals <=

    1.0000   wB97X-V range-separated functional

   => Exact (HF) Exchange <=

    0.8330            HF,LR [omega = 0.3000]
    0.1670               HF 

   => VV10 Non-Local Parameters <=

    VV10 B              =     6.0000E+00
    VV10 C              =     1.0000E-02

   => Molecular Quadrature <=

    Radial Scheme          =       TREUTLER
    Pruning Scheme         =           FLAT
    Nuclear Scheme         =       TREUTLER

    BS radius alpha        =              1
    Pruning alpha          =              1
    Radial Points          =             75
    Spherical Points       =            302
    Total Points           =          45300
    Total Blocks           =            419
    Max Points             =            256
    Max Functions          =            160

   => Loading Basis Set <=

    Name: (AUG-CC-PV(Q+D)Z AUX)
    Role: JKFIT
    Keyword: DF_BASIS_SCF
    atoms 1 entry O          line   318 file /work/zw18965/.conda/envs/p4env/share/psi4/basis/aug-cc-pvqz-jkfit.gbs 
    atoms 2 entry C          line   178 file /work/zw18965/.conda/envs/p4env/share/psi4/basis/aug-cc-pvqz-jkfit.gbs 

   => Loading Basis Set <=

    Name: AUG-CC-PV(Q+D)Z
    Role: ORBITAL
    Keyword: BASIS
    atoms 1 entry O          line   439 file /work/zw18965/.conda/envs/p4env/share/psi4/basis/aug-cc-pv_qpd_z.gbs 
    atoms 2 entry C          line   319 file /work/zw18965/.conda/envs/p4env/share/psi4/basis/aug-cc-pv_qpd_z.gbs 

  Reading orbitals from file 180, no projection.

  ==> Pre-Iterations <==

   -------------------------------------------------------
    Irrep   Nso     Nmo     Nalpha   Nbeta   Ndocc  Nsocc
   -------------------------------------------------------
     A1        62      62       0       0       0       0
     A2        22      22       0       0       0       0
     B1        38      38       0       0       0       0
     B2        38      38       0       0       0       0
   -------------------------------------------------------
    Total     160     160       7       7       7       0
   -------------------------------------------------------

  ==> Integral Setup <==

  ==> DiskDFJK: Density-Fitted J/K Matrices <==

    J tasked:                  Yes
    K tasked:                  Yes
    wK tasked:                 Yes
    Omega:               3.000E-01
    OpenMP threads:             24
    Integrals threads:          24
    Memory [MiB]:           102800
    Algorithm:                Core
    Integral Cache:           NONE
    Schwarz Cutoff:          1E-12
    Fitting Condition:       1E-10

   => Auxiliary Basis Set <=

  Basis Set: (AUG-CC-PV(Q+D)Z AUX)
    Blend: AUG-CC-PVQZ-JKFIT
    Number of shells: 68
    Number of basis function: 284
    Number of Cartesian functions: 396
    Spherical Harmonics?: true
    Max angular momentum: 5

  Cached 100.0% of DFT collocation blocks in 0.192 [GiB].

  Minimum eigenvalue in the overlap matrix is 9.7748281896E-05.
  Using Symmetric Orthogonalization.

  SCF Guess: Orbitals guess was supplied from a previous computation.

  ==> Iterations <==

                           Total Energy        Delta E     RMS |[F,P]|

   @DF-RKS iter   0:  -113.33044837883202   -1.13330e+02   5.34056e-05 
   @DF-RKS iter   1:  -113.32992964581616    5.18733e-04   5.59256e-06 DIIS
   @DF-RKS iter   2:  -113.32992962282418    2.29920e-08   7.01553e-06 DIIS
   @DF-RKS iter   3:  -113.32992973491257   -1.12088e-07   7.21251e-07 DIIS
   @DF-RKS iter   4:  -113.32992973600878   -1.09621e-09   1.11827e-07 DIIS
   @DF-RKS iter   5:  -113.32992973607222   -6.34373e-11   2.75932e-08 DIIS
   @DF-RKS iter   6:  -113.32992973607574   -3.52429e-12   4.09794e-09 DIIS
  Energy and wave function converged.


  ==> Post-Iterations <==

    Orbital Energies [Eh]
    ---------------------

    Doubly Occupied:                                                      

       1A1   -19.319135     2A1   -10.386555     3A1    -1.298722  
       4A1    -0.696756     1B1    -0.592332     1B2    -0.592332  
       5A1    -0.492926  

    Virtual:                                                              

       2B1     0.051160     2B2     0.051160     6A1     0.060264  
       7A1     0.078746     3B1     0.094217     3B2     0.094217  
       8A1     0.155155     4B1     0.160964     4B2     0.160964  
       9A1     0.217033    10A1     0.223418     1A2     0.223418  
      11A1     0.294561     5B1     0.307669     5B2     0.307669  
       6B2     0.365508     6B1     0.365508    12A1     0.377378  
      13A1     0.481678     2A2     0.507457    14A1     0.507457  
       7B1     0.581638     7B2     0.581638    15A1     0.592713  
       3A2     0.721408    16A1     0.721409     8B1     0.723991  
       8B2     0.723991    17A1     0.729623     9B2     0.777744  
       9B1     0.777744    10B2     0.838841    10B1     0.838841  
      18A1     0.840433    19A1     0.857380    20A1     0.861667  
       4A2     0.861668    11B2     1.007942    11B1     1.007942  
      21A1     1.080899    12B2     1.379852    12B1     1.379852  
      22A1     1.380626     5A2     1.419353    23A1     1.419354  
      13B2     1.449292    13B1     1.449292    24A1     1.588075  
       6A2     1.678242    25A1     1.678245    26A1     1.689313  
      14B2     1.704361    14B1     1.704361    15B2     1.858206  
      15B1     1.858206     7A2     2.032783    27A1     2.032784  
      28A1     2.037510     8A2     2.054955    29A1     2.054957  
      16B1     2.140167    16B2     2.140167    30A1     2.194195  
      17B2     2.220887    17B1     2.220887    31A1     2.265603  
       9A2     2.265604    18B2     2.276881    18B1     2.276881  
      32A1     2.361147    19B2     2.411048    19B1     2.411048  
      20B2     2.686738    20B1     2.686738    33A1     2.818827  
      34A1     2.877292    10A2     2.877297    35A1     3.337741  
      21B2     3.562158    21B1     3.562158    36A1     3.562620  
      11A2     3.562626    37A1     3.757177    22B2     3.853365  
      22B1     3.853365    38A1     3.962674    12A2     3.962678  
      23B1     4.015017    23B2     4.015017    39A1     4.095751  
      24B2     4.111823    24B1     4.111823    13A2     4.137406  
      40A1     4.137408    41A1     4.313291    25B2     4.526937  
      25B1     4.526937    42A1     4.879519    26B1     4.896190  
      26B2     4.896190    43A1     4.914666    14A2     4.914670  
      44A1     5.670848    15A2     5.698390    45A1     5.698390  
      27B1     5.911806    27B2     5.911806    28B1     5.947808  
      28B2     5.947808    16A2     6.061012    46A1     6.061027  
      29B2     6.076087    29B1     6.076087    47A1     6.149286  
      30B1     6.195575    30B2     6.195575    17A2     6.335835  
      48A1     6.335837    49A1     6.959442    18A2     7.091963  
      50A1     7.091965    31B2     7.224547    31B1     7.224547  
      51A1     7.922699    52A1     8.159836    32B2     8.295848  
      32B1     8.295848    53A1    10.205463    19A2    10.205520  
      33B1    10.482870    33B2    10.482870    34B2    10.587654  
      34B1    10.587654    54A1    10.729400    20A2    10.729404  
      55A1    10.942799    35B2    10.971530    35B1    10.971530  
      36B2    11.376924    36B1    11.376924    56A1    11.562548  
      21A2    11.817041    57A1    11.817049    37B2    12.259429  
      37B1    12.259429    22A2    12.408562    58A1    12.408587  
      59A1    13.307709    38B2    13.742107    38B1    13.742107  
      60A1    14.011394    61A1    24.228184    62A1    41.908912  

    Final Occupation by Irrep:
             A1    A2    B1    B2 
    DOCC [     5,    0,    1,    1 ]

  @DF-RKS Final Energy:  -113.32992973607574

   => Energetics <=

    Nuclear Repulsion Energy =             22.6016084705309197
    One-Electron Energy =                -198.4802727152372768
    Two-Electron Energy =                  72.3414586972644997
    DFT Exchange-Correlation Energy =      -9.8518574733423350
    Empirical Dispersion Energy =           0.0000000000000000
    VV10 Nonlocal Energy =                  0.0591332847084527
    Total Energy =                       -113.3299297360757407

Computation Completed


Properties will be evaluated at   0.000000,   0.000000,   0.000000 [a0]

Properties computed using the SCF density matrix

  Nuclear Dipole Moment: [e a0]
     X:     0.0000      Y:     0.0000      Z:     0.0023

  Electronic Dipole Moment: [e a0]
     X:     0.0000      Y:     0.0000      Z:     0.0346

  Dipole Moment: [e a0]
     X:     0.0000      Y:     0.0000      Z:     0.0369     Total:     0.0369

  Dipole Moment: [D]
     X:     0.0000      Y:     0.0000      Z:     0.0937     Total:     0.0937


*** tstop() called on bp1-compute00155.data.bp.acrc.priv at Tue Apr 20 11:03:01 2021
Module time:
	user time   =      56.52 seconds =       0.94 minutes
	system time =       2.10 seconds =       0.03 minutes
	total time  =          2 seconds =       0.03 minutes
Total time:
	user time   =     327.79 seconds =       5.46 minutes
	system time =      12.20 seconds =       0.20 minutes
	total time  =         15 seconds =       0.25 minutes

  //>>>>>>>>>>>>>>>>>>>>>>>>>>>>>>>>>>>//
  //    Loading displacement 3 of 3    //
  //<<<<<<<<<<<<<<<<<<<<<<<<<<<<<<<<<<<//

*** tstart() called on bp1-compute00155.data.bp.acrc.priv
*** at Tue Apr 20 11:03:01 2021

   => Loading Basis Set <=

    Name: AUG-CC-PV(Q+D)Z
    Role: ORBITAL
    Keyword: BASIS
    atoms 1 entry O          line   439 file /work/zw18965/.conda/envs/p4env/share/psi4/basis/aug-cc-pv_qpd_z.gbs 
    atoms 2 entry C          line   319 file /work/zw18965/.conda/envs/p4env/share/psi4/basis/aug-cc-pv_qpd_z.gbs 


         ---------------------------------------------------------
                                   SCF
               by Justin Turney, Rob Parrish, Andy Simmonett
                          and Daniel G. A. Smith
                              RKS Reference
                       24 Threads, 137329 MiB Core
         ---------------------------------------------------------

  ==> Geometry <==

    Molecular point group: c2v
    Full point group: C_inf_v

    Geometry (in Angstrom), charge = 0, multiplicity = 1:

       Center              X                  Y                   Z               Mass       
    ------------   -----------------  -----------------  -----------------  -----------------
         O            0.000000000000     0.000000000000     0.482597870351    15.994914619570
         C            0.000000000000     0.000000000000    -0.643259310987    12.000000000000

  Running in c2v symmetry.

  Rotational constants: A = ************  B =      1.93975  C =      1.93975 [cm^-1]
  Rotational constants: A = ************  B =  58152.25627  C =  58152.25627 [MHz]
  Nuclear repulsion =   22.561037521638525

  Charge       = 0
  Multiplicity = 1
  Electrons    = 14
  Nalpha       = 7
  Nbeta        = 7

  ==> Algorithm <==

  SCF Algorithm Type is DF.
  DIIS enabled.
  MOM disabled.
  Fractional occupation disabled.
  Guess Type is READ.
  Energy threshold   = 1.00e-08
  Density threshold  = 1.00e-08
  Integral threshold = 0.00e+00

  ==> Primary Basis <==

  Basis Set: AUG-CC-PV(Q+D)Z
    Blend: AUG-CC-PV(Q+D)Z
    Number of shells: 40
    Number of basis function: 160
    Number of Cartesian functions: 210
    Spherical Harmonics?: true
    Max angular momentum: 4

  ==> DFT Potential <==

   => Composite Functional: WB97X-V <= 

    wB97X-V Hyb-GGA Exchange-Correlation Functional

    N. Mardirossian and M. Head-Gordon, Phys. Chem. Chem. Phys. 16, 9904 (2014)

    Deriv               =              1
    GGA                 =           TRUE
    Meta                =          FALSE

    Exchange Hybrid     =           TRUE
    MP2 Hybrid          =          FALSE

   => Exchange-Correlation Functionals <=

    1.0000   wB97X-V range-separated functional

   => Exact (HF) Exchange <=

    0.8330            HF,LR [omega = 0.3000]
    0.1670               HF 

   => VV10 Non-Local Parameters <=

    VV10 B              =     6.0000E+00
    VV10 C              =     1.0000E-02

   => Molecular Quadrature <=

    Radial Scheme          =       TREUTLER
    Pruning Scheme         =           FLAT
    Nuclear Scheme         =       TREUTLER

    BS radius alpha        =              1
    Pruning alpha          =              1
    Radial Points          =             75
    Spherical Points       =            302
    Total Points           =          45300
    Total Blocks           =            420
    Max Points             =            256
    Max Functions          =            160

   => Loading Basis Set <=

    Name: (AUG-CC-PV(Q+D)Z AUX)
    Role: JKFIT
    Keyword: DF_BASIS_SCF
    atoms 1 entry O          line   318 file /work/zw18965/.conda/envs/p4env/share/psi4/basis/aug-cc-pvqz-jkfit.gbs 
    atoms 2 entry C          line   178 file /work/zw18965/.conda/envs/p4env/share/psi4/basis/aug-cc-pvqz-jkfit.gbs 

   => Loading Basis Set <=

    Name: AUG-CC-PV(Q+D)Z
    Role: ORBITAL
    Keyword: BASIS
    atoms 1 entry O          line   439 file /work/zw18965/.conda/envs/p4env/share/psi4/basis/aug-cc-pv_qpd_z.gbs 
    atoms 2 entry C          line   319 file /work/zw18965/.conda/envs/p4env/share/psi4/basis/aug-cc-pv_qpd_z.gbs 

  Reading orbitals from file 180, no projection.

  ==> Pre-Iterations <==

   -------------------------------------------------------
    Irrep   Nso     Nmo     Nalpha   Nbeta   Ndocc  Nsocc
   -------------------------------------------------------
     A1        62      62       0       0       0       0
     A2        22      22       0       0       0       0
     B1        38      38       0       0       0       0
     B2        38      38       0       0       0       0
   -------------------------------------------------------
    Total     160     160       7       7       7       0
   -------------------------------------------------------

  ==> Integral Setup <==

  ==> DiskDFJK: Density-Fitted J/K Matrices <==

    J tasked:                  Yes
    K tasked:                  Yes
    wK tasked:                 Yes
    Omega:               3.000E-01
    OpenMP threads:             24
    Integrals threads:          24
    Memory [MiB]:           102800
    Algorithm:                Core
    Integral Cache:           NONE
    Schwarz Cutoff:          1E-12
    Fitting Condition:       1E-10

   => Auxiliary Basis Set <=

  Basis Set: (AUG-CC-PV(Q+D)Z AUX)
    Blend: AUG-CC-PVQZ-JKFIT
    Number of shells: 68
    Number of basis function: 284
    Number of Cartesian functions: 396
    Spherical Harmonics?: true
    Max angular momentum: 5

  Cached 100.0% of DFT collocation blocks in 0.192 [GiB].

  Minimum eigenvalue in the overlap matrix is 9.8141205530E-05.
  Using Symmetric Orthogonalization.

  SCF Guess: Orbitals guess was supplied from a previous computation.

  ==> Iterations <==

                           Total Energy        Delta E     RMS |[F,P]|

   @DF-RKS iter   0:  -113.32941421762995   -1.13329e+02   5.32996e-05 
   @DF-RKS iter   1:  -113.32993027039511   -5.16053e-04   5.61507e-06 DIIS
   @DF-RKS iter   2:  -113.32993024627879    2.41163e-08   7.07080e-06 DIIS
   @DF-RKS iter   3:  -113.32993036023898   -1.13960e-07   7.22935e-07 DIIS
   @DF-RKS iter   4:  -113.32993036134069   -1.10171e-09   1.12894e-07 DIIS
   @DF-RKS iter   5:  -113.32993036140556   -6.48726e-11   2.78593e-08 DIIS
   @DF-RKS iter   6:  -113.32993036140908   -3.52429e-12   4.11372e-09 DIIS
  Energy and wave function converged.


  ==> Post-Iterations <==

    Orbital Energies [Eh]
    ---------------------

    Doubly Occupied:                                                      

       1A1   -19.319237     2A1   -10.387326     3A1    -1.297604  
       4A1    -0.696744     1B1    -0.591598     1B2    -0.591598  
       5A1    -0.493104  

    Virtual:                                                              

       2B1     0.050769     2B2     0.050769     6A1     0.060288  
       7A1     0.078717     3B1     0.093887     3B2     0.093887  
       8A1     0.155145     4B1     0.160999     4B2     0.160999  
       9A1     0.217027    10A1     0.223418     1A2     0.223418  
      11A1     0.294533     5B1     0.307521     5B2     0.307521  
       6B1     0.365505     6B2     0.365505    12A1     0.377282  
      13A1     0.481670     2A2     0.507542    14A1     0.507543  
       7B1     0.581686     7B2     0.581686    15A1     0.591781  
       3A2     0.721351    16A1     0.721352     8B2     0.723971  
       8B1     0.723971    17A1     0.729441     9B1     0.777434  
       9B2     0.777434    10B1     0.838930    10B2     0.838930  
      18A1     0.839966    19A1     0.856606    20A1     0.861548  
       4A2     0.861549    11B1     1.007606    11B2     1.007606  
      21A1     1.079780    12B2     1.379643    12B1     1.379643  
      22A1     1.379918     5A2     1.419512    23A1     1.419512  
      13B1     1.449414    13B2     1.449414    24A1     1.588138  
       6A2     1.678095    25A1     1.678098    26A1     1.689704  
      14B1     1.702817    14B2     1.702817    15B1     1.859141  
      15B2     1.859141     7A2     2.032704    27A1     2.032706  
      28A1     2.036467     8A2     2.054532    29A1     2.054534  
      16B2     2.140052    16B1     2.140052    30A1     2.194006  
      17B1     2.220443    17B2     2.220443    31A1     2.265271  
       9A2     2.265272    18B2     2.276182    18B1     2.276182  
      32A1     2.360801    19B1     2.410414    19B2     2.410414  
      20B1     2.685150    20B2     2.685150    33A1     2.815934  
      34A1     2.875717    10A2     2.875722    35A1     3.338035  
      21B1     3.561445    21B2     3.561445    36A1     3.562170  
      11A2     3.562177    37A1     3.756173    22B2     3.853373  
      22B1     3.853373    38A1     3.962633    12A2     3.962637  
      23B2     4.014808    23B1     4.014808    39A1     4.095056  
      24B2     4.109698    24B1     4.109698    13A2     4.136492  
      40A1     4.136495    41A1     4.309921    25B1     4.527417  
      25B2     4.527417    42A1     4.882645    26B1     4.893045  
      26B2     4.893045    43A1     4.913550    14A2     4.913554  
      44A1     5.663190    15A2     5.698239    45A1     5.698240  
      27B1     5.909951    27B2     5.909951    28B1     5.945907  
      28B2     5.945907    16A2     6.060459    46A1     6.060473  
      29B1     6.075321    29B2     6.075321    47A1     6.150265  
      30B2     6.195379    30B1     6.195379    17A2     6.334913  
      48A1     6.334916    49A1     6.951481    18A2     7.084415  
      50A1     7.084417    31B2     7.220026    31B1     7.220026  
      51A1     7.915718    52A1     8.161146    32B1     8.288883  
      32B2     8.288883    53A1    10.205482    19A2    10.205540  
      33B2    10.481423    33B1    10.481423    34B1    10.587338  
      34B2    10.587338    54A1    10.727493    20A2    10.727496  
      55A1    10.942139    35B2    10.970400    35B1    10.970400  
      36B1    11.376850    36B2    11.376850    56A1    11.559192  
      21A2    11.814944    57A1    11.814952    37B1    12.255671  
      37B2    12.255671    22A2    12.406971    58A1    12.406996  
      59A1    13.297322    38B1    13.730881    38B2    13.730881  
      60A1    14.008270    61A1    24.202950    62A1    41.899063  

    Final Occupation by Irrep:
             A1    A2    B1    B2 
    DOCC [     5,    0,    1,    1 ]

  @DF-RKS Final Energy:  -113.32993036140908

   => Energetics <=

    Nuclear Repulsion Energy =             22.5610375216385250
    One-Electron Energy =                -198.4032946986774846
    Two-Electron Energy =                  72.3033679592364678
    DFT Exchange-Correlation Energy =      -9.8501741964826266
    Empirical Dispersion Energy =           0.0000000000000000
    VV10 Nonlocal Energy =                  0.0591330528760427
    Total Energy =                       -113.3299303614090690

Computation Completed


Properties will be evaluated at   0.000000,   0.000000,   0.000000 [a0]

Properties computed using the SCF density matrix

  Nuclear Dipole Moment: [e a0]
     X:     0.0000      Y:     0.0000      Z:     0.0023

  Electronic Dipole Moment: [e a0]
     X:     0.0000      Y:     0.0000      Z:     0.0315

  Dipole Moment: [e a0]
     X:     0.0000      Y:     0.0000      Z:     0.0339     Total:     0.0339

  Dipole Moment: [D]
     X:     0.0000      Y:     0.0000      Z:     0.0861     Total:     0.0861


*** tstop() called on bp1-compute00155.data.bp.acrc.priv at Tue Apr 20 11:03:04 2021
Module time:
	user time   =      52.03 seconds =       0.87 minutes
	system time =       1.74 seconds =       0.03 minutes
	total time  =          3 seconds =       0.05 minutes
Total time:
	user time   =     379.95 seconds =       6.33 minutes
	system time =      13.95 seconds =       0.23 minutes
	total time  =         18 seconds =       0.30 minutes

         ----------------------------------------------------------
                                   FINDIF
                     R. A. King and Jonathon Misiewicz
         ---------------------------------------------------------

  Computing gradient from energies.
    Using 3-point formula.
    Energy without displacement: -113.3299324196
    Check energies below for precision!
    Forces are for mass-weighted, symmetry-adapted cartesians (in au).

     Coord      Energy(-1)        Energy(+1)            Force
        0   -113.3299297361   -113.3299303614     -0.0000625333


-------------------------------------------------------------
  ## New Matrix (Symmetry 0) ##
  Irrep: 1 Size: 2 x 3

                 1                   2                   3

    1     0.00000000000000     0.00000000000000    -0.00016373955212
    2     0.00000000000000     0.00000000000000     0.00016373955212




			-----------------------------------------
			 OPTKING 2.0: for geometry optimizations 
			  - R.A. King,  Bethel University        
			-----------------------------------------

	Previous internal coordinate definitions found.
	---Fragment 1 Geometry and Gradient---
	 O           0.0000000000        0.0000000000        0.9111592822
	 C           0.0000000000        0.0000000000       -1.2144929103
	             0.0000000000        0.0000000000       -0.0001637396
	             0.0000000000        0.0000000000        0.0001637396

	---Fragment 1 Intrafragment Coordinates---
	 - Coordinate -           - BOHR/RAD -       - ANG/DEG -
	 R(1,2)           =         2.125652	       1.124847

	Current energy   :      -113.3299324196

	Energy change for the previous step:
		Projected    :        -0.0000004867
		Actual       :        -0.0000004146
	Energy ratio indicates good step: Trust radius increased to 1.000e+00.


	Performing BFGS update.
	Previous computed or guess Hessian on step 1.
	Steps to be used in Hessian update: 1
	Taking RFO optimization step.
	Going to follow RFO solution 1.
	Using RFO vector 1.
	Norm of target step-size    0.00013
	Projected energy change by RFO approximation:        -0.0000000127

	Back-transformation to cartesian coordinates...
[...]
    Total Energy =                       -113.3299297360757691

Computation Completed


Properties will be evaluated at   0.000000,   0.000000,   0.000000 [a0]

Properties computed using the SCF density matrix

  Nuclear Dipole Moment: [e a0]
     X:     0.0000      Y:     0.0000      Z:     0.0023

  Electronic Dipole Moment: [e a0]
     X:     0.0000      Y:     0.0000      Z:     0.0346

  Dipole Moment: [e a0]
     X:     0.0000      Y:     0.0000      Z:     0.0369     Total:     0.0369

  Dipole Moment: [D]
     X:     0.0000      Y:     0.0000      Z:     0.0937     Total:     0.0937


*** tstop() called on bp1-compute00155.data.bp.acrc.priv at Tue Apr 20 11:03:21 2021
Module time:
	user time   =      79.62 seconds =       1.33 minutes
	system time =       2.36 seconds =       0.04 minutes
	total time  =          3 seconds =       0.05 minutes
Total time:
	user time   =     769.34 seconds =      12.82 minutes
	system time =      27.57 seconds =       0.46 minutes
	total time  =         35 seconds =       0.58 minutes

  //>>>>>>>>>>>>>>>>>>>>>>>>>>>>>>>>>>>//
  //    Loading displacement 3 of 3    //
  //<<<<<<<<<<<<<<<<<<<<<<<<<<<<<<<<<<<//

*** tstart() called on bp1-compute00155.data.bp.acrc.priv
*** at Tue Apr 20 11:03:21 2021

   => Loading Basis Set <=

    Name: AUG-CC-PV(Q+D)Z
    Role: ORBITAL
    Keyword: BASIS
    atoms 1 entry O          line   439 file /work/zw18965/.conda/envs/p4env/share/psi4/basis/aug-cc-pv_qpd_z.gbs 
    atoms 2 entry C          line   319 file /work/zw18965/.conda/envs/p4env/share/psi4/basis/aug-cc-pv_qpd_z.gbs 


         ---------------------------------------------------------
                                   SCF
               by Justin Turney, Rob Parrish, Andy Simmonett
                          and Daniel G. A. Smith
                              RKS Reference
                       24 Threads, 137329 MiB Core
         ---------------------------------------------------------

  ==> Geometry <==

    Molecular point group: c2v
    Full point group: C_inf_v

    Geometry (in Angstrom), charge = 0, multiplicity = 1:

       Center              X                  Y                   Z               Mass       
    ------------   -----------------  -----------------  -----------------  -----------------
         O            0.000000000000     0.000000000000     0.482597870351    15.994914619570
         C            0.000000000000     0.000000000000    -0.643259310987    12.000000000000

  Running in c2v symmetry.

  Rotational constants: A = ************  B =      1.93975  C =      1.93975 [cm^-1]
  Rotational constants: A = ************  B =  58152.25627  C =  58152.25627 [MHz]
  Nuclear repulsion =   22.561037521638525

  Charge       = 0
  Multiplicity = 1
  Electrons    = 14
  Nalpha       = 7
  Nbeta        = 7

  ==> Algorithm <==

  SCF Algorithm Type is DF.
  DIIS enabled.
  MOM disabled.
  Fractional occupation disabled.
  Guess Type is SAD.
  Energy threshold   = 1.00e-10
  Density threshold  = 1.00e-10
  Integral threshold = 0.00e+00

  ==> Primary Basis <==

  Basis Set: AUG-CC-PV(Q+D)Z
    Blend: AUG-CC-PV(Q+D)Z
    Number of shells: 40
    Number of basis function: 160
    Number of Cartesian functions: 210
    Spherical Harmonics?: true
    Max angular momentum: 4

  ==> DFT Potential <==

   => Composite Functional: WB97X-V <= 

    wB97X-V Hyb-GGA Exchange-Correlation Functional

    N. Mardirossian and M. Head-Gordon, Phys. Chem. Chem. Phys. 16, 9904 (2014)

    Deriv               =              1
    GGA                 =           TRUE
    Meta                =          FALSE

    Exchange Hybrid     =           TRUE
    MP2 Hybrid          =          FALSE

   => Exchange-Correlation Functionals <=

    1.0000   wB97X-V range-separated functional

   => Exact (HF) Exchange <=

    0.8330            HF,LR [omega = 0.3000]
    0.1670               HF 

   => VV10 Non-Local Parameters <=

    VV10 B              =     6.0000E+00
    VV10 C              =     1.0000E-02

   => Molecular Quadrature <=

    Radial Scheme          =       TREUTLER
    Pruning Scheme         =           FLAT
    Nuclear Scheme         =       TREUTLER

    BS radius alpha        =              1
    Pruning alpha          =              1
    Radial Points          =             75
    Spherical Points       =            302
    Total Points           =          45300
    Total Blocks           =            420
    Max Points             =            256
    Max Functions          =            160

   => Loading Basis Set <=

    Name: (AUG-CC-PV(Q+D)Z AUX)
    Role: JKFIT
    Keyword: DF_BASIS_SCF
    atoms 1 entry O          line   318 file /work/zw18965/.conda/envs/p4env/share/psi4/basis/aug-cc-pvqz-jkfit.gbs 
    atoms 2 entry C          line   178 file /work/zw18965/.conda/envs/p4env/share/psi4/basis/aug-cc-pvqz-jkfit.gbs 

  ==> Pre-Iterations <==

   -------------------------------------------------------
    Irrep   Nso     Nmo     Nalpha   Nbeta   Ndocc  Nsocc
   -------------------------------------------------------
     A1        62      62       0       0       0       0
     A2        22      22       0       0       0       0
     B1        38      38       0       0       0       0
     B2        38      38       0       0       0       0
   -------------------------------------------------------
    Total     160     160       7       7       7       0
   -------------------------------------------------------

  ==> Integral Setup <==

  ==> DiskDFJK: Density-Fitted J/K Matrices <==

    J tasked:                  Yes
    K tasked:                  Yes
    wK tasked:                 Yes
    Omega:               3.000E-01
    OpenMP threads:             24
    Integrals threads:          24
    Memory [MiB]:           102800
    Algorithm:                Core
    Integral Cache:           NONE
    Schwarz Cutoff:          1E-12
    Fitting Condition:       1E-10

   => Auxiliary Basis Set <=

  Basis Set: (AUG-CC-PV(Q+D)Z AUX)
    Blend: AUG-CC-PVQZ-JKFIT
    Number of shells: 68
    Number of basis function: 284
    Number of Cartesian functions: 396
    Spherical Harmonics?: true
    Max angular momentum: 5

  Cached 100.0% of DFT collocation blocks in 0.192 [GiB].

  Minimum eigenvalue in the overlap matrix is 9.8141205530E-05.
  Using Symmetric Orthogonalization.

  SCF Guess: Superposition of Atomic Densities via on-the-fly atomic UHF.

  ==> Iterations <==

                           Total Energy        Delta E     RMS |[F,P]|

   @DF-RKS iter SAD:  -112.58029461308675   -1.12580e+02   0.00000e+00 
   @DF-RKS iter   1:  -113.29246834135320   -7.12174e-01   4.12872e-03 DIIS
   @DF-RKS iter   2:  -113.27644255073506    1.60258e-02   4.86299e-03 DIIS
   @DF-RKS iter   3:  -113.32871968182852   -5.22771e-02   6.56304e-04 DIIS
   @DF-RKS iter   4:  -113.32991147476424   -1.19179e-03   7.29321e-05 DIIS
   @DF-RKS iter   5:  -113.32992958313008   -1.81084e-05   1.14104e-05 DIIS
   @DF-RKS iter   6:  -113.32993031110865   -7.27979e-07   2.34947e-06 DIIS
   @DF-RKS iter   7:  -113.32993036025398   -4.91453e-08   3.16959e-07 DIIS
   @DF-RKS iter   8:  -113.32993036138964   -1.13566e-09   6.43306e-08 DIIS
   @DF-RKS iter   9:  -113.32993036140886   -1.92131e-11   6.20113e-09 DIIS
   @DF-RKS iter  10:  -113.32993036140913   -2.70006e-13   9.74748e-10 DIIS
   @DF-RKS iter  11:  -113.32993036140907    5.68434e-14   8.55613e-11 DIIS
  Energy and wave function converged.


  ==> Post-Iterations <==

    Orbital Energies [Eh]
    ---------------------

    Doubly Occupied:                                                      

       1A1   -19.319237     2A1   -10.387326     3A1    -1.297604  
       4A1    -0.696744     1B1    -0.591598     1B2    -0.591598  
       5A1    -0.493104  

    Virtual:                                                              

       2B1     0.050769     2B2     0.050769     6A1     0.060288  
       7A1     0.078717     3B1     0.093887     3B2     0.093887  
       8A1     0.155145     4B1     0.160999     4B2     0.160999  
       9A1     0.217027    10A1     0.223418     1A2     0.223418  
      11A1     0.294533     5B1     0.307521     5B2     0.307521  
       6B1     0.365505     6B2     0.365505    12A1     0.377282  
      13A1     0.481670     2A2     0.507542    14A1     0.507543  
       7B1     0.581686     7B2     0.581686    15A1     0.591781  
       3A2     0.721351    16A1     0.721352     8B2     0.723971  
       8B1     0.723971    17A1     0.729441     9B1     0.777434  
       9B2     0.777434    10B1     0.838930    10B2     0.838930  
      18A1     0.839966    19A1     0.856606    20A1     0.861548  
       4A2     0.861549    11B1     1.007606    11B2     1.007606  
      21A1     1.079780    12B2     1.379643    12B1     1.379643  
      22A1     1.379918     5A2     1.419512    23A1     1.419512  
      13B1     1.449414    13B2     1.449414    24A1     1.588138  
       6A2     1.678095    25A1     1.678098    26A1     1.689704  
      14B1     1.702817    14B2     1.702817    15B1     1.859141  
      15B2     1.859141     7A2     2.032704    27A1     2.032706  
      28A1     2.036467     8A2     2.054532    29A1     2.054534  
      16B2     2.140052    16B1     2.140052    30A1     2.194006  
      17B1     2.220443    17B2     2.220443    31A1     2.265271  
       9A2     2.265272    18B2     2.276182    18B1     2.276182  
      32A1     2.360801    19B1     2.410414    19B2     2.410414  
      20B1     2.685150    20B2     2.685150    33A1     2.815934  
      34A1     2.875717    10A2     2.875722    35A1     3.338035  
      21B1     3.561445    21B2     3.561445    36A1     3.562170  
      11A2     3.562177    37A1     3.756173    22B2     3.853373  
      22B1     3.853373    38A1     3.962633    12A2     3.962637  
      23B2     4.014808    23B1     4.014808    39A1     4.095056  
      24B2     4.109698    24B1     4.109698    13A2     4.136492  
      40A1     4.136495    41A1     4.309921    25B1     4.527417  
      25B2     4.527417    42A1     4.882646    26B1     4.893046  
      26B2     4.893046    43A1     4.913550    14A2     4.913554  
      44A1     5.663190    15A2     5.698239    45A1     5.698240  
      27B2     5.909951    27B1     5.909951    28B1     5.945907  
      28B2     5.945907    16A2     6.060459    46A1     6.060473  
      29B1     6.075321    29B2     6.075321    47A1     6.150265  
      30B2     6.195379    30B1     6.195379    17A2     6.334913  
      48A1     6.334916    49A1     6.951481    18A2     7.084415  
      50A1     7.084417    31B2     7.220026    31B1     7.220026  
      51A1     7.915718    52A1     8.161146    32B1     8.288883  
      32B2     8.288883    53A1    10.205482    19A2    10.205540  
      33B2    10.481423    33B1    10.481423    34B1    10.587338  
      34B2    10.587338    54A1    10.727493    20A2    10.727496  
      55A1    10.942139    35B2    10.970400    35B1    10.970400  
      36B1    11.376850    36B2    11.376850    56A1    11.559192  
      21A2    11.814944    57A1    11.814952    37B1    12.255671  
      37B2    12.255671    22A2    12.406971    58A1    12.406996  
      59A1    13.297322    38B1    13.730881    38B2    13.730881  
      60A1    14.008270    61A1    24.202949    62A1    41.899063  

    Final Occupation by Irrep:
             A1    A2    B1    B2 
    DOCC [     5,    0,    1,    1 ]

  @DF-RKS Final Energy:  -113.32993036140907

   => Energetics <=

    Nuclear Repulsion Energy =             22.5610375216385250
    One-Electron Energy =                -198.4032938229284753
    Two-Electron Energy =                  72.3033669905785530
    DFT Exchange-Correlation Energy =      -9.8501741034214518
    Empirical Dispersion Energy =           0.0000000000000000
    VV10 Nonlocal Energy =                  0.0591330527237786
    Total Energy =                       -113.3299303614090690

Computation Completed


Properties will be evaluated at   0.000000,   0.000000,   0.000000 [a0]

Properties computed using the SCF density matrix

  Nuclear Dipole Moment: [e a0]
     X:     0.0000      Y:     0.0000      Z:     0.0023

  Electronic Dipole Moment: [e a0]
     X:     0.0000      Y:     0.0000      Z:     0.0315

  Dipole Moment: [e a0]
     X:     0.0000      Y:     0.0000      Z:     0.0339     Total:     0.0339

  Dipole Moment: [D]
     X:     0.0000      Y:     0.0000      Z:     0.0861     Total:     0.0861


*** tstop() called on bp1-compute00155.data.bp.acrc.priv at Tue Apr 20 11:03:25 2021
Module time:
	user time   =      79.91 seconds =       1.33 minutes
	system time =       2.35 seconds =       0.04 minutes
	total time  =          4 seconds =       0.07 minutes
Total time:
	user time   =     849.39 seconds =      14.16 minutes
	system time =      29.93 seconds =       0.50 minutes
	total time  =         39 seconds =       0.65 minutes

         ----------------------------------------------------------
                                   FINDIF
                     R. A. King and Jonathon Misiewicz
         ---------------------------------------------------------

  Computing second-derivative from energies using projected, 
  symmetry-adapted, cartesian coordinates.

  3 energies passed in, including the reference geometry.
    Using 3-point formula.
    Energy without displacement: -113.3299324196
    Check energies below for precision!
    0: -1 :      -113.3299297361
    0: 1  :      -113.3299303614

-------------------------------------------------------------


  ==> Harmonic Vibrational Analysis <==

  non-mass-weighted Hessian:       Symmetric? True   Hermitian? True   Lin Dep Dim?  5 (0)
  projection of translations (True) and rotations (True) removed 5 degrees of freedom (5)
  total projector:                 Symmetric? True   Hermitian? True   Lin Dep Dim?  5 (5)
  mass-weighted Hessian:           Symmetric? True   Hermitian? True   Lin Dep Dim?  5 (0)
  pre-proj  low-frequency mode:    0.0000i [cm^-1]
  pre-proj  low-frequency mode:    0.0000  [cm^-1]
  pre-proj  low-frequency mode:    0.0000  [cm^-1]
  pre-proj  low-frequency mode:    0.0000  [cm^-1]
  pre-proj  low-frequency mode:    0.0000  [cm^-1]
  pre-proj  all modes:['0.0000i' '0.0000' '0.0000' '0.0000' '0.0000' '2238.7314']
  projected mass-weighted Hessian: Symmetric? True   Hermitian? True   Lin Dep Dim?  5 (5)
  post-proj low-frequency mode:    0.0000  [cm^-1] (TR)
  post-proj low-frequency mode:    0.0000  [cm^-1] (TR)
  post-proj low-frequency mode:    0.0000  [cm^-1] (TR)
  post-proj low-frequency mode:    0.0000  [cm^-1] (TR)
  post-proj low-frequency mode:    0.0000  [cm^-1] (TR)
  post-proj  all modes:['0.0000' '0.0000' '0.0000' '0.0000' '0.0000' '2238.7314']

  Vibration                       6           
  Freq [cm^-1]                2238.7314       
  Irrep                           A1          
  Reduced mass [u]             13.4388        
  Force const [mDyne/A]        39.6838        
  Turning point v=0 [a0]        0.0633        
  RMS dev v=0 [a0 u^1/2]        0.1640        
  Char temp [K]               3221.0361       
  ----------------------------------------------------------------------------------
      1   O                0.00  0.00 -0.60   
      2   C                0.00  0.00  0.80   

  ==> Thermochemistry Components <==

  Entropy, S
    Electronic S            0.000 [cal/(mol K)]        0.000 [J/(mol K)]       0.00000000 [mEh/K] (multiplicity = 1)
    Translational S        35.923 [cal/(mol K)]      150.302 [J/(mol K)]       0.05724692 [mEh/K] (mol. weight = 27.9949 [u], P = 101325.00 [Pa])
    Rotational S           11.266 [cal/(mol K)]       47.138 [J/(mol K)]       0.01795407 [mEh/K] (symmetry no. = 1)
    Vibrational S           0.000 [cal/(mol K)]        0.002 [J/(mol K)]       0.00000076 [mEh/K]
  Total S                  47.190 [cal/(mol K)]      197.442 [J/(mol K)]       0.07520175 [mEh/K]
  Correction S              0.000 [cal/(mol K)]        0.000 [J/(mol K)]       0.00000000 [mEh/K]

  Constant volume heat capacity, Cv
    Electronic Cv           0.000 [cal/(mol K)]        0.000 [J/(mol K)]       0.00000000 [mEh/K]
    Translational Cv        2.981 [cal/(mol K)]       12.472 [J/(mol K)]       0.00475022 [mEh/K]
    Rotational Cv           1.987 [cal/(mol K)]        8.314 [J/(mol K)]       0.00316681 [mEh/K]
    Vibrational Cv          0.005 [cal/(mol K)]        0.020 [J/(mol K)]       0.00000751 [mEh/K]
  Total Cv                  4.973 [cal/(mol K)]       20.806 [J/(mol K)]       0.00792454 [mEh/K]
  Correction Cv             0.000 [cal/(mol K)]        0.000 [J/(mol K)]       0.00000000 [mEh/K]

  Constant pressure heat capacity, Cp
    Electronic Cp           0.000 [cal/(mol K)]        0.000 [J/(mol K)]       0.00000000 [mEh/K]
    Translational Cp        4.968 [cal/(mol K)]       20.786 [J/(mol K)]       0.00791703 [mEh/K]
    Rotational Cp           1.987 [cal/(mol K)]        8.314 [J/(mol K)]       0.00316681 [mEh/K]
    Vibrational Cp          0.005 [cal/(mol K)]        0.020 [J/(mol K)]       0.00000751 [mEh/K]
  Total Cp                  6.960 [cal/(mol K)]       29.120 [J/(mol K)]       0.01109135 [mEh/K]
  Correction Cp             0.000 [cal/(mol K)]        0.000 [J/(mol K)]       0.00000000 [mEh/K]

  ==> Thermochemistry Energy Analysis <==

  Raw electronic energy, E0
  Total E0, Electronic energy at well bottom at 0 [K]                 -113.32993242 [Eh]

  Zero-point energy, ZPE_vib = Sum_i nu_i / 2
    Electronic ZPE          0.000 [kcal/mol]        0.000 [kJ/mol]       0.00000000 [Eh]
    Translational ZPE       0.000 [kcal/mol]        0.000 [kJ/mol]       0.00000000 [Eh]
    Rotational ZPE          0.000 [kcal/mol]        0.000 [kJ/mol]       0.00000000 [Eh]
    Vibrational ZPE         3.200 [kcal/mol]       13.391 [kJ/mol]       0.00510021 [Eh]        1119.366 [cm^-1]
  Correction ZPE            3.200 [kcal/mol]       13.391 [kJ/mol]       0.00510021 [Eh]        1119.366 [cm^-1]
  Total ZPE, Electronic energy at 0 [K]                               -113.32483221 [Eh]

  Thermal Energy, E (includes ZPE)
    Electronic E            0.000 [kcal/mol]        0.000 [kJ/mol]       0.00000000 [Eh]
    Translational E         0.889 [kcal/mol]        3.718 [kJ/mol]       0.00141628 [Eh]
    Rotational E            0.592 [kcal/mol]        2.479 [kJ/mol]       0.00094418 [Eh]
    Vibrational E           3.201 [kcal/mol]       13.391 [kJ/mol]       0.00510041 [Eh]
  Correction E              4.682 [kcal/mol]       19.589 [kJ/mol]       0.00746087 [Eh]
  Total E, Electronic energy at  298.15 [K]                           -113.32247155 [Eh]

  Enthalpy, H_trans = E_trans + k_B * T
    Electronic H            0.000 [kcal/mol]        0.000 [kJ/mol]       0.00000000 [Eh]
    Translational H         1.481 [kcal/mol]        6.197 [kJ/mol]       0.00236046 [Eh]
    Rotational H            0.592 [kcal/mol]        2.479 [kJ/mol]       0.00094418 [Eh]
    Vibrational H           3.201 [kcal/mol]       13.391 [kJ/mol]       0.00510041 [Eh]
  Correction H              5.274 [kcal/mol]       22.067 [kJ/mol]       0.00840506 [Eh]
  Total H, Enthalpy at  298.15 [K]                                    -113.32152736 [Eh]

  Gibbs free energy, G = H - T * S
    Electronic G            0.000 [kcal/mol]        0.000 [kJ/mol]       0.00000000 [Eh]
    Translational G        -9.229 [kcal/mol]      -38.615 [kJ/mol]      -0.01470771 [Eh]
    Rotational G           -2.767 [kcal/mol]      -11.575 [kJ/mol]      -0.00440882 [Eh]
    Vibrational G           3.200 [kcal/mol]       13.391 [kJ/mol]       0.00510019 [Eh]
  Correction G             -8.795 [kcal/mol]      -36.800 [kJ/mol]      -0.01401634 [Eh]
  Total G, Free enthalpy at  298.15 [K]                               -113.34394876 [Eh]

    Psi4 stopped on: Tuesday, 20 April 2021 11:03AM
    Psi4 wall time for execution: 0:00:39.00

*** Psi4 exiting successfully. Buy a developer a beer!
