
    -----------------------------------------------------------------------
          Psi4: An Open-Source Ab Initio Electronic Structure Package
                               Psi4 1.3.2 release

                         Git: Rev {HEAD} ecbda83 


    R. M. Parrish, L. A. Burns, D. G. A. Smith, A. C. Simmonett,
    A. E. DePrince III, E. G. Hohenstein, U. Bozkaya, A. Yu. Sokolov,
    R. Di Remigio, R. M. Richard, J. F. Gonthier, A. M. James,
    H. R. McAlexander, A. Kumar, M. Saitow, X. Wang, B. P. Pritchard,
    P. Verma, H. F. Schaefer III, K. Patkowski, R. A. King, E. F. Valeev,
    F. A. Evangelista, J. M. Turney, T. D. Crawford, and C. D. Sherrill,
    J. Chem. Theory Comput. 13(7) pp 3185--3197 (2017).
    (doi: 10.1021/acs.jctc.7b00174)


                         Additional Contributions by
    P. Kraus, H. Kruse, M. H. Lechner, M. C. Schieber, R. A. Shaw,
    A. Alenaizan, R. Galvelis, Z. L. Glick, S. Lehtola, and J. P. Misiewicz

    -----------------------------------------------------------------------


    Psi4 started on: Tuesday, 27 April 2021 04:34PM

    Process ID: 63453
    Host:       bp1-compute00065.data.bp.acrc.priv
    PSIDATADIR: /work/zw18965/.conda/envs/p4env/share/psi4
    Memory:     500.0 MiB
    Threads:    24
    
  ==> Input File <==

--------------------------------------------------------------------------
memory 144 GB

molecule {
0 1
C 0.0000000000 0.0000000000 0.0000000000
S 0.0000000000 0.0000000000 1.5576337400
S 0.0000000000 0.0000000000 -1.5576337400
}

set dynamic_level 1
set basis aug-cc-pV(Q+d)Z
 
optimize("wB97X-V")
frequencies("wB97X-V")
--------------------------------------------------------------------------

  Memory set to 134.110 GiB by Python driver.
gradient() will perform gradient computation by finite difference of analytic energies.

         ----------------------------------------------------------
                                   FINDIF
                     R. A. King and Jonathon Misiewicz
         ---------------------------------------------------------

  Using finite-differences of energies to determine gradients.
    Generating geometries for use with 3-point formula.
    Displacement size will be 5.00e-03.
    Number of atoms is 3.
    Number of symmetric SALCs is 1.
    Translations projected? 1. Rotations projected? 1.
    Number of geometries (including reference) is 3.

  //>>>>>>>>>>>>>>>>>>>>>>>>>>>>>>>>>>>//
  //    Loading displacement 1 of 3    //
  //<<<<<<<<<<<<<<<<<<<<<<<<<<<<<<<<<<<//

*** tstart() called on bp1-compute00065.data.bp.acrc.priv
*** at Tue Apr 27 16:34:53 2021

   => Loading Basis Set <=

    Name: AUG-CC-PV(Q+D)Z
    Role: ORBITAL
    Keyword: BASIS
    atoms 1   entry C          line   319 file /work/zw18965/.conda/envs/p4env/share/psi4/basis/aug-cc-pv_qpd_z.gbs 
    atoms 2-3 entry S          line  1148 file /work/zw18965/.conda/envs/p4env/share/psi4/basis/aug-cc-pv_qpd_z.gbs 


         ---------------------------------------------------------
                                   SCF
               by Justin Turney, Rob Parrish, Andy Simmonett
                          and Daniel G. A. Smith
                              RKS Reference
                       24 Threads, 137329 MiB Core
         ---------------------------------------------------------

  ==> Geometry <==

    Molecular point group: d2h
    Full point group: D_inf_h

    Geometry (in Angstrom), charge = 0, multiplicity = 1:

       Center              X                  Y                   Z               Mass       
    ------------   -----------------  -----------------  -----------------  -----------------
         C            0.000000000000     0.000000000000     0.000000000000    12.000000000000
         S            0.000000000000     0.000000000000     1.557633740000    31.972071174400
         S            0.000000000000     0.000000000000    -1.557633740000    31.972071174400

  Running in d2h symmetry.

  Rotational constants: A = ************  B =      0.10866  C =      0.10866 [cm^-1]
  Rotational constants: A = ************  B =   3257.50987  C =   3257.50987 [MHz]
  Nuclear repulsion =  108.714072548531220

  Charge       = 0
  Multiplicity = 1
  Electrons    = 38
  Nalpha       = 19
  Nbeta        = 19

  ==> Algorithm <==

  SCF Algorithm Type is DF.
  DIIS enabled.
  MOM disabled.
  Fractional occupation disabled.
  Guess Type is SAD.
  Energy threshold   = 1.00e-08
  Density threshold  = 1.00e-08
  Integral threshold = 0.00e+00

  ==> Primary Basis <==

  Basis Set: AUG-CC-PV(Q+D)Z
    Blend: AUG-CC-PV(Q+D)Z
    Number of shells: 66
    Number of basis function: 258
    Number of Cartesian functions: 335
    Spherical Harmonics?: true
    Max angular momentum: 4

  ==> DFT Potential <==

   => Composite Functional: WB97X-V <= 

    wB97X-V Hyb-GGA Exchange-Correlation Functional

    N. Mardirossian and M. Head-Gordon, Phys. Chem. Chem. Phys. 16, 9904 (2014)

    Deriv               =              1
    GGA                 =           TRUE
    Meta                =          FALSE

    Exchange Hybrid     =           TRUE
    MP2 Hybrid          =          FALSE

   => Exchange-Correlation Functionals <=

    1.0000   wB97X-V range-separated functional

   => Exact (HF) Exchange <=

    0.8330            HF,LR [omega = 0.3000]
    0.1670               HF 

   => VV10 Non-Local Parameters <=

    VV10 B              =     6.0000E+00
    VV10 C              =     1.0000E-02

   => Molecular Quadrature <=

    Radial Scheme          =       TREUTLER
    Pruning Scheme         =           FLAT
    Nuclear Scheme         =       TREUTLER

    BS radius alpha        =              1
    Pruning alpha          =              1
    Radial Points          =             75
    Spherical Points       =            302
    Total Points           =          67950
    Total Blocks           =            622
    Max Points             =            256
    Max Functions          =            253

   => Loading Basis Set <=

    Name: (AUG-CC-PV(Q+D)Z AUX)
    Role: JKFIT
    Keyword: DF_BASIS_SCF
    atoms 1   entry C          line   178 file /work/zw18965/.conda/envs/p4env/share/psi4/basis/aug-cc-pvqz-jkfit.gbs 
    atoms 2-3 entry S          line   810 file /work/zw18965/.conda/envs/p4env/share/psi4/basis/aug-cc-pvqz-jkfit.gbs 

  ==> Pre-Iterations <==

   -------------------------------------------------------
    Irrep   Nso     Nmo     Nalpha   Nbeta   Ndocc  Nsocc
   -------------------------------------------------------
     Ag        55      55       0       0       0       0
     B1g       20      20       0       0       0       0
     B2g       29      29       0       0       0       0
     B3g       29      29       0       0       0       0
     Au        15      15       0       0       0       0
     B1u       46      46       0       0       0       0
     B2u       32      32       0       0       0       0
     B3u       32      32       0       0       0       0
   -------------------------------------------------------
    Total     258     258      19      19      19       0
   -------------------------------------------------------

  ==> Integral Setup <==

  ==> DiskDFJK: Density-Fitted J/K Matrices <==

    J tasked:                  Yes
    K tasked:                  Yes
    wK tasked:                 Yes
    Omega:               3.000E-01
    OpenMP threads:             24
    Integrals threads:          24
    Memory [MiB]:           102545
    Algorithm:                Core
    Integral Cache:           NONE
    Schwarz Cutoff:          1E-12
    Fitting Condition:       1E-10

   => Auxiliary Basis Set <=

  Basis Set: (AUG-CC-PV(Q+D)Z AUX)
    Blend: AUG-CC-PVQZ-JKFIT
    Number of shells: 126
    Number of basis function: 510
    Number of Cartesian functions: 692
    Spherical Harmonics?: true
    Max angular momentum: 5

  Cached 100.0% of DFT collocation blocks in 0.441 [GiB].

  Minimum eigenvalue in the overlap matrix is 2.0061223767E-05.
  Using Symmetric Orthogonalization.

  SCF Guess: Superposition of Atomic Densities via on-the-fly atomic UHF.

  ==> Iterations <==

                           Total Energy        Delta E     RMS |[F,P]|

   @DF-RKS iter SAD:  -833.99237585598098   -8.33992e+02   0.00000e+00 
   @DF-RKS iter   1:  -834.37682618543977   -3.84450e-01   3.20096e-03 DIIS
   @DF-RKS iter   2:  -834.39829704722649   -2.14709e-02   1.49005e-03 DIIS
   @DF-RKS iter   3:  -834.40406002421253   -5.76298e-03   6.14126e-04 DIIS
   @DF-RKS iter   4:  -834.40575531679178   -1.69529e-03   1.12915e-04 DIIS
   @DF-RKS iter   5:  -834.40584924616019   -9.39294e-05   2.08159e-05 DIIS
   @DF-RKS iter   6:  -834.40585268353948   -3.43738e-06   7.30456e-06 DIIS
   @DF-RKS iter   7:  -834.40585308674474   -4.03205e-07   5.73201e-07 DIIS
   @DF-RKS iter   8:  -834.40585309101982   -4.27508e-09   8.73486e-08 DIIS
   @DF-RKS iter   9:  -834.40585309109156   -7.17364e-11   1.02807e-08 DIIS
   @DF-RKS iter  10:  -834.40585309109258   -1.02318e-12   1.12462e-09 DIIS
  Energy and wave function converged.


  ==> Post-Iterations <==

    Orbital Energies [Eh]
    ---------------------

    Doubly Occupied:                                                      

       1Ag   -88.922540     1B1u  -88.922538     2Ag   -10.412528  
       2B1u   -8.079415     3Ag    -8.079395     3B1u   -6.035035  
       4Ag    -6.035034     1B2g   -6.031033     1B3g   -6.031033  
       1B3u   -6.031032     1B2u   -6.031032     5Ag    -0.995270  
       4B1u   -0.898499     6Ag    -0.623269     5B1u   -0.537716  
       2B2u   -0.503848     2B3u   -0.503848     2B3g   -0.365610  
       2B2g   -0.365610  

    Virtual:                                                              

       3B2u   -0.002834     3B3u   -0.002834     7Ag     0.047944  
       6B1u    0.049395     8Ag     0.071384     4B2u    0.080239  
       4B3u    0.080239     3B2g    0.090111     3B3g    0.090111  
       7B1u    0.116645     5B3u    0.124188     5B2u    0.124188  
       9Ag     0.131493     1B1g    0.164236    10Ag     0.164237  
       8B1u    0.166921    11Ag     0.202207     9B1u    0.207526  
       1Au     0.221103    10B1u    0.221106    12Ag     0.229451  
       4B2g    0.232658     4B3g    0.232658     6B2u    0.288925  
       6B3u    0.288925    13Ag     0.326171    14Ag     0.326477  
       2B1g    0.326495     5B2g    0.351578     5B3g    0.351578  
      11B1u    0.356149     7B3u    0.364117     7B2u    0.364117  
      12B1u    0.435685     6B2g    0.443761     6B3g    0.443761  
      15Ag     0.449096    16Ag     0.449831     3B1g    0.449832  
       2Au     0.473240    13B1u    0.473243    17Ag     0.500050  
       8B2u    0.500602     8B3u    0.500602     9B2u    0.518157  
       9B3u    0.518157    14B1u    0.547907     7B3g    0.562245  
       7B2g    0.562245    10B2u    0.578410    10B3u    0.578410  
       3Au     0.598400    15B1u    0.598402     8B2g    0.655030  
       8B3g    0.655030    18Ag     0.663748     4B1g    0.663773  
      16B1u    0.685364    19Ag     0.701276     9B2g    0.732365  
       9B3g    0.732365    20Ag     0.806883    11B2u    0.844315  
      11B3u    0.844315    12B2u    0.865399    12B3u    0.865399  
      21Ag     0.906451    17B1u    0.917916    22Ag     0.947739  
       5B1g    0.947757    18B1u    1.013946    19B1u    1.055924  
      13B2u    1.060278    13B3u    1.060278     4Au     1.106899  
      20B1u    1.106920    23Ag     1.159168    10B2g    1.173765  
      10B3g    1.173765    24Ag     1.187698     6B1g    1.187700  
       5Au     1.203568    21B1u    1.203570    11B2g    1.275708  
      11B3g    1.275708    14B3u    1.357996    14B2u    1.357996  
       7B1g    1.379619    25Ag     1.379619    15B3u    1.393859  
      15B2u    1.393859    26Ag     1.394127    22B1u    1.394350  
      12B2g    1.403904    12B3g    1.403904     6Au     1.405698  
      23B1u    1.405698    13B2g    1.458712    13B3g    1.458712  
      16B2u    1.529679    16B3u    1.529679    27Ag     1.540065  
       8B1g    1.540077    14B2g    1.543992    14B3g    1.543992  
      17B2u    1.571609    17B3u    1.571609    28Ag     1.596773  
       7Au     1.614815    24B1u    1.614817    25B1u    1.648774  
      18B3u    1.717428    18B2u    1.717428    15B2g    1.795786  
      15B3g    1.795786    29Ag     1.828377    26B1u    1.899205  
      30Ag     1.899881     9B1g    1.899919     8Au     1.945424  
      27B1u    1.945457    16B2g    2.031227    16B3g    2.031227  
      31Ag     2.043059    19B2u    2.043605    19B3u    2.043605  
      28B1u    2.053487    32Ag     2.121110    10B1g    2.121113  
      33Ag     2.172210    11B1g    2.172215    20B3u    2.221913  
      20B2u    2.221913    21B2u    2.339285    21B3u    2.339285  
      34Ag     2.413418    29B1u    2.560757    17B3g    2.603732  
      17B2g    2.603732    18B2g    2.665472    18B3g    2.665472  
      30B1u    2.714026     9Au     2.753903    31B1u    2.753924  
      12B1g    2.784145    35Ag     2.784159    36Ag     2.855432  
      10Au     2.967127    32B1u    2.967140    22B2u    3.003160  
      22B3u    3.003160    37Ag     3.012511    13B1g    3.173640  
      38Ag     3.173660    19B2g    3.227350    19B3g    3.227350  
      39Ag     3.303470    20B2g    3.315591    20B3g    3.315591  
      23B2u    3.375866    23B3u    3.375866    24B2u    3.457797  
      24B3u    3.457797    21B3g    3.466455    21B2g    3.466455  
      33B1u    3.579016    14B1g    3.633365    40Ag     3.633380  
      11Au     3.640666    34B1u    3.640681    41Ag     3.674221  
      15B1g    3.674226    22B2g    3.732405    22B3g    3.732405  
      25B2u    3.792729    25B3u    3.792729    26B3u    3.796076  
      26B2u    3.796076    12Au     3.824325    35B1u    3.824350  
      36B1u    3.876028    42Ag     3.936557    37B1u    4.089931  
      13Au     4.089938    23B2g    4.133161    23B3g    4.133161  
      38B1u    4.169062    16B1g    4.359939    43Ag     4.359949  
      24B2g    4.430211    24B3g    4.430211    39B1u    4.438346  
      44Ag     4.444892    27B2u    4.757611    27B3u    4.757611  
      45Ag     4.927741    46Ag     5.724021    17B1g    5.724067  
      28B2u    5.770418    28B3u    5.770418    25B3g    5.987161  
      25B2g    5.987161    26B2g    6.069824    26B3g    6.069824  
      29B2u    6.181060    29B3u    6.181060    30B3u    6.237272  
      30B2u    6.237272    47Ag     6.267183    18B1g    6.267192  
      40B1u    6.390861    19B1g    6.426424    48Ag     6.426427  
      49Ag     6.448200    14Au     6.530557    41B1u    6.530579  
      27B2g    6.587448    27B3g    6.587448    50Ag     6.846524  
      31B2u    7.123498    31B3u    7.123498    28B2g    7.696226  
      28B3g    7.696226    42B1u    8.299275    51Ag     8.743946  
      43B1u    8.832753    44B1u    8.847663    15Au     8.847696  
      52Ag     8.892464    20B1g    8.892498    29B2g    9.179279  
      29B3g    9.179279    32B2u    9.280404    32B3u    9.280404  
      45B1u    9.501101    53Ag    10.337303    46B1u   20.032324  
      54Ag    21.323141    55Ag    23.028451  

    Final Occupation by Irrep:
             Ag   B1g   B2g   B3g    Au   B1u   B2u   B3u 
    DOCC [     6,    0,    2,    2,    0,    5,    2,    2 ]

  @DF-RKS Final Energy:  -834.40585309109258

   => Energetics <=

    Nuclear Repulsion Energy =            108.7140725485312203
    One-Electron Energy =               -1366.5055540514599670
    Two-Electron Energy =                 465.7178904150778749
    DFT Exchange-Correlation Energy =     -42.4893357657371027
    Empirical Dispersion Energy =           0.0000000000000000
    VV10 Nonlocal Energy =                  0.1570737624953676
    Total Energy =                       -834.4058530910926947

Computation Completed


Properties will be evaluated at   0.000000,   0.000000,   0.000000 [a0]

Properties computed using the SCF density matrix

  Nuclear Dipole Moment: [e a0]
     X:     0.0000      Y:     0.0000      Z:     0.0000

  Electronic Dipole Moment: [e a0]
     X:     0.0000      Y:     0.0000      Z:     0.0000

  Dipole Moment: [e a0]
     X:     0.0000      Y:     0.0000      Z:     0.0000     Total:     0.0000

  Dipole Moment: [D]
     X:     0.0000      Y:     0.0000      Z:     0.0000     Total:     0.0000


*** tstop() called on bp1-compute00065.data.bp.acrc.priv at Tue Apr 27 16:35:00 2021
Module time:
	user time   =     140.01 seconds =       2.33 minutes
	system time =      11.25 seconds =       0.19 minutes
	total time  =          7 seconds =       0.12 minutes
Total time:
	user time   =     140.01 seconds =       2.33 minutes
	system time =      11.25 seconds =       0.19 minutes
	total time  =          7 seconds =       0.12 minutes

  //>>>>>>>>>>>>>>>>>>>>>>>>>>>>>>>>>>>//
  //    Loading displacement 2 of 3    //
  //<<<<<<<<<<<<<<<<<<<<<<<<<<<<<<<<<<<//

*** tstart() called on bp1-compute00065.data.bp.acrc.priv
*** at Tue Apr 27 16:35:00 2021

   => Loading Basis Set <=

    Name: AUG-CC-PV(Q+D)Z
    Role: ORBITAL
    Keyword: BASIS
    atoms 1   entry C          line   319 file /work/zw18965/.conda/envs/p4env/share/psi4/basis/aug-cc-pv_qpd_z.gbs 
    atoms 2-3 entry S          line  1148 file /work/zw18965/.conda/envs/p4env/share/psi4/basis/aug-cc-pv_qpd_z.gbs 


         ---------------------------------------------------------
                                   SCF
               by Justin Turney, Rob Parrish, Andy Simmonett
                          and Daniel G. A. Smith
                              RKS Reference
                       24 Threads, 137329 MiB Core
         ---------------------------------------------------------

  ==> Geometry <==

    Molecular point group: d2h
    Full point group: D_inf_h

    Geometry (in Angstrom), charge = 0, multiplicity = 1:

       Center              X                  Y                   Z               Mass       
    ------------   -----------------  -----------------  -----------------  -----------------
         C            0.000000000000     0.000000000000     0.000000000000    12.000000000000
         S            0.000000000000     0.000000000000     1.557302859820    31.972071174400
         S            0.000000000000     0.000000000000    -1.557302859820    31.972071174400

  Running in d2h symmetry.

  Rotational constants: A = ************  B =      0.10871  C =      0.10871 [cm^-1]
  Rotational constants: A = ************  B =   3258.89427  C =   3258.89427 [MHz]
  Nuclear repulsion =  108.737171030434496

  Charge       = 0
  Multiplicity = 1
  Electrons    = 38
  Nalpha       = 19
  Nbeta        = 19

  ==> Algorithm <==

  SCF Algorithm Type is DF.
  DIIS enabled.
  MOM disabled.
  Fractional occupation disabled.
  Guess Type is SAD.
  Energy threshold   = 1.00e-08
  Density threshold  = 1.00e-08
  Integral threshold = 0.00e+00

  ==> Primary Basis <==

  Basis Set: AUG-CC-PV(Q+D)Z
    Blend: AUG-CC-PV(Q+D)Z
    Number of shells: 66
    Number of basis function: 258
    Number of Cartesian functions: 335
    Spherical Harmonics?: true
    Max angular momentum: 4

  ==> DFT Potential <==

   => Composite Functional: WB97X-V <= 

    wB97X-V Hyb-GGA Exchange-Correlation Functional

    N. Mardirossian and M. Head-Gordon, Phys. Chem. Chem. Phys. 16, 9904 (2014)

    Deriv               =              1
    GGA                 =           TRUE
    Meta                =          FALSE

    Exchange Hybrid     =           TRUE
    MP2 Hybrid          =          FALSE

   => Exchange-Correlation Functionals <=

    1.0000   wB97X-V range-separated functional

   => Exact (HF) Exchange <=

    0.8330            HF,LR [omega = 0.3000]
    0.1670               HF 

   => VV10 Non-Local Parameters <=

    VV10 B              =     6.0000E+00
    VV10 C              =     1.0000E-02

   => Molecular Quadrature <=

    Radial Scheme          =       TREUTLER
    Pruning Scheme         =           FLAT
    Nuclear Scheme         =       TREUTLER

    BS radius alpha        =              1
    Pruning alpha          =              1
    Radial Points          =             75
    Spherical Points       =            302
    Total Points           =          67950
    Total Blocks           =            622
    Max Points             =            256
    Max Functions          =            253

   => Loading Basis Set <=

    Name: (AUG-CC-PV(Q+D)Z AUX)
    Role: JKFIT
    Keyword: DF_BASIS_SCF
    atoms 1   entry C          line   178 file /work/zw18965/.conda/envs/p4env/share/psi4/basis/aug-cc-pvqz-jkfit.gbs 
    atoms 2-3 entry S          line   810 file /work/zw18965/.conda/envs/p4env/share/psi4/basis/aug-cc-pvqz-jkfit.gbs 

  ==> Pre-Iterations <==

   -------------------------------------------------------
    Irrep   Nso     Nmo     Nalpha   Nbeta   Ndocc  Nsocc
   -------------------------------------------------------
     Ag        55      55       0       0       0       0
     B1g       20      20       0       0       0       0
     B2g       29      29       0       0       0       0
     B3g       29      29       0       0       0       0
     Au        15      15       0       0       0       0
     B1u       46      46       0       0       0       0
     B2u       32      32       0       0       0       0
     B3u       32      32       0       0       0       0
   -------------------------------------------------------
    Total     258     258      19      19      19       0
   -------------------------------------------------------

  ==> Integral Setup <==

  ==> DiskDFJK: Density-Fitted J/K Matrices <==

    J tasked:                  Yes
    K tasked:                  Yes
    wK tasked:                 Yes
    Omega:               3.000E-01
    OpenMP threads:             24
    Integrals threads:          24
    Memory [MiB]:           102545
    Algorithm:                Core
    Integral Cache:           NONE
    Schwarz Cutoff:          1E-12
    Fitting Condition:       1E-10

   => Auxiliary Basis Set <=

  Basis Set: (AUG-CC-PV(Q+D)Z AUX)
    Blend: AUG-CC-PVQZ-JKFIT
    Number of shells: 126
    Number of basis function: 510
    Number of Cartesian functions: 692
    Spherical Harmonics?: true
    Max angular momentum: 5

  Cached 100.0% of DFT collocation blocks in 0.440 [GiB].

  Minimum eigenvalue in the overlap matrix is 2.0047407999E-05.
  Using Symmetric Orthogonalization.

  SCF Guess: Superposition of Atomic Densities via on-the-fly atomic UHF.

  ==> Iterations <==

                           Total Energy        Delta E     RMS |[F,P]|

   @DF-RKS iter SAD:  -833.99336935486190   -8.33993e+02   0.00000e+00 
   @DF-RKS iter   1:  -834.37680054950488   -3.83431e-01   3.20275e-03 DIIS
   @DF-RKS iter   2:  -834.39826930726974   -2.14688e-02   1.49325e-03 DIIS
   @DF-RKS iter   3:  -834.40406454887989   -5.79524e-03   6.16197e-04 DIIS
   @DF-RKS iter   4:  -834.40577056850896   -1.70602e-03   1.12610e-04 DIIS
   @DF-RKS iter   5:  -834.40586419241163   -9.36239e-05   2.08150e-05 DIIS
   @DF-RKS iter   6:  -834.40586762622581   -3.43381e-06   7.30131e-06 DIIS
   @DF-RKS iter   7:  -834.40586802905955   -4.02834e-07   5.73263e-07 DIIS
   @DF-RKS iter   8:  -834.40586803333713   -4.27758e-09   8.73520e-08 DIIS
   @DF-RKS iter   9:  -834.40586803340796   -7.08269e-11   1.02749e-08 DIIS
   @DF-RKS iter  10:  -834.40586803340932   -1.36424e-12   1.12370e-09 DIIS
  Energy and wave function converged.


  ==> Post-Iterations <==

    Orbital Energies [Eh]
    ---------------------

    Doubly Occupied:                                                      

       1Ag   -88.922483     1B1u  -88.922480     2Ag   -10.412414  
       2B1u   -8.079376     3Ag    -8.079355     3B1u   -6.034992  
       4Ag    -6.034992     1B2g   -6.030993     1B3g   -6.030993  
       1B3u   -6.030992     1B2u   -6.030992     5Ag    -0.995359  
       4B1u   -0.898554     6Ag    -0.623227     5B1u   -0.537729  
       2B2u   -0.503917     2B3u   -0.503917     2B2g   -0.365603  
       2B3g   -0.365603  

    Virtual:                                                              

       3B2u   -0.002774     3B3u   -0.002774     7Ag     0.047950  
       6B1u    0.049397     8Ag     0.071386     4B2u    0.080248  
       4B3u    0.080248     3B2g    0.090107     3B3g    0.090107  
       7B1u    0.116646     5B2u    0.124185     5B3u    0.124185  
       9Ag     0.131588     1B1g    0.164234    10Ag     0.164234  
       8B1u    0.166925    11Ag     0.202225     9B1u    0.207542  
       1Au     0.221116    10B1u    0.221119    12Ag     0.229500  
       4B3g    0.232666     4B2g    0.232666     6B2u    0.288932  
       6B3u    0.288932    13Ag     0.326178    14Ag     0.326473  
       2B1g    0.326491     5B3g    0.351590     5B2g    0.351590  
      11B1u    0.356176     7B2u    0.364112     7B3u    0.364112  
      12B1u    0.435663     6B3g    0.443785     6B2g    0.443785  
      15Ag     0.449113    16Ag     0.449831     3B1g    0.449833  
       2Au     0.473249    13B1u    0.473252    17Ag     0.500067  
       8B3u    0.500589     8B2u    0.500589     9B2u    0.518207  
       9B3u    0.518207    14B1u    0.547973     7B2g    0.562265  
       7B3g    0.562265    10B2u    0.578472    10B3u    0.578472  
       3Au     0.598423    15B1u    0.598426     8B3g    0.655042  
       8B2g    0.655042    18Ag     0.663738     4B1g    0.663763  
      16B1u    0.685390    19Ag     0.701308     9B3g    0.732398  
       9B2g    0.732398    20Ag     0.806958    11B2u    0.844373  
      11B3u    0.844373    12B3u    0.865450    12B2u    0.865450  
      21Ag     0.906514    17B1u    0.917932    22Ag     0.947858  
       5B1g    0.947876    18B1u    1.014005    19B1u    1.056193  
      13B2u    1.060309    13B3u    1.060309     4Au     1.106972  
      20B1u    1.106994    23Ag     1.159164    10B3g    1.173740  
      10B2g    1.173740    24Ag     1.187702     6B1g    1.187704  
       5Au     1.203562    21B1u    1.203564    11B3g    1.275868  
      11B2g    1.275868    14B3u    1.357956    14B2u    1.357956  
       7B1g    1.379603    25Ag     1.379604    15B3u    1.393851  
      15B2u    1.393851    26Ag     1.394093    22B1u    1.394629  
      12B2g    1.403926    12B3g    1.403926     6Au     1.405712  
      23B1u    1.405713    13B2g    1.458766    13B3g    1.458766  
      16B2u    1.529787    16B3u    1.529787    27Ag     1.540052  
       8B1g    1.540064    14B3g    1.544070    14B2g    1.544070  
      17B2u    1.571661    17B3u    1.571661    28Ag     1.596896  
       7Au     1.614971    24B1u    1.614973    25B1u    1.648881  
      18B2u    1.717563    18B3u    1.717563    15B3g    1.796015  
      15B2g    1.796015    29Ag     1.828611    26B1u    1.899180  
      30Ag     1.899940     9B1g    1.899978     8Au     1.945435  
      27B1u    1.945468    16B3g    2.031247    16B2g    2.031247  
      31Ag     2.042913    19B2u    2.043819    19B3u    2.043819  
      28B1u    2.053378    32Ag     2.121194    10B1g    2.121198  
      33Ag     2.172437    11B1g    2.172442    20B3u    2.222008  
      20B2u    2.222008    21B2u    2.339433    21B3u    2.339433  
      34Ag     2.413701    29B1u    2.561195    17B2g    2.603966  
      17B3g    2.603966    18B3g    2.665539    18B2g    2.665539  
      30B1u    2.714160     9Au     2.754149    31B1u    2.754170  
      12B1g    2.784181    35Ag     2.784195    36Ag     2.855543  
      10Au     2.967334    32B1u    2.967348    22B2u    3.003378  
      22B3u    3.003378    37Ag     3.013035    13B1g    3.173617  
      38Ag     3.173637    19B3g    3.227404    19B2g    3.227404  
      39Ag     3.303486    20B3g    3.316083    20B2g    3.316083  
      23B2u    3.376044    23B3u    3.376044    24B3u    3.457806  
      24B2u    3.457806    21B2g    3.466448    21B3g    3.466448  
      33B1u    3.579481    14B1g    3.633352    40Ag     3.633368  
      11Au     3.640677    34B1u    3.640692    41Ag     3.674488  
      15B1g    3.674493    22B2g    3.732628    22B3g    3.732628  
      25B2u    3.793043    25B3u    3.793043    26B3u    3.796181  
      26B2u    3.796181    12Au     3.824459    35B1u    3.824484  
      36B1u    3.876127    42Ag     3.937129    37B1u    4.090298  
      13Au     4.090304    23B2g    4.133070    23B3g    4.133070  
      38B1u    4.168990    16B1g    4.360095    43Ag     4.360105  
      24B3g    4.430964    24B2g    4.430964    39B1u    4.439255  
      44Ag     4.445644    27B2u    4.757758    27B3u    4.757758  
      45Ag     4.926825    46Ag     5.724068    17B1g    5.724114  
      28B2u    5.771272    28B3u    5.771272    25B2g    5.987341  
      25B3g    5.987341    26B3g    6.070192    26B2g    6.070192  
      29B2u    6.181293    29B3u    6.181293    30B3u    6.237333  
      30B2u    6.237333    47Ag     6.267624    18B1g    6.267634  
      40B1u    6.391230    19B1g    6.426726    48Ag     6.426729  
      49Ag     6.448299    14Au     6.530828    41B1u    6.530850  
      27B3g    6.587594    27B2g    6.587594    50Ag     6.848377  
      31B2u    7.123638    31B3u    7.123638    28B3g    7.697435  
      28B2g    7.697435    42B1u    8.300594    51Ag     8.743740  
      43B1u    8.833448    44B1u    8.847706    15Au     8.847739  
      52Ag     8.892557    20B1g    8.892591    29B3g    9.180052  
      29B2g    9.180052    32B2u    9.280562    32B3u    9.280562  
      45B1u    9.501707    53Ag    10.339014    46B1u   20.034788  
      54Ag    21.324320    55Ag    23.031795  

    Final Occupation by Irrep:
             Ag   B1g   B2g   B3g    Au   B1u   B2u   B3u 
    DOCC [     6,    0,    2,    2,    0,    5,    2,    2 ]

  @DF-RKS Final Energy:  -834.40586803340932

   => Energetics <=

    Nuclear Repulsion Energy =            108.7371710304344958
    One-Electron Energy =               -1366.5521960674916500
    Two-Electron Energy =                 465.7417581091315810
    DFT Exchange-Correlation Energy =     -42.4896742445481976
    Empirical Dispersion Energy =           0.0000000000000000
    VV10 Nonlocal Energy =                  0.1570731390645496
    Total Energy =                       -834.4058680334093197

Computation Completed


Properties will be evaluated at   0.000000,   0.000000,   0.000000 [a0]

Properties computed using the SCF density matrix

  Nuclear Dipole Moment: [e a0]
     X:     0.0000      Y:     0.0000      Z:     0.0000

  Electronic Dipole Moment: [e a0]
     X:     0.0000      Y:     0.0000      Z:     0.0000

  Dipole Moment: [e a0]
     X:     0.0000      Y:     0.0000      Z:     0.0000     Total:     0.0000

  Dipole Moment: [D]
     X:     0.0000      Y:     0.0000      Z:     0.0000     Total:     0.0000


*** tstop() called on bp1-compute00065.data.bp.acrc.priv at Tue Apr 27 16:35:07 2021
Module time:
	user time   =     143.82 seconds =       2.40 minutes
	system time =       8.96 seconds =       0.15 minutes
	total time  =          7 seconds =       0.12 minutes
Total time:
	user time   =     283.98 seconds =       4.73 minutes
	system time =      20.22 seconds =       0.34 minutes
	total time  =         14 seconds =       0.23 minutes

  //>>>>>>>>>>>>>>>>>>>>>>>>>>>>>>>>>>>//
  //    Loading displacement 3 of 3    //
  //<<<<<<<<<<<<<<<<<<<<<<<<<<<<<<<<<<<//

*** tstart() called on bp1-compute00065.data.bp.acrc.priv
*** at Tue Apr 27 16:35:07 2021

   => Loading Basis Set <=

    Name: AUG-CC-PV(Q+D)Z
    Role: ORBITAL
    Keyword: BASIS
    atoms 1   entry C          line   319 file /work/zw18965/.conda/envs/p4env/share/psi4/basis/aug-cc-pv_qpd_z.gbs 
    atoms 2-3 entry S          line  1148 file /work/zw18965/.conda/envs/p4env/share/psi4/basis/aug-cc-pv_qpd_z.gbs 


         ---------------------------------------------------------
                                   SCF
               by Justin Turney, Rob Parrish, Andy Simmonett
                          and Daniel G. A. Smith
                              RKS Reference
                       24 Threads, 137329 MiB Core
         ---------------------------------------------------------

  ==> Geometry <==

    Molecular point group: d2h
    Full point group: D_inf_h

    Geometry (in Angstrom), charge = 0, multiplicity = 1:

       Center              X                  Y                   Z               Mass       
    ------------   -----------------  -----------------  -----------------  -----------------
         C            0.000000000000     0.000000000000     0.000000000000    12.000000000000
         S            0.000000000000     0.000000000000     1.557964620180    31.972071174400
         S            0.000000000000     0.000000000000    -1.557964620180    31.972071174400

  Running in d2h symmetry.

  Rotational constants: A = ************  B =      0.10861  C =      0.10861 [cm^-1]
  Rotational constants: A = ************  B =   3256.12636  C =   3256.12636 [MHz]
  Nuclear repulsion =  108.690983877928886

  Charge       = 0
  Multiplicity = 1
  Electrons    = 38
  Nalpha       = 19
  Nbeta        = 19

  ==> Algorithm <==

  SCF Algorithm Type is DF.
  DIIS enabled.
  MOM disabled.
  Fractional occupation disabled.
  Guess Type is SAD.
  Energy threshold   = 1.00e-08
  Density threshold  = 1.00e-08
  Integral threshold = 0.00e+00

  ==> Primary Basis <==

  Basis Set: AUG-CC-PV(Q+D)Z
    Blend: AUG-CC-PV(Q+D)Z
    Number of shells: 66
    Number of basis function: 258
    Number of Cartesian functions: 335
    Spherical Harmonics?: true
    Max angular momentum: 4

  ==> DFT Potential <==

   => Composite Functional: WB97X-V <= 

    wB97X-V Hyb-GGA Exchange-Correlation Functional

    N. Mardirossian and M. Head-Gordon, Phys. Chem. Chem. Phys. 16, 9904 (2014)

    Deriv               =              1
    GGA                 =           TRUE
    Meta                =          FALSE

    Exchange Hybrid     =           TRUE
    MP2 Hybrid          =          FALSE

   => Exchange-Correlation Functionals <=

    1.0000   wB97X-V range-separated functional

   => Exact (HF) Exchange <=

    0.8330            HF,LR [omega = 0.3000]
    0.1670               HF 

   => VV10 Non-Local Parameters <=

    VV10 B              =     6.0000E+00
    VV10 C              =     1.0000E-02

   => Molecular Quadrature <=

    Radial Scheme          =       TREUTLER
    Pruning Scheme         =           FLAT
    Nuclear Scheme         =       TREUTLER

    BS radius alpha        =              1
    Pruning alpha          =              1
    Radial Points          =             75
    Spherical Points       =            302
    Total Points           =          67950
    Total Blocks           =            622
    Max Points             =            256
    Max Functions          =            253

   => Loading Basis Set <=

    Name: (AUG-CC-PV(Q+D)Z AUX)
    Role: JKFIT
    Keyword: DF_BASIS_SCF
    atoms 1   entry C          line   178 file /work/zw18965/.conda/envs/p4env/share/psi4/basis/aug-cc-pvqz-jkfit.gbs 
    atoms 2-3 entry S          line   810 file /work/zw18965/.conda/envs/p4env/share/psi4/basis/aug-cc-pvqz-jkfit.gbs 

  ==> Pre-Iterations <==

   -------------------------------------------------------
    Irrep   Nso     Nmo     Nalpha   Nbeta   Ndocc  Nsocc
   -------------------------------------------------------
     Ag        55      55       0       0       0       0
     B1g       20      20       0       0       0       0
     B2g       29      29       0       0       0       0
     B3g       29      29       0       0       0       0
     Au        15      15       0       0       0       0
     B1u       46      46       0       0       0       0
     B2u       32      32       0       0       0       0
     B3u       32      32       0       0       0       0
   -------------------------------------------------------
    Total     258     258      19      19      19       0
   -------------------------------------------------------

  ==> Integral Setup <==

  ==> DiskDFJK: Density-Fitted J/K Matrices <==

    J tasked:                  Yes
    K tasked:                  Yes
    wK tasked:                 Yes
    Omega:               3.000E-01
    OpenMP threads:             24
    Integrals threads:          24
    Memory [MiB]:           102545
    Algorithm:                Core
    Integral Cache:           NONE
    Schwarz Cutoff:          1E-12
    Fitting Condition:       1E-10

   => Auxiliary Basis Set <=

  Basis Set: (AUG-CC-PV(Q+D)Z AUX)
    Blend: AUG-CC-PVQZ-JKFIT
    Number of shells: 126
    Number of basis function: 510
    Number of Cartesian functions: 692
    Spherical Harmonics?: true
    Max angular momentum: 5

  Cached 100.0% of DFT collocation blocks in 0.440 [GiB].

  Minimum eigenvalue in the overlap matrix is 2.0075059364E-05.
  Using Symmetric Orthogonalization.

  SCF Guess: Superposition of Atomic Densities via on-the-fly atomic UHF.

  ==> Iterations <==

                           Total Energy        Delta E     RMS |[F,P]|

   @DF-RKS iter SAD:  -833.99138093122997   -8.33991e+02   0.00000e+00 
   @DF-RKS iter   1:  -834.37685136249729   -3.85470e-01   3.19917e-03 DIIS
   @DF-RKS iter   2:  -834.39832421858591   -2.14729e-02   1.48685e-03 DIIS
   @DF-RKS iter   3:  -834.40405512356801   -5.73090e-03   6.12043e-04 DIIS
   @DF-RKS iter   4:  -834.40573965150759   -1.68453e-03   1.13222e-04 DIIS
   @DF-RKS iter   5:  -834.40583388907817   -9.42376e-05   2.08168e-05 DIIS
   @DF-RKS iter   6:  -834.40583733002859   -3.44095e-06   7.30781e-06 DIIS
   @DF-RKS iter   7:  -834.40583773360504   -4.03576e-07   5.73137e-07 DIIS
   @DF-RKS iter   8:  -834.40583773787944   -4.27440e-09   8.73442e-08 DIIS
   @DF-RKS iter   9:  -834.40583773795038   -7.09406e-11   1.02867e-08 DIIS
   @DF-RKS iter  10:  -834.40583773795174   -1.36424e-12   1.12558e-09 DIIS
  Energy and wave function converged.


  ==> Post-Iterations <==

    Orbital Energies [Eh]
    ---------------------

    Doubly Occupied:                                                      

       1Ag   -88.922597     1B1u  -88.922595     2Ag   -10.412642  
       2B1u   -8.079455     3Ag    -8.079434     3B1u   -6.035077  
       4Ag    -6.035077     1B3g   -6.031073     1B2g   -6.031073  
       1B2u   -6.031071     1B3u   -6.031071     5Ag    -0.995181  
       4B1u   -0.898443     6Ag    -0.623312     5B1u   -0.537702  
       2B2u   -0.503779     2B3u   -0.503779     2B3g   -0.365618  
       2B2g   -0.365618  

    Virtual:                                                              

       3B3u   -0.002894     3B2u   -0.002894     7Ag     0.047938  
       6B1u    0.049393     8Ag     0.071383     4B3u    0.080231  
       4B2u    0.080231     3B2g    0.090116     3B3g    0.090116  
       7B1u    0.116644     5B3u    0.124192     5B2u    0.124192  
       9Ag     0.131397     1B1g    0.164239    10Ag     0.164239  
       8B1u    0.166918    11Ag     0.202188     9B1u    0.207510  
       1Au     0.221090    10B1u    0.221093    12Ag     0.229403  
       4B2g    0.232650     4B3g    0.232650     6B3u    0.288919  
       6B2u    0.288919    13Ag     0.326163    14Ag     0.326482  
       2B1g    0.326499     5B2g    0.351566     5B3g    0.351566  
      11B1u    0.356122     7B2u    0.364122     7B3u    0.364122  
      12B1u    0.435708     6B2g    0.443738     6B3g    0.443738  
      15Ag     0.449079    16Ag     0.449830     3B1g    0.449832  
       2Au     0.473232    13B1u    0.473235    17Ag     0.500034  
       8B2u    0.500616     8B3u    0.500616     9B3u    0.518106  
       9B2u    0.518106    14B1u    0.547840     7B3g    0.562224  
       7B2g    0.562224    10B2u    0.578348    10B3u    0.578348  
       3Au     0.598376    15B1u    0.598378     8B2g    0.655019  
       8B3g    0.655019    18Ag     0.663758     4B1g    0.663783  
      16B1u    0.685337    19Ag     0.701245     9B2g    0.732333  
       9B3g    0.732333    20Ag     0.806808    11B3u    0.844257  
      11B2u    0.844257    12B2u    0.865348    12B3u    0.865348  
      21Ag     0.906387    17B1u    0.917900    22Ag     0.947620  
       5B1g    0.947638    18B1u    1.013888    19B1u    1.055654  
      13B3u    1.060247    13B2u    1.060247     4Au     1.106826  
      20B1u    1.106847    23Ag     1.159173    10B2g    1.173790  
      10B3g    1.173790    24Ag     1.187695     6B1g    1.187697  
       5Au     1.203575    21B1u    1.203577    11B2g    1.275548  
      11B3g    1.275548    14B2u    1.358035    14B3u    1.358035  
       7B1g    1.379634    25Ag     1.379634    15B2u    1.393866  
      15B3u    1.393866    22B1u    1.394072    26Ag     1.394160  
      12B3g    1.403882    12B2g    1.403882     6Au     1.405684  
      23B1u    1.405684    13B3g    1.458657    13B2g    1.458657  
      16B2u    1.529570    16B3u    1.529570    27Ag     1.540078  
       8B1g    1.540090    14B2g    1.543915    14B3g    1.543915  
      17B3u    1.571556    17B2u    1.571556    28Ag     1.596650  
       7Au     1.614658    24B1u    1.614660    25B1u    1.648667  
      18B2u    1.717292    18B3u    1.717292    15B2g    1.795558  
      15B3g    1.795558    29Ag     1.828142    26B1u    1.899229  
      30Ag     1.899822     9B1g    1.899860     8Au     1.945413  
      27B1u    1.945446    16B2g    2.031206    16B3g    2.031206  
      31Ag     2.043205    19B3u    2.043390    19B2u    2.043390  
      28B1u    2.053596    32Ag     2.121025    10B1g    2.121029  
      33Ag     2.171984    11B1g    2.171989    20B3u    2.221817  
      20B2u    2.221817    21B3u    2.339136    21B2u    2.339136  
      34Ag     2.413135    29B1u    2.560319    17B2g    2.603499  
      17B3g    2.603499    18B2g    2.665405    18B3g    2.665405  
      30B1u    2.713892     9Au     2.753657    31B1u    2.753678  
      12B1g    2.784110    35Ag     2.784124    36Ag     2.855321  
      10Au     2.966919    32B1u    2.966933    22B3u    3.002943  
      22B2u    3.002943    37Ag     3.011988    13B1g    3.173663  
      38Ag     3.173683    19B2g    3.227294    19B3g    3.227294  
      39Ag     3.303454    20B2g    3.315099    20B3g    3.315099  
      23B3u    3.375689    23B2u    3.375689    24B2u    3.457787  
      24B3u    3.457787    21B3g    3.466462    21B2g    3.466462  
      33B1u    3.578551    14B1g    3.633377    40Ag     3.633392  
      11Au     3.640655    34B1u    3.640671    41Ag     3.673954  
      15B1g    3.673959    22B2g    3.732184    22B3g    3.732184  
      25B3u    3.792416    25B2u    3.792416    26B3u    3.795972  
      26B2u    3.795972    12Au     3.824191    35B1u    3.824216  
      36B1u    3.875927    42Ag     3.935986    37B1u    4.089565  
      13Au     4.089572    23B2g    4.133252    23B3g    4.133252  
      38B1u    4.169134    16B1g    4.359782    43Ag     4.359792  
      24B2g    4.429458    24B3g    4.429458    39B1u    4.437444  
      44Ag     4.444139    27B3u    4.757465    27B2u    4.757465  
      45Ag     4.928655    46Ag     5.723974    17B1g    5.724020  
      28B2u    5.769564    28B3u    5.769564    25B2g    5.986981  
      25B3g    5.986981    26B3g    6.069456    26B2g    6.069456  
      29B2u    6.180828    29B3u    6.180828    30B2u    6.237212  
      30B3u    6.237212    47Ag     6.266742    18B1g    6.266751  
      40B1u    6.390492    19B1g    6.426123    48Ag     6.426126  
      49Ag     6.448100    14Au     6.530286    41B1u    6.530308  
      27B2g    6.587301    27B3g    6.587301    50Ag     6.844676  
      31B3u    7.123357    31B2u    7.123357    28B2g    7.695016  
      28B3g    7.695016    42B1u    8.297948    51Ag     8.744152  
      43B1u    8.832060    44B1u    8.847620    15Au     8.847653  
      52Ag     8.892370    20B1g    8.892404    29B2g    9.178507  
      29B3g    9.178507    32B3u    9.280246    32B2u    9.280246  
      45B1u    9.500498    53Ag    10.335588    46B1u   20.029872  
      54Ag    21.321968    55Ag    23.025108  

    Final Occupation by Irrep:
             Ag   B1g   B2g   B3g    Au   B1u   B2u   B3u 
    DOCC [     6,    0,    2,    2,    0,    5,    2,    2 ]

  @DF-RKS Final Energy:  -834.40583773795174

   => Energetics <=

    Nuclear Repulsion Energy =            108.6909838779288862
    One-Electron Energy =               -1366.4589311443519364
    Two-Electron Energy =                 465.6940326550971463
    DFT Exchange-Correlation Energy =     -42.4889975127033068
    Empirical Dispersion Energy =           0.0000000000000000
    VV10 Nonlocal Energy =                  0.1570743860774907
    Total Energy =                       -834.4058377379518561

Computation Completed


Properties will be evaluated at   0.000000,   0.000000,   0.000000 [a0]

Properties computed using the SCF density matrix

  Nuclear Dipole Moment: [e a0]
     X:     0.0000      Y:     0.0000      Z:     0.0000

  Electronic Dipole Moment: [e a0]
     X:     0.0000      Y:     0.0000      Z:     0.0000

  Dipole Moment: [e a0]
     X:     0.0000      Y:     0.0000      Z:     0.0000     Total:     0.0000

  Dipole Moment: [D]
     X:     0.0000      Y:     0.0000      Z:     0.0000     Total:     0.0000


*** tstop() called on bp1-compute00065.data.bp.acrc.priv at Tue Apr 27 16:35:13 2021
Module time:
	user time   =     133.75 seconds =       2.23 minutes
	system time =       8.23 seconds =       0.14 minutes
	total time  =          6 seconds =       0.10 minutes
Total time:
	user time   =     417.89 seconds =       6.96 minutes
	system time =      28.46 seconds =       0.47 minutes
	total time  =         20 seconds =       0.33 minutes

         ----------------------------------------------------------
                                   FINDIF
                     R. A. King and Jonathon Misiewicz
         ---------------------------------------------------------

  Computing gradient from energies.
    Using 3-point formula.
    Energy without displacement: -834.4058530911
    Check energies below for precision!
    Forces are for mass-weighted, symmetry-adapted cartesians (in au).

     Coord      Energy(-1)        Energy(+1)            Force
        0   -834.4058680334   -834.4058377380      0.0030295458


-------------------------------------------------------------
  ## New Matrix (Symmetry 0) ##
  Irrep: 1 Size: 3 x 3

                 1                   2                   3

    1     0.00000000000000     0.00000000000000     0.00000000000000
    2     0.00000000000000     0.00000000000000     0.01211289364810
    3     0.00000000000000     0.00000000000000    -0.01211289364810




			-----------------------------------------
			 OPTKING 2.0: for geometry optimizations 
			  - R.A. King,  Bethel University        
			-----------------------------------------
	At level 1: Red. Int., RFO, no backsteps, dynamic trust

	Internal coordinates to be generated automatically.
	Detected frag 1 with atoms:  1 2 3
	---Fragment 1 Bond Connectivity---
	 1 : 2 3
	 2 : 1
	 3 : 1

	---Fragment 1 Geometry and Gradient---
	 C           0.0000000000        0.0000000000        0.0000000000
	 S           0.0000000000        0.0000000000        2.9435011724
	 S           0.0000000000        0.0000000000       -2.9435011724
	             0.0000000000        0.0000000000        0.0000000000
	             0.0000000000        0.0000000000        0.0121128936
	             0.0000000000        0.0000000000       -0.0121128936

	Previous optimization step data not found.  Starting new optimization.

	---Fragment 1 Intrafragment Coordinates---
	 - Coordinate -           - BOHR/RAD -       - ANG/DEG -
	 R(1,2)           =         2.943501	       1.557634
	 R(1,3)           =         2.943501	       1.557634
	 L(2,1,3)         =         3.141593	     180.000000
	 l(2,1,3)         =         3.141593	     180.000000

	Current energy   :      -834.4058530911

	Generating empirical Hessian (Schlegel '84) for each fragment.
	Taking RFO optimization step.
	Going to follow RFO solution 1.
	Using RFO vector 1.
	Norm of target step-size    0.02835
	Projected energy change by RFO approximation:        -0.0004853110

	Back-transformation to cartesian coordinates...
	Successfully converged to displaced geometry.

	--- Internal Coordinate Step in ANG or DEG, aJ/ANG or AJ/DEG ---
	 ---------------------------------------------------------------------------
	   Coordinate                Previous        Force       Change         New 
	   ----------                --------       ------       ------       ------
	    1 R(1,2)          =      1.557634    -0.099795    -0.010609     1.547024
	    2 R(1,3)          =      1.557634    -0.099795    -0.010609     1.547024
	    3 L(2,1,3)        =    180.000000     0.000000     0.000000   180.000000
	    4 l(2,1,3)        =    180.000000     0.000000     0.000000   180.000000
	 ---------------------------------------------------------------------------
	Successfully symmetrized geometry.

  ==> Convergence Check <==

  Measures of convergence in internal coordinates in au.
  Criteria marked as inactive (o), active & met (*), and active & unmet ( ).
  --------------------------------------------------------------------------------------------- ~
   Step     Total Energy     Delta E     MAX Force     RMS Force      MAX Disp      RMS Disp    ~
  --------------------------------------------------------------------------------------------- ~
    Convergence Criteria    1.00e-06 *    3.00e-04 *             o    1.20e-03 *             o  ~
  --------------------------------------------------------------------------------------------- ~
      1    -834.40585309   -8.34e+02      1.21e-02      8.57e-03 o    2.00e-02      1.42e-02 o  ~
  ---------------------------------------------------------------------------------------------

	Writing optimization data to binary file.
	Structure for next step:
	Cartesian Geometry (in Angstrom)
	    C     0.0000000000   0.0000000000   0.0000000000
	    S     0.0000000000   0.0000000000   1.5470242971
	    S     0.0000000000   0.0000000000  -1.5470242971
			--------------------------
			 OPTKING Finished Execution 
			--------------------------

    Structure for next step:
    Molecular point group: d2h
    Full point group: D_inf_h

    Geometry (in Angstrom), charge = 0, multiplicity = 1:

    C            0.000000000000     0.000000000000     0.000000000000
    S            0.000000000000     0.000000000000     1.547024303146
    S            0.000000000000     0.000000000000    -1.547024303146

gradient() will perform gradient computation by finite difference of analytic energies.

         ----------------------------------------------------------
                                   FINDIF
                     R. A. King and Jonathon Misiewicz
         ---------------------------------------------------------

  Using finite-differences of energies to determine gradients.
    Generating geometries for use with 3-point formula.
    Displacement size will be 5.00e-03.
    Number of atoms is 3.
    Number of symmetric SALCs is 1.
    Translations projected? 1. Rotations projected? 1.
    Number of geometries (including reference) is 3.

  //>>>>>>>>>>>>>>>>>>>>>>>>>>>>>>>>>>>//
  //    Loading displacement 1 of 3    //
  //<<<<<<<<<<<<<<<<<<<<<<<<<<<<<<<<<<<//

*** tstart() called on bp1-compute00065.data.bp.acrc.priv
*** at Tue Apr 27 16:35:13 2021

   => Loading Basis Set <=

    Name: AUG-CC-PV(Q+D)Z
    Role: ORBITAL
    Keyword: BASIS
    atoms 1   entry C          line   319 file /work/zw18965/.conda/envs/p4env/share/psi4/basis/aug-cc-pv_qpd_z.gbs 
    atoms 2-3 entry S          line  1148 file /work/zw18965/.conda/envs/p4env/share/psi4/basis/aug-cc-pv_qpd_z.gbs 


         ---------------------------------------------------------
                                   SCF
               by Justin Turney, Rob Parrish, Andy Simmonett
                          and Daniel G. A. Smith
                              RKS Reference
                       24 Threads, 137329 MiB Core
         ---------------------------------------------------------

  ==> Geometry <==

    Molecular point group: d2h
    Full point group: D_inf_h

    Geometry (in Angstrom), charge = 0, multiplicity = 1:

       Center              X                  Y                   Z               Mass       
    ------------   -----------------  -----------------  -----------------  -----------------
         C            0.000000000000     0.000000000000     0.000000000000    12.000000000000
         S            0.000000000000     0.000000000000     1.547024303146    31.972071174400
         S            0.000000000000     0.000000000000    -1.547024303146    31.972071174400

  Running in d2h symmetry.

  Rotational constants: A = ************  B =      0.11015  C =      0.11015 [cm^-1]
  Rotational constants: A = ************  B =   3302.34285  C =   3302.34285 [MHz]
  Nuclear repulsion =  109.459629735636710

  Charge       = 0
  Multiplicity = 1
  Electrons    = 38
  Nalpha       = 19
  Nbeta        = 19

  ==> Algorithm <==

  SCF Algorithm Type is DF.
  DIIS enabled.
  MOM disabled.
  Fractional occupation disabled.
  Guess Type is READ.
  Energy threshold   = 1.00e-08
  Density threshold  = 1.00e-08
  Integral threshold = 0.00e+00

  ==> Primary Basis <==

  Basis Set: AUG-CC-PV(Q+D)Z
    Blend: AUG-CC-PV(Q+D)Z
    Number of shells: 66
    Number of basis function: 258
    Number of Cartesian functions: 335
    Spherical Harmonics?: true
    Max angular momentum: 4

  ==> DFT Potential <==

   => Composite Functional: WB97X-V <= 

    wB97X-V Hyb-GGA Exchange-Correlation Functional

    N. Mardirossian and M. Head-Gordon, Phys. Chem. Chem. Phys. 16, 9904 (2014)

    Deriv               =              1
    GGA                 =           TRUE
    Meta                =          FALSE

    Exchange Hybrid     =           TRUE
    MP2 Hybrid          =          FALSE

   => Exchange-Correlation Functionals <=

    1.0000   wB97X-V range-separated functional

   => Exact (HF) Exchange <=

    0.8330            HF,LR [omega = 0.3000]
    0.1670               HF 

   => VV10 Non-Local Parameters <=

    VV10 B              =     6.0000E+00
    VV10 C              =     1.0000E-02

   => Molecular Quadrature <=

    Radial Scheme          =       TREUTLER
    Pruning Scheme         =           FLAT
    Nuclear Scheme         =       TREUTLER

    BS radius alpha        =              1
    Pruning alpha          =              1
    Radial Points          =             75
    Spherical Points       =            302
    Total Points           =          67950
    Total Blocks           =            621
    Max Points             =            251
    Max Functions          =            253

   => Loading Basis Set <=

    Name: (AUG-CC-PV(Q+D)Z AUX)
    Role: JKFIT
    Keyword: DF_BASIS_SCF
    atoms 1   entry C          line   178 file /work/zw18965/.conda/envs/p4env/share/psi4/basis/aug-cc-pvqz-jkfit.gbs 
    atoms 2-3 entry S          line   810 file /work/zw18965/.conda/envs/p4env/share/psi4/basis/aug-cc-pvqz-jkfit.gbs 

   => Loading Basis Set <=

    Name: AUG-CC-PV(Q+D)Z
    Role: ORBITAL
    Keyword: BASIS
    atoms 1   entry C          line   319 file /work/zw18965/.conda/envs/p4env/share/psi4/basis/aug-cc-pv_qpd_z.gbs 
    atoms 2-3 entry S          line  1148 file /work/zw18965/.conda/envs/p4env/share/psi4/basis/aug-cc-pv_qpd_z.gbs 

  Reading orbitals from file 180, no projection.

  ==> Pre-Iterations <==

   -------------------------------------------------------
    Irrep   Nso     Nmo     Nalpha   Nbeta   Ndocc  Nsocc
   -------------------------------------------------------
     Ag        55      55       0       0       0       0
     B1g       20      20       0       0       0       0
     B2g       29      29       0       0       0       0
     B3g       29      29       0       0       0       0
     Au        15      15       0       0       0       0
     B1u       46      46       0       0       0       0
     B2u       32      32       0       0       0       0
     B3u       32      32       0       0       0       0
   -------------------------------------------------------
    Total     258     258      19      19      19       0
   -------------------------------------------------------

  ==> Integral Setup <==

  ==> DiskDFJK: Density-Fitted J/K Matrices <==

    J tasked:                  Yes
    K tasked:                  Yes
    wK tasked:                 Yes
    Omega:               3.000E-01
    OpenMP threads:             24
    Integrals threads:          24
    Memory [MiB]:           102545
    Algorithm:                Core
    Integral Cache:           NONE
    Schwarz Cutoff:          1E-12
    Fitting Condition:       1E-10

   => Auxiliary Basis Set <=

  Basis Set: (AUG-CC-PV(Q+D)Z AUX)
    Blend: AUG-CC-PVQZ-JKFIT
    Number of shells: 126
    Number of basis function: 510
    Number of Cartesian functions: 692
    Spherical Harmonics?: true
    Max angular momentum: 5

  Cached 100.0% of DFT collocation blocks in 0.441 [GiB].

  Minimum eigenvalue in the overlap matrix is 1.9627606667E-05.
  Using Symmetric Orthogonalization.

  SCF Guess: Orbitals guess was supplied from a previous computation.

  ==> Iterations <==

                           Total Energy        Delta E     RMS |[F,P]|

   @DF-RKS iter   0:  -834.42209906965400   -8.34422e+02   6.62277e-04 
   @DF-RKS iter   1:  -834.40610275402400    1.59963e-02   3.21611e-05 DIIS
   @DF-RKS iter   2:  -834.40610559300615   -2.83898e-06   2.95432e-05 DIIS
   @DF-RKS iter   3:  -834.40610877147174   -3.17847e-06   6.13256e-06 DIIS
   @DF-RKS iter   4:  -834.40610901249033   -2.41019e-07   2.68226e-06 DIIS
   @DF-RKS iter   5:  -834.40610905497863   -4.24883e-08   3.01791e-07 DIIS
   @DF-RKS iter   6:  -834.40610905638141   -1.40278e-09   7.36551e-08 DIIS
   @DF-RKS iter   7:  -834.40610905643143   -5.00222e-11   2.07313e-08 DIIS
   @DF-RKS iter   8:  -834.40610905643393   -2.50111e-12   1.49250e-09 DIIS
  Energy and wave function converged.


  ==> Post-Iterations <==

    Orbital Energies [Eh]
    ---------------------

    Doubly Occupied:                                                      

       1Ag   -88.920686     1B1u  -88.920683     2Ag   -10.408862  
       2B1u   -8.078138     3Ag    -8.078117     3B1u   -6.033661  
       4Ag    -6.033660     1B3g   -6.029747     1B2g   -6.029747  
       1B2u   -6.029746     1B3u   -6.029746     5Ag    -0.998140  
       4B1u   -0.900301     6Ag    -0.621895     5B1u   -0.538125  
       2B3u   -0.506070     2B2u   -0.506070     2B2g   -0.365356  
       2B3g   -0.365356  

    Virtual:                                                              

       3B2u   -0.000916     3B3u   -0.000916     7Ag     0.048113  
       6B1u    0.049453     8Ag     0.071424     4B3u    0.080515  
       4B2u    0.080515     3B2g    0.089971     3B3g    0.089971  
       7B1u    0.116682     5B3u    0.124078     5B2u    0.124078  
       9Ag     0.134456     1B1g    0.164151    10Ag     0.164152  
       8B1u    0.167030    11Ag     0.202743     9B1u    0.208037  
       1Au     0.221524    10B1u    0.221528    12Ag     0.231151  
       4B2g    0.232920     4B3g    0.232920     6B3u    0.289123  
       6B2u    0.289123    13Ag     0.326337     2B1g    0.326356  
      14Ag     0.326426     5B2g    0.351950     5B3g    0.351950  
      11B1u    0.356996     7B3u    0.363956     7B2u    0.363956  
      12B1u    0.435009     6B2g    0.444513     6B3g    0.444513  
      15Ag     0.449651    16Ag     0.449838     3B1g    0.449840  
       2Au     0.473510    13B1u    0.473513     8B3u    0.500165  
       8B2u    0.500165    17Ag     0.500591     9B3u    0.519774  
       9B2u    0.519774    14B1u    0.550010     7B2g    0.562913  
       7B3g    0.562913    10B3u    0.580395    10B2u    0.580395  
       3Au     0.599167    15B1u    0.599171     8B2g    0.655416  
       8B3g    0.655416    18Ag     0.663435     4B1g    0.663460  
      16B1u    0.686210    19Ag     0.702278     9B3g    0.733399  
       9B2g    0.733399    20Ag     0.809281    11B3u    0.846190  
      11B2u    0.846190    12B3u    0.867018    12B2u    0.867018  
      21Ag     0.908545    17B1u    0.918376    22Ag     0.951553  
       5B1g    0.951571    18B1u    1.015870    13B3u    1.061311  
      13B2u    1.061311    19B1u    1.064693     4Au     1.109260  
      20B1u    1.109281    23Ag     1.159002    10B2g    1.172945  
      10B3g    1.172945    24Ag     1.187804     6B1g    1.187807  
       5Au     1.203372    21B1u    1.203374    11B2g    1.280943  
      11B3g    1.280943    14B3u    1.356619    14B2u    1.356619  
       7B1g    1.379119    25Ag     1.379119    26Ag     1.393192  
      15B3u    1.393610    15B2u    1.393610    22B1u    1.403525  
      12B2g    1.404602    12B3g    1.404602     6Au     1.406167  
      23B1u    1.406167    13B2g    1.460492    13B3g    1.460492  
      16B3u    1.532924    16B2u    1.532924    27Ag     1.539620  
       8B1g    1.539631    14B2g    1.546491    14B3g    1.546491  
      17B3u    1.573546    17B2u    1.573546    28Ag     1.600710  
       7Au     1.619866    24B1u    1.619869    25B1u    1.652294  
      18B3u    1.721759    18B2u    1.721759    15B3g    1.803191  
      15B2g    1.803191    29Ag     1.835852    26B1u    1.898529  
      30Ag     1.901523     9B1g    1.901561     8Au     1.945803  
      27B1u    1.945835    16B2g    2.032066    16B3g    2.032066  
      31Ag     2.038336    28B1u    2.050136    19B2u    2.050502  
      19B3u    2.050502    32Ag     2.123841    10B1g    2.123843  
      33Ag     2.179671    11B1g    2.179675    20B3u    2.225030  
      20B2u    2.225030    21B3u    2.343888    21B2u    2.343888  
      34Ag     2.422144    29B1u    2.574852    17B2g    2.611222  
      17B3g    2.611222    18B2g    2.667568    18B3g    2.667568  
      30B1u    2.718355     9Au     2.761581    31B1u    2.761602  
      12B1g    2.785286    35Ag     2.785301    36Ag     2.859106  
      10Au     2.974042    32B1u    2.974056    22B3u    3.010102  
      22B2u    3.010102    37Ag     3.029729    13B1g    3.172680  
      38Ag     3.172700    19B2g    3.228702    19B3g    3.228702  
      39Ag     3.303896    20B2g    3.331983    20B3g    3.331983  
      23B2u    3.381646    23B3u    3.381646    24B2u    3.458100  
      24B3u    3.458100    21B3g    3.466247    21B2g    3.466247  
      33B1u    3.593210    14B1g    3.632959    40Ag     3.632974  
      11Au     3.641014    34B1u    3.641029    41Ag     3.682910  
      15B1g    3.682915    22B2g    3.739662    22B3g    3.739662  
      25B3u    3.799453    25B2u    3.799453    26B2u    3.802952  
      26B3u    3.802952    12Au     3.828421    35B1u    3.828447  
      36B1u    3.878718    42Ag     3.955331    37B1u    4.102028  
      13Au     4.102036    23B2g    4.130310    23B3g    4.130310  
      38B1u    4.166580    16B1g    4.364673    43Ag     4.364681  
      24B2g    4.454614    24B3g    4.454614    44Ag     4.468987  
      39B1u    4.470322    27B3u    4.761976    27B2u    4.761976  
      45Ag     4.897305    46Ag     5.725546    17B1g    5.725585  
      28B2u    5.797519    28B3u    5.797519    25B2g    5.992956  
      25B3g    5.992956    26B3g    6.081494    26B2g    6.081494  
      29B3u    6.189413    29B2u    6.189413    30B2u    6.239220  
      30B3u    6.239220    47Ag     6.281556    18B1g    6.281569  
      40B1u    6.402752    19B1g    6.436464    48Ag     6.436466  
      49Ag     6.451278    14Au     6.539378    41B1u    6.539400  
      27B2g    6.592257    27B3g    6.592257    50Ag     6.908305  
      31B3u    7.128004    31B2u    7.128004    28B2g    7.734399  
      28B3g    7.734399    42B1u    8.338038    51Ag     8.737201  
      43B1u    8.849069    15Au     8.849105    44B1u    8.855769  
      52Ag     8.895425    20B1g    8.895462    29B3g    9.205469  
      29B2g    9.205469    32B2u    9.285498    32B3u    9.285498  
      45B1u    9.522585    53Ag    10.389729    46B1u   20.117264  
      54Ag    21.363569    55Ag    23.135754  

    Final Occupation by Irrep:
             Ag   B1g   B2g   B3g    Au   B1u   B2u   B3u 
    DOCC [     6,    0,    2,    2,    0,    5,    2,    2 ]

  @DF-RKS Final Energy:  -834.40610905643393

   => Energetics <=

    Nuclear Repulsion Energy =            109.4596297356367103
    One-Electron Energy =               -1368.0106706794551883
    Two-Electron Energy =                 466.4881805300211681
    DFT Exchange-Correlation Energy =     -42.5003024892400703
    Empirical Dispersion Energy =           0.0000000000000000
    VV10 Nonlocal Energy =                  0.1570538466034267
    Total Energy =                       -834.4061090564339338

Computation Completed


Properties will be evaluated at   0.000000,   0.000000,   0.000000 [a0]

Properties computed using the SCF density matrix

  Nuclear Dipole Moment: [e a0]
     X:     0.0000      Y:     0.0000      Z:     0.0000

  Electronic Dipole Moment: [e a0]
     X:     0.0000      Y:     0.0000      Z:     0.0000

  Dipole Moment: [e a0]
     X:     0.0000      Y:     0.0000      Z:     0.0000     Total:     0.0000

  Dipole Moment: [D]
     X:     0.0000      Y:     0.0000      Z:     0.0000     Total:     0.0000


*** tstop() called on bp1-compute00065.data.bp.acrc.priv at Tue Apr 27 16:35:19 2021
Module time:
	user time   =     104.79 seconds =       1.75 minutes
	system time =       6.65 seconds =       0.11 minutes
	total time  =          6 seconds =       0.10 minutes
Total time:
	user time   =     523.09 seconds =       8.72 minutes
	system time =      35.14 seconds =       0.59 minutes
	total time  =         26 seconds =       0.43 minutes

  //>>>>>>>>>>>>>>>>>>>>>>>>>>>>>>>>>>>//
  //    Loading displacement 2 of 3    //
  //<<<<<<<<<<<<<<<<<<<<<<<<<<<<<<<<<<<//

*** tstart() called on bp1-compute00065.data.bp.acrc.priv
*** at Tue Apr 27 16:35:19 2021

   => Loading Basis Set <=

    Name: AUG-CC-PV(Q+D)Z
    Role: ORBITAL
    Keyword: BASIS
    atoms 1   entry C          line   319 file /work/zw18965/.conda/envs/p4env/share/psi4/basis/aug-cc-pv_qpd_z.gbs 
    atoms 2-3 entry S          line  1148 file /work/zw18965/.conda/envs/p4env/share/psi4/basis/aug-cc-pv_qpd_z.gbs 


         ---------------------------------------------------------
                                   SCF
               by Justin Turney, Rob Parrish, Andy Simmonett
                          and Daniel G. A. Smith
                              RKS Reference
                       24 Threads, 137329 MiB Core
         ---------------------------------------------------------

  ==> Geometry <==

    Molecular point group: d2h
    Full point group: D_inf_h

    Geometry (in Angstrom), charge = 0, multiplicity = 1:

       Center              X                  Y                   Z               Mass       
    ------------   -----------------  -----------------  -----------------  -----------------
         C            0.000000000000     0.000000000000     0.000000000000    12.000000000000
         S            0.000000000000     0.000000000000     1.546693422966    31.972071174400
         S            0.000000000000     0.000000000000    -1.546693422966    31.972071174400

  Running in d2h symmetry.

  Rotational constants: A = ************  B =      0.11020  C =      0.11020 [cm^-1]
  Rotational constants: A = ************  B =   3303.75593  C =   3303.75593 [MHz]
  Nuclear repulsion =  109.483046155131447

  Charge       = 0
  Multiplicity = 1
  Electrons    = 38
  Nalpha       = 19
  Nbeta        = 19

  ==> Algorithm <==

  SCF Algorithm Type is DF.
  DIIS enabled.
  MOM disabled.
  Fractional occupation disabled.
  Guess Type is READ.
  Energy threshold   = 1.00e-08
  Density threshold  = 1.00e-08
  Integral threshold = 0.00e+00

  ==> Primary Basis <==

  Basis Set: AUG-CC-PV(Q+D)Z
    Blend: AUG-CC-PV(Q+D)Z
    Number of shells: 66
    Number of basis function: 258
    Number of Cartesian functions: 335
    Spherical Harmonics?: true
    Max angular momentum: 4

  ==> DFT Potential <==

   => Composite Functional: WB97X-V <= 

    wB97X-V Hyb-GGA Exchange-Correlation Functional

    N. Mardirossian and M. Head-Gordon, Phys. Chem. Chem. Phys. 16, 9904 (2014)

    Deriv               =              1
    GGA                 =           TRUE
    Meta                =          FALSE

    Exchange Hybrid     =           TRUE
    MP2 Hybrid          =          FALSE

   => Exchange-Correlation Functionals <=

    1.0000   wB97X-V range-separated functional

   => Exact (HF) Exchange <=

    0.8330            HF,LR [omega = 0.3000]
    0.1670               HF 

   => VV10 Non-Local Parameters <=

    VV10 B              =     6.0000E+00
    VV10 C              =     1.0000E-02

   => Molecular Quadrature <=

    Radial Scheme          =       TREUTLER
    Pruning Scheme         =           FLAT
    Nuclear Scheme         =       TREUTLER

    BS radius alpha        =              1
    Pruning alpha          =              1
    Radial Points          =             75
    Spherical Points       =            302
    Total Points           =          67950
    Total Blocks           =            621
    Max Points             =            251
    Max Functions          =            253

   => Loading Basis Set <=

    Name: (AUG-CC-PV(Q+D)Z AUX)
    Role: JKFIT
    Keyword: DF_BASIS_SCF
    atoms 1   entry C          line   178 file /work/zw18965/.conda/envs/p4env/share/psi4/basis/aug-cc-pvqz-jkfit.gbs 
    atoms 2-3 entry S          line   810 file /work/zw18965/.conda/envs/p4env/share/psi4/basis/aug-cc-pvqz-jkfit.gbs 

   => Loading Basis Set <=

    Name: AUG-CC-PV(Q+D)Z
    Role: ORBITAL
    Keyword: BASIS
    atoms 1   entry C          line   319 file /work/zw18965/.conda/envs/p4env/share/psi4/basis/aug-cc-pv_qpd_z.gbs 
    atoms 2-3 entry S          line  1148 file /work/zw18965/.conda/envs/p4env/share/psi4/basis/aug-cc-pv_qpd_z.gbs 

  Reading orbitals from file 180, no projection.

  ==> Pre-Iterations <==

   -------------------------------------------------------
    Irrep   Nso     Nmo     Nalpha   Nbeta   Ndocc  Nsocc
   -------------------------------------------------------
     Ag        55      55       0       0       0       0
     B1g       20      20       0       0       0       0
     B2g       29      29       0       0       0       0
     B3g       29      29       0       0       0       0
     Au        15      15       0       0       0       0
     B1u       46      46       0       0       0       0
     B2u       32      32       0       0       0       0
     B3u       32      32       0       0       0       0
   -------------------------------------------------------
    Total     258     258      19      19      19       0
   -------------------------------------------------------

  ==> Integral Setup <==

  ==> DiskDFJK: Density-Fitted J/K Matrices <==

    J tasked:                  Yes
    K tasked:                  Yes
    wK tasked:                 Yes
    Omega:               3.000E-01
    OpenMP threads:             24
    Integrals threads:          24
    Memory [MiB]:           102545
    Algorithm:                Core
    Integral Cache:           NONE
    Schwarz Cutoff:          1E-12
    Fitting Condition:       1E-10

   => Auxiliary Basis Set <=

  Basis Set: (AUG-CC-PV(Q+D)Z AUX)
    Blend: AUG-CC-PVQZ-JKFIT
    Number of shells: 126
    Number of basis function: 510
    Number of Cartesian functions: 692
    Spherical Harmonics?: true
    Max angular momentum: 5

  Cached 100.0% of DFT collocation blocks in 0.441 [GiB].

  Minimum eigenvalue in the overlap matrix is 1.9614378574E-05.
  Using Symmetric Orthogonalization.

  SCF Guess: Orbitals guess was supplied from a previous computation.

  ==> Iterations <==

                           Total Energy        Delta E     RMS |[F,P]|

   @DF-RKS iter   0:  -834.40658443981113   -8.34407e+02   2.03963e-05 
   @DF-RKS iter   1:  -834.40610949664608    4.74943e-04   9.80703e-07 DIIS
   @DF-RKS iter   2:  -834.40610949958568   -2.93960e-09   8.60472e-07 DIIS
   @DF-RKS iter   3:  -834.40610950221469   -2.62901e-09   2.00276e-07 DIIS
   @DF-RKS iter   4:  -834.40610950246844   -2.53749e-10   8.47446e-08 DIIS
   @DF-RKS iter   5:  -834.40610950251107   -4.26326e-11   8.98026e-09 DIIS
  Energy and wave function converged.


  ==> Post-Iterations <==

    Orbital Energies [Eh]
    ---------------------

    Doubly Occupied:                                                      

       1Ag   -88.920627     1B1u  -88.920624     2Ag   -10.408747  
       2B1u   -8.078098     3Ag    -8.078077     3B1u   -6.033617  
       4Ag    -6.033617     1B3g   -6.029707     1B2g   -6.029707  
       1B2u   -6.029705     1B3u   -6.029705     5Ag    -0.998230  
       4B1u   -0.900357     6Ag    -0.621852     5B1u   -0.538137  
       2B2u   -0.506140     2B3u   -0.506140     2B2g   -0.365348  
       2B3g   -0.365348  

    Virtual:                                                              

       3B2u   -0.000856     3B3u   -0.000856     7Ag     0.048118  
       6B1u    0.049455     8Ag     0.071425     4B3u    0.080524  
       4B2u    0.080524     3B2g    0.089967     3B3g    0.089967  
       7B1u    0.116683     5B3u    0.124074     5B2u    0.124074  
       9Ag     0.134546     1B1g    0.164149    10Ag     0.164149  
       8B1u    0.167033    11Ag     0.202758     9B1u    0.208053  
       1Au     0.221538    10B1u    0.221541    12Ag     0.231208  
       4B2g    0.232928     4B3g    0.232928     6B2u    0.289129  
       6B3u    0.289129    13Ag     0.326333     2B1g    0.326351  
      14Ag     0.326435     5B2g    0.351961     5B3g    0.351961  
      11B1u    0.357022     7B2u    0.363951     7B3u    0.363951  
      12B1u    0.434989     6B2g    0.444536     6B3g    0.444536  
      15Ag     0.449668    16Ag     0.449839     3B1g    0.449841  
       2Au     0.473518    13B1u    0.473522     8B3u    0.500151  
       8B2u    0.500151    17Ag     0.500608     9B2u    0.519824  
       9B3u    0.519824    14B1u    0.550076     7B2g    0.562934  
       7B3g    0.562934    10B2u    0.580457    10B3u    0.580457  
       3Au     0.599191    15B1u    0.599195     8B2g    0.655429  
       8B3g    0.655429    18Ag     0.663425     4B1g    0.663450  
      16B1u    0.686236    19Ag     0.702309     9B2g    0.733430  
       9B3g    0.733430    20Ag     0.809356    11B2u    0.846250  
      11B3u    0.846250    12B3u    0.867069    12B2u    0.867069  
      21Ag     0.908612    17B1u    0.918389    22Ag     0.951671  
       5B1g    0.951690    18B1u    1.015932    13B2u    1.061345  
      13B3u    1.061345    19B1u    1.064970     4Au     1.109334  
      20B1u    1.109355    23Ag     1.158996    10B2g    1.172919  
      10B3g    1.172919    24Ag     1.187807     6B1g    1.187810  
       5Au     1.203366    21B1u    1.203368    11B2g    1.281109  
      11B3g    1.281109    14B3u    1.356573    14B2u    1.356573  
       7B1g    1.379103    25Ag     1.379103    26Ag     1.393167  
      15B3u    1.393603    15B2u    1.393603    22B1u    1.403819  
      12B2g    1.404624    12B3g    1.404624     6Au     1.406182  
      23B1u    1.406182    13B2g    1.460548    13B3g    1.460548  
      16B2u    1.533017    16B3u    1.533017    27Ag     1.539605  
       8B1g    1.539616    14B2g    1.546569    14B3g    1.546569  
      17B2u    1.573615    17B3u    1.573615    28Ag     1.600833  
       7Au     1.620025    24B1u    1.620028    25B1u    1.652407  
      18B2u    1.721894    18B3u    1.721894    15B3g    1.803424  
      15B2g    1.803424    29Ag     1.836083    26B1u    1.898512  
      30Ag     1.901566     9B1g    1.901605     8Au     1.945816  
      27B1u    1.945847    16B2g    2.032098    16B3g    2.032098  
      31Ag     2.038188    28B1u    2.050035    19B2u    2.050718  
      19B3u    2.050718    32Ag     2.123927    10B1g    2.123929  
      33Ag     2.179910    11B1g    2.179914    20B3u    2.225129  
      20B2u    2.225129    21B3u    2.344026    21B2u    2.344026  
      34Ag     2.422405    29B1u    2.575293    17B2g    2.611455  
      17B3g    2.611455    18B2g    2.667631    18B3g    2.667631  
      30B1u    2.718491     9Au     2.761813    31B1u    2.761834  
      12B1g    2.785322    35Ag     2.785337    36Ag     2.859223  
      10Au     2.974266    32B1u    2.974280    22B3u    3.010317  
      22B2u    3.010317    37Ag     3.030280    13B1g    3.172643  
      38Ag     3.172663    19B2g    3.228733    19B3g    3.228733  
      39Ag     3.303906    20B2g    3.332512    20B3g    3.332512  
      23B3u    3.381829    23B2u    3.381829    24B3u    3.458110  
      24B2u    3.458110    21B2g    3.466241    21B3g    3.466241  
      33B1u    3.593629    14B1g    3.632946    40Ag     3.632961  
      11Au     3.641025    34B1u    3.641040    41Ag     3.683185  
      15B1g    3.683190    22B3g    3.739893    22B2g    3.739893  
      25B2u    3.799560    25B3u    3.799560    26B2u    3.803277  
      26B3u    3.803277    12Au     3.828542    35B1u    3.828568  
      36B1u    3.878786    42Ag     3.955931    37B1u    4.102417  
      13Au     4.102425    23B2g    4.130223    23B3g    4.130223  
      38B1u    4.166505    16B1g    4.364811    43Ag     4.364820  
      24B2g    4.455383    24B3g    4.455383    44Ag     4.469737  
      39B1u    4.471405    27B3u    4.762102    27B2u    4.762102  
      45Ag     4.896323    46Ag     5.725594    17B1g    5.725632  
      28B3u    5.798353    28B2u    5.798353    25B2g    5.993138  
      25B3g    5.993138    26B3g    6.081854    26B2g    6.081854  
      29B2u    6.189704    29B3u    6.189704    30B2u    6.239280  
      30B3u    6.239280    47Ag     6.282011    18B1g    6.282024  
      40B1u    6.403125    19B1g    6.436790    48Ag     6.436792  
      49Ag     6.451372    14Au     6.539657    41B1u    6.539679  
      27B2g    6.592410    27B3g    6.592410    50Ag     6.910308  
      31B3u    7.128145    31B2u    7.128145    28B2g    7.735570  
      28B3g    7.735570    42B1u    8.339129    51Ag     8.736987  
      43B1u    8.849114    15Au     8.849151    44B1u    8.856509  
      52Ag     8.895516    20B1g    8.895553    29B2g    9.206332  
      29B3g    9.206332    32B3u    9.285658    32B2u    9.285658  
      45B1u    9.523327    53Ag    10.391279    46B1u   20.120113  
      54Ag    21.364926    55Ag    23.139098  

    Final Occupation by Irrep:
             Ag   B1g   B2g   B3g    Au   B1u   B2u   B3u 
    DOCC [     6,    0,    2,    2,    0,    5,    2,    2 ]

  @DF-RKS Final Energy:  -834.40610950251107

   => Energetics <=

    Nuclear Repulsion Energy =            109.4830461551314471
    One-Electron Energy =               -1368.0579339771165905
    Two-Electron Energy =                 466.5123737192116664
    DFT Exchange-Correlation Energy =     -42.5006486284171672
    Empirical Dispersion Energy =           0.0000000000000000
    VV10 Nonlocal Energy =                  0.1570532286795117
    Total Energy =                       -834.4061095025111854

Computation Completed


Properties will be evaluated at   0.000000,   0.000000,   0.000000 [a0]

Properties computed using the SCF density matrix

  Nuclear Dipole Moment: [e a0]
     X:     0.0000      Y:     0.0000      Z:     0.0000

  Electronic Dipole Moment: [e a0]
     X:     0.0000      Y:     0.0000      Z:     0.0000

  Dipole Moment: [e a0]
     X:     0.0000      Y:     0.0000      Z:     0.0000     Total:     0.0000

  Dipole Moment: [D]
     X:     0.0000      Y:     0.0000      Z:     0.0000     Total:     0.0000


*** tstop() called on bp1-compute00065.data.bp.acrc.priv at Tue Apr 27 16:35:23 2021
Module time:
	user time   =      89.54 seconds =       1.49 minutes
	system time =       3.14 seconds =       0.05 minutes
[...]
    GGA                 =           TRUE
    Meta                =          FALSE

    Exchange Hybrid     =           TRUE
    MP2 Hybrid          =          FALSE

   => Exchange-Correlation Functionals <=

    1.0000   wB97X-V range-separated functional

   => Exact (HF) Exchange <=

    0.8330            HF,LR [omega = 0.3000]
    0.1670               HF 

   => VV10 Non-Local Parameters <=

    VV10 B              =     6.0000E+00
    VV10 C              =     1.0000E-02

   => Molecular Quadrature <=

    Radial Scheme          =       TREUTLER
    Pruning Scheme         =           FLAT
    Nuclear Scheme         =       TREUTLER

    BS radius alpha        =              1
    Pruning alpha          =              1
    Radial Points          =             75
    Spherical Points       =            302
    Total Points           =          67950
    Total Blocks           =            614
    Max Points             =            256
    Max Functions          =            253

   => Loading Basis Set <=

    Name: (AUG-CC-PV(Q+D)Z AUX)
    Role: JKFIT
    Keyword: DF_BASIS_SCF
    atoms 1   entry C          line   178 file /work/zw18965/.conda/envs/p4env/share/psi4/basis/aug-cc-pvqz-jkfit.gbs 
    atoms 2-3 entry S          line   810 file /work/zw18965/.conda/envs/p4env/share/psi4/basis/aug-cc-pvqz-jkfit.gbs 

  ==> Pre-Iterations <==

   -------------------------------------------------------
    Irrep   Nso     Nmo     Nalpha   Nbeta   Ndocc  Nsocc
   -------------------------------------------------------
     A1        87      87       0       0       0       0
     A2        44      44       0       0       0       0
     B1        52      52       0       0       0       0
     B2        75      75       0       0       0       0
   -------------------------------------------------------
    Total     258     258      19      19      19       0
   -------------------------------------------------------

  ==> Integral Setup <==

  ==> DiskDFJK: Density-Fitted J/K Matrices <==

    J tasked:                  Yes
    K tasked:                  Yes
    wK tasked:                 Yes
    Omega:               3.000E-01
    OpenMP threads:             24
    Integrals threads:          24
    Memory [MiB]:           102544
    Algorithm:                Core
    Integral Cache:           NONE
    Schwarz Cutoff:          1E-12
    Fitting Condition:       1E-10

   => Auxiliary Basis Set <=

  Basis Set: (AUG-CC-PV(Q+D)Z AUX)
    Blend: AUG-CC-PVQZ-JKFIT
    Number of shells: 126
    Number of basis function: 510
    Number of Cartesian functions: 692
    Spherical Harmonics?: true
    Max angular momentum: 5

  Cached 100.0% of DFT collocation blocks in 0.442 [GiB].

  Minimum eigenvalue in the overlap matrix is 1.9607934255E-05.
  Using Symmetric Orthogonalization.

  SCF Guess: Superposition of Atomic Densities via on-the-fly atomic UHF.

  ==> Iterations <==

                           Total Energy        Delta E     RMS |[F,P]|

   @DF-RKS iter SAD:  -834.02602295119391   -8.34026e+02   0.00000e+00 
   @DF-RKS iter   1:  -834.37563193797257   -3.49609e-01   2.38197e-03 DIIS
   @DF-RKS iter   2:  -834.39701675464914   -2.13848e-02   1.16869e-03 DIIS
   @DF-RKS iter   3:  -834.40398484557238   -6.96809e-03   4.94674e-04 DIIS
   @DF-RKS iter   4:  -834.40602090776304   -2.03606e-03   7.57446e-05 DIIS
   @DF-RKS iter   5:  -834.40610575810808   -8.48503e-05   1.51330e-05 DIIS
   @DF-RKS iter   6:  -834.40610907394489   -3.31584e-06   5.25110e-06 DIIS
   @DF-RKS iter   7:  -834.40610946490449   -3.90960e-07   4.19656e-07 DIIS
   @DF-RKS iter   8:  -834.40610946921902   -4.31453e-09   6.39377e-08 DIIS
   @DF-RKS iter   9:  -834.40610946929064   -7.16227e-11   8.08446e-09 DIIS
   @DF-RKS iter  10:  -834.40610946929178   -1.13687e-12   2.43015e-09 DIIS
   @DF-RKS iter  11:  -834.40610946929178    0.00000e+00   4.24953e-10 DIIS
   @DF-RKS iter  12:  -834.40610946929166    1.13687e-13   5.73221e-11 DIIS
  Energy and wave function converged.


  ==> Post-Iterations <==

    Orbital Energies [Eh]
    ---------------------

    Doubly Occupied:                                                      

       1A1   -88.920599     1B2   -88.920596     2A1   -10.408690  
       2B2    -8.078078     3A1    -8.078057     3B2    -6.033596  
       4A1    -6.033596     1A2    -6.029687     4B2    -6.029687  
       1B1    -6.029686     5A1    -6.029686     6A1    -0.998274  
       5B2    -0.900385     7A1    -0.621831     6B2    -0.538143  
       8A1    -0.506174     2B1    -0.506174     2A2    -0.365344  
       7B2    -0.365344  

    Virtual:                                                              

       9A1    -0.000827     3B1    -0.000827    10A1     0.048120  
       8B2     0.049456    11A1     0.071426     4B1     0.080528  
      12A1     0.080528     9B2     0.089965     3A2     0.089965  
      10B2     0.116684    13A1     0.124072     5B1     0.124072  
      14A1     0.134590     6B1     0.164147    15A1     0.164148  
      11B2     0.167035    16A1     0.202765    12B2     0.208061  
       4A2     0.221544    13B2     0.221547    17A1     0.231237  
       5A2     0.232932    14B2     0.232932    18A1     0.289132  
       7B1     0.289132    19A1     0.326330     8B1     0.326349  
      20A1     0.326439    15B2     0.351966     6A2     0.351966  
      16B2     0.357034     9B1     0.363949    21A1     0.363949  
      17B2     0.434978     7A2     0.444548    18B2     0.444548  
      22A1     0.449677    23A1     0.449839    10B1     0.449841  
       8A2     0.473522    19B2     0.473526    11B1     0.500144  
      24A1     0.500144    25A1     0.500616    12B1     0.519849  
      26A1     0.519849    20B2     0.550107     9A2     0.562944  
      21B2     0.562944    27A1     0.580488    13B1     0.580488  
      10A2     0.599203    22B2     0.599207    23B2     0.655435  
      11A2     0.655435    28A1     0.663420    14B1     0.663446  
      24B2     0.686249    29A1     0.702324    12A2     0.733446  
      25B2     0.733446    30A1     0.809392    15B1     0.846279  
      31A1     0.846279    16B1     0.867093    32A1     0.867093  
      33A1     0.908645    26B2     0.918395    34A1     0.951730  
      17B1     0.951748    27B2     1.015962    35A1     1.061361  
      18B1     1.061361    28B2     1.065104    13A2     1.109370  
      29B2     1.109391    36A1     1.158993    14A2     1.172907  
      30B2     1.172908    37A1     1.187809    19B1     1.187811  
      15A2     1.203363    31B2     1.203365    32B2     1.281190  
      16A2     1.281190    38A1     1.356550    20B1     1.356551  
      21B1     1.379095    39A1     1.379096    40A1     1.393155  
      41A1     1.393599    22B1     1.393599    33B2     1.403964  
      17A2     1.404635    34B2     1.404635    18A2     1.406190  
      35B2     1.406190    19A2     1.460576    36B2     1.460576  
      23B1     1.533055    42A1     1.533055    43A1     1.539604  
      24B1     1.539615    37B2     1.546607    20A2     1.546607  
      44A1     1.573649    25B1     1.573649    45A1     1.600893  
      21A2     1.620103    38B2     1.620106    39B2     1.652463  
      26B1     1.721959    46A1     1.721959    22A2     1.803538  
      40B2     1.803538    47A1     1.836197    41B2     1.898502  
      48A1     1.901589    27B1     1.901627    23A2     1.945821  
      42B2     1.945852    24A2     2.032114    43B2     2.032116  
      49A1     2.038115    44B2     2.049986    28B1     2.050822  
      50A1     2.050822    51A1     2.123969    29B1     2.123971  
      52A1     2.180027    30B1     2.180031    53A1     2.225178  
      31B1     2.225178    54A1     2.344093    32B1     2.344094  
      55A1     2.422533    45B2     2.575508    25A2     2.611569  
      46B2     2.611569    47B2     2.667654    26A2     2.667663  
      48B2     2.718567    27A2     2.761927    49B2     2.761948  
      33B1     2.785340    56A1     2.785355    57A1     2.859281  
      28A2     2.974376    50B2     2.974390    58A1     3.010414  
      34B1     3.010422    59A1     3.030558    35B1     3.172625  
      60A1     3.172645    29A2     3.228749    51B2     3.228750  
      61A1     3.303912    52B2     3.332770    30A2     3.332771  
      36B1     3.381918    62A1     3.381919    37B1     3.458115  
      63A1     3.458115    31A2     3.466238    53B2     3.466238  
      54B2     3.593835    38B1     3.632940    64A1     3.632955  
      32A2     3.641031    55B2     3.641046    65A1     3.683319  
      39B1     3.683324    33A2     3.740004    56B2     3.740004  
      40B1     3.799612    66A1     3.799612    41B1     3.803436  
      67A1     3.803437    34A2     3.828602    57B2     3.828628  
      58B2     3.878816    68A1     3.956225    59B2     4.102597  
      35A2     4.102604    60B2     4.130193    36A2     4.130193  
      61B2     4.166472    42B1     4.364876    69A1     4.364884  
      62B2     4.455745    37A2     4.455761    70A1     4.470102  
      63B2     4.471953    71A1     4.762163    43B1     4.762163  
      72A1     4.895841    73A1     5.725618    44B1     5.725656  
      45B1     5.798760    74A1     5.798764    38A2     5.993227  
      64B2     5.993227    39A2     6.082029    65B2     6.082030  
      46B1     6.189846    75A1     6.189847    76A1     6.239309  
      47B1     6.239309    77A1     6.282237    48B1     6.282251  
      66B2     6.403308    49B1     6.436951    78A1     6.436953  
      79A1     6.451418    40A2     6.539794    67B2     6.539816  
      68B2     6.592486    41A2     6.592486    80A1     6.911291  
      50B1     7.128214    81A1     7.128216    69B2     7.736141  
      42A2     7.736142    70B2     8.339659    82A1     8.736882  
      71B2     8.849137    43A2     8.849173    72B2     8.856861  
      83A1     8.895560    51B1     8.895597    44A2     9.206756  
      73B2     9.206763    84A1     9.285735    52B1     9.285735  
      74B2     9.523695    85A1    10.392035    75B2    20.121525  
      86A1    21.365590    87A1    23.140730  

    Final Occupation by Irrep:
             A1    A2    B1    B2 
    DOCC [     8,    2,    2,    7 ]

  @DF-RKS Final Energy:  -834.40610946929166

   => Energetics <=

    Nuclear Repulsion Energy =            109.4945309378145737
    One-Electron Energy =               -1368.0811103746759727
    Two-Electron Energy =                 466.5242349304310210
    DFT Exchange-Correlation Energy =     -42.5008178870393039
    Empirical Dispersion Energy =           0.0000000000000000
    VV10 Nonlocal Energy =                  0.1570529241780318
    Total Energy =                       -834.4061094692916640

Computation Completed


Properties will be evaluated at   0.000000,   0.000000,   0.000000 [a0]

Properties computed using the SCF density matrix

  Nuclear Dipole Moment: [e a0]
     X:     0.0000      Y:     0.0000      Z:     0.0000

  Electronic Dipole Moment: [e a0]
     X:     0.0003      Y:     0.0000      Z:     0.0000

  Dipole Moment: [e a0]
     X:     0.0003      Y:     0.0000      Z:     0.0000     Total:     0.0003

  Dipole Moment: [D]
     X:     0.0007      Y:     0.0000      Z:     0.0000     Total:     0.0007


*** tstop() called on bp1-compute00065.data.bp.acrc.priv at Tue Apr 27 16:36:40 2021
Module time:
	user time   =     140.70 seconds =       2.35 minutes
	system time =       7.00 seconds =       0.12 minutes
	total time  =          6 seconds =       0.10 minutes
Total time:
	user time   =    2217.72 seconds =      36.96 minutes
	system time =      92.13 seconds =       1.54 minutes
	total time  =        107 seconds =       1.78 minutes

         ----------------------------------------------------------
                                   FINDIF
                     R. A. King and Jonathon Misiewicz
         ---------------------------------------------------------

  Computing second-derivative from energies using projected, 
  symmetry-adapted, cartesian coordinates.

  6 energies passed in, including the reference geometry.
    Using 3-point formula.
    Energy without displacement: -834.4061095656
    Check energies below for precision!
    0: -1 :      -834.4061093174
    0: 1  :      -834.4061093551
    1: -1 :      -834.4061083672
    2: -1 :      -834.4061094794
    3: -1 :      -834.4061094693

-------------------------------------------------------------


  ==> Harmonic Vibrational Analysis <==

  non-mass-weighted Hessian:       Symmetric? True   Hermitian? True   Lin Dep Dim?  5 (0)
  projection of translations (True) and rotations (True) removed 5 degrees of freedom (5)
  total projector:                 Symmetric? True   Hermitian? True   Lin Dep Dim?  5 (5)
  mass-weighted Hessian:           Symmetric? True   Hermitian? True   Lin Dep Dim?  5 (0)
  pre-proj  low-frequency mode:    0.0000i [cm^-1]
  pre-proj  low-frequency mode:    0.0000i [cm^-1]
  pre-proj  low-frequency mode:    0.0000i [cm^-1]
  pre-proj  low-frequency mode:    0.0000i [cm^-1]
  pre-proj  low-frequency mode:    0.0000  [cm^-1]
  pre-proj  all modes:['0.0000i' '0.0000i' '0.0000i' '0.0000i' '0.0000' '426.9714' '451.2839'
 '696.3816' '1591.6595']
  projected mass-weighted Hessian: Symmetric? True   Hermitian? True   Lin Dep Dim?  5 (5)
  post-proj low-frequency mode:    0.0000i [cm^-1] (TR)
  post-proj low-frequency mode:    0.0000i [cm^-1] (TR)
  post-proj low-frequency mode:    0.0000  [cm^-1] (TR)
  post-proj low-frequency mode:    0.0000  [cm^-1] (TR)
  post-proj low-frequency mode:    0.0000  [cm^-1] (TR)
  post-proj  all modes:['0.0000i' '0.0000i' '0.0000' '0.0000' '0.0000' '426.9714' '451.2839'
 '696.3816' '1591.6595']

  Vibration                       6                   7                   8           
  Freq [cm^-1]                 426.9714            451.2839            696.3816       
  Irrep                          B2u                 B3u                  Ag          
  Reduced mass [u]             13.3142             13.3142             31.9721        
  Force const [mDyne/A]         1.4301              1.5976              9.1351        
  Turning point v=0 [a0]        0.1455              0.1416              0.0735        
  RMS dev v=0 [a0 u^1/2]        0.3755              0.3652              0.2940        
  Char temp [K]                614.3167            649.2971           1001.9381       
  ----------------------------------------------------------------------------------
      1   C                0.00  0.97 -0.00    0.97  0.00  0.00   -0.00 -0.00 -0.00   
      2   S                0.00 -0.18 -0.00   -0.18 -0.00  0.00   -0.00  0.00  0.71   
      3   S                0.00 -0.18 -0.00   -0.18  0.00  0.00    0.00  0.00 -0.71   

  Vibration                       9           
  Freq [cm^-1]                1591.6595       
  Irrep                          B1u          
  Reduced mass [u]             13.3142        
  Force const [mDyne/A]        19.8731        
  Turning point v=0 [a0]        0.0754        
  RMS dev v=0 [a0 u^1/2]        0.1945        
  Char temp [K]               2290.0437       
  ----------------------------------------------------------------------------------
      1   C               -0.00 -0.00  0.97   
      2   S                0.00 -0.00 -0.18   
      3   S               -0.00  0.00 -0.18   

  ==> Thermochemistry Components <==

  Entropy, S
    Electronic S            0.000 [cal/(mol K)]        0.000 [J/(mol K)]       0.00000000 [mEh/K] (multiplicity = 1)
    Translational S        38.898 [cal/(mol K)]      162.748 [J/(mol K)]       0.06198752 [mEh/K] (mol. weight = 75.9441 [u], P = 101325.00 [Pa])
    Rotational S           15.591 [cal/(mol K)]       65.234 [J/(mol K)]       0.02484645 [mEh/K] (symmetry no. = 2)
    Vibrational S           1.979 [cal/(mol K)]        8.280 [J/(mol K)]       0.00315353 [mEh/K]
  Total S                  56.468 [cal/(mol K)]      236.262 [J/(mol K)]       0.08998750 [mEh/K]
  Correction S              0.000 [cal/(mol K)]        0.000 [J/(mol K)]       0.00000000 [mEh/K]

  Constant volume heat capacity, Cv
    Electronic Cv           0.000 [cal/(mol K)]        0.000 [J/(mol K)]       0.00000000 [mEh/K]
    Translational Cv        2.981 [cal/(mol K)]       12.472 [J/(mol K)]       0.00475022 [mEh/K]
    Rotational Cv           1.987 [cal/(mol K)]        8.314 [J/(mol K)]       0.00316681 [mEh/K]
    Vibrational Cv          3.660 [cal/(mol K)]       15.313 [J/(mol K)]       0.00583245 [mEh/K]
  Total Cv                  8.628 [cal/(mol K)]       36.099 [J/(mol K)]       0.01374948 [mEh/K]
  Correction Cv             0.000 [cal/(mol K)]        0.000 [J/(mol K)]       0.00000000 [mEh/K]

  Constant pressure heat capacity, Cp
    Electronic Cp           0.000 [cal/(mol K)]        0.000 [J/(mol K)]       0.00000000 [mEh/K]
    Translational Cp        4.968 [cal/(mol K)]       20.786 [J/(mol K)]       0.00791703 [mEh/K]
    Rotational Cp           1.987 [cal/(mol K)]        8.314 [J/(mol K)]       0.00316681 [mEh/K]
    Vibrational Cp          3.660 [cal/(mol K)]       15.313 [J/(mol K)]       0.00583245 [mEh/K]
  Total Cp                 10.615 [cal/(mol K)]       44.414 [J/(mol K)]       0.01691629 [mEh/K]
  Correction Cp             0.000 [cal/(mol K)]        0.000 [J/(mol K)]       0.00000000 [mEh/K]

  ==> Thermochemistry Energy Analysis <==

  Raw electronic energy, E0
  Total E0, Electronic energy at well bottom at 0 [K]                 -834.40610957 [Eh]

  Zero-point energy, ZPE_vib = Sum_i nu_i / 2
    Electronic ZPE          0.000 [kcal/mol]        0.000 [kJ/mol]       0.00000000 [Eh]
    Translational ZPE       0.000 [kcal/mol]        0.000 [kJ/mol]       0.00000000 [Eh]
    Rotational ZPE          0.000 [kcal/mol]        0.000 [kJ/mol]       0.00000000 [Eh]
    Vibrational ZPE         4.526 [kcal/mol]       18.939 [kJ/mol]       0.00721335 [Eh]        1583.148 [cm^-1]
  Correction ZPE            4.526 [kcal/mol]       18.939 [kJ/mol]       0.00721335 [Eh]        1583.148 [cm^-1]
  Total ZPE, Electronic energy at 0 [K]                               -834.39889621 [Eh]

  Thermal Energy, E (includes ZPE)
    Electronic E            0.000 [kcal/mol]        0.000 [kJ/mol]       0.00000000 [Eh]
    Translational E         0.889 [kcal/mol]        3.718 [kJ/mol]       0.00141628 [Eh]
    Rotational E            0.592 [kcal/mol]        2.479 [kJ/mol]       0.00094418 [Eh]
    Vibrational E           4.943 [kcal/mol]       20.683 [kJ/mol]       0.00787758 [Eh]
  Correction E              6.424 [kcal/mol]       26.880 [kJ/mol]       0.01023804 [Eh]
  Total E, Electronic energy at  298.15 [K]                           -834.39587153 [Eh]

  Enthalpy, H_trans = E_trans + k_B * T
    Electronic H            0.000 [kcal/mol]        0.000 [kJ/mol]       0.00000000 [Eh]
    Translational H         1.481 [kcal/mol]        6.197 [kJ/mol]       0.00236046 [Eh]
    Rotational H            0.592 [kcal/mol]        2.479 [kJ/mol]       0.00094418 [Eh]
    Vibrational H           4.943 [kcal/mol]       20.683 [kJ/mol]       0.00787758 [Eh]
  Correction H              7.017 [kcal/mol]       29.359 [kJ/mol]       0.01118222 [Eh]
  Total H, Enthalpy at  298.15 [K]                                    -834.39492734 [Eh]

  Gibbs free energy, G = H - T * S
    Electronic G            0.000 [kcal/mol]        0.000 [kJ/mol]       0.00000000 [Eh]
    Translational G       -10.116 [kcal/mol]      -42.326 [kJ/mol]      -0.01612112 [Eh]
    Rotational G           -4.056 [kcal/mol]      -16.971 [kJ/mol]      -0.00646378 [Eh]
    Vibrational G           4.353 [kcal/mol]       18.214 [kJ/mol]       0.00693735 [Eh]
  Correction G             -9.819 [kcal/mol]      -41.083 [kJ/mol]      -0.01564755 [Eh]
  Total G, Free enthalpy at  298.15 [K]                               -834.42175712 [Eh]

    Psi4 stopped on: Tuesday, 27 April 2021 04:36PM
    Psi4 wall time for execution: 0:01:47.96

*** Psi4 exiting successfully. Buy a developer a beer!
