
    -----------------------------------------------------------------------
          Psi4: An Open-Source Ab Initio Electronic Structure Package
                               Psi4 1.3.2 release

                         Git: Rev {HEAD} ecbda83 


    R. M. Parrish, L. A. Burns, D. G. A. Smith, A. C. Simmonett,
    A. E. DePrince III, E. G. Hohenstein, U. Bozkaya, A. Yu. Sokolov,
    R. Di Remigio, R. M. Richard, J. F. Gonthier, A. M. James,
    H. R. McAlexander, A. Kumar, M. Saitow, X. Wang, B. P. Pritchard,
    P. Verma, H. F. Schaefer III, K. Patkowski, R. A. King, E. F. Valeev,
    F. A. Evangelista, J. M. Turney, T. D. Crawford, and C. D. Sherrill,
    J. Chem. Theory Comput. 13(7) pp 3185--3197 (2017).
    (doi: 10.1021/acs.jctc.7b00174)


                         Additional Contributions by
    P. Kraus, H. Kruse, M. H. Lechner, M. C. Schieber, R. A. Shaw,
    A. Alenaizan, R. Galvelis, Z. L. Glick, S. Lehtola, and J. P. Misiewicz

    -----------------------------------------------------------------------


    Psi4 started on: Tuesday, 27 April 2021 04:35PM

    Process ID: 10131
    Host:       bp1-compute00047.data.bp.acrc.priv
    PSIDATADIR: /work/zw18965/.conda/envs/p4env/share/psi4
    Memory:     500.0 MiB
    Threads:    24
    
  ==> Input File <==

--------------------------------------------------------------------------
memory 144 GB

molecule {
0 1
C 0.0000000000 0.0000000000 0.0000000000
S 0.0000000000 0.0000000000 1.5415329200
}

set dynamic_level 1
set basis aug-cc-pV(Q+d)Z
 
optimize("wB97X-V")
frequencies("wB97X-V")
--------------------------------------------------------------------------

  Memory set to 134.110 GiB by Python driver.
gradient() will perform gradient computation by finite difference of analytic energies.

         ----------------------------------------------------------
                                   FINDIF
                     R. A. King and Jonathon Misiewicz
         ---------------------------------------------------------

  Using finite-differences of energies to determine gradients.
    Generating geometries for use with 3-point formula.
    Displacement size will be 5.00e-03.
    Number of atoms is 2.
    Number of symmetric SALCs is 1.
    Translations projected? 1. Rotations projected? 1.
    Number of geometries (including reference) is 3.

  //>>>>>>>>>>>>>>>>>>>>>>>>>>>>>>>>>>>//
  //    Loading displacement 1 of 3    //
  //<<<<<<<<<<<<<<<<<<<<<<<<<<<<<<<<<<<//

*** tstart() called on bp1-compute00047.data.bp.acrc.priv
*** at Tue Apr 27 16:35:34 2021

   => Loading Basis Set <=

    Name: AUG-CC-PV(Q+D)Z
    Role: ORBITAL
    Keyword: BASIS
    atoms 1 entry C          line   319 file /work/zw18965/.conda/envs/p4env/share/psi4/basis/aug-cc-pv_qpd_z.gbs 
    atoms 2 entry S          line  1148 file /work/zw18965/.conda/envs/p4env/share/psi4/basis/aug-cc-pv_qpd_z.gbs 


         ---------------------------------------------------------
                                   SCF
               by Justin Turney, Rob Parrish, Andy Simmonett
                          and Daniel G. A. Smith
                              RKS Reference
                       24 Threads, 137329 MiB Core
         ---------------------------------------------------------

  ==> Geometry <==

    Molecular point group: c2v
    Full point group: C_inf_v

    Geometry (in Angstrom), charge = 0, multiplicity = 1:

       Center              X                  Y                   Z               Mass       
    ------------   -----------------  -----------------  -----------------  -----------------
         C            0.000000000000     0.000000000000    -1.120847822711    12.000000000000
         S            0.000000000000     0.000000000000     0.420685097289    31.972071174400

  Running in c2v symmetry.

  Rotational constants: A = ************  B =      0.81305  C =      0.81305 [cm^-1]
  Rotational constants: A = ************  B =  24374.54386  C =  24374.54386 [MHz]
  Nuclear repulsion =   32.954866915407813

  Charge       = 0
  Multiplicity = 1
  Electrons    = 22
  Nalpha       = 11
  Nbeta        = 11

  ==> Algorithm <==

  SCF Algorithm Type is DF.
  DIIS enabled.
  MOM disabled.
  Fractional occupation disabled.
  Guess Type is SAD.
  Energy threshold   = 1.00e-08
  Density threshold  = 1.00e-08
  Integral threshold = 0.00e+00

  ==> Primary Basis <==

  Basis Set: AUG-CC-PV(Q+D)Z
    Blend: AUG-CC-PV(Q+D)Z
    Number of shells: 43
    Number of basis function: 169
    Number of Cartesian functions: 220
    Spherical Harmonics?: true
    Max angular momentum: 4

  ==> DFT Potential <==

   => Composite Functional: WB97X-V <= 

    wB97X-V Hyb-GGA Exchange-Correlation Functional

    N. Mardirossian and M. Head-Gordon, Phys. Chem. Chem. Phys. 16, 9904 (2014)

    Deriv               =              1
    GGA                 =           TRUE
    Meta                =          FALSE

    Exchange Hybrid     =           TRUE
    MP2 Hybrid          =          FALSE

   => Exchange-Correlation Functionals <=

    1.0000   wB97X-V range-separated functional

   => Exact (HF) Exchange <=

    0.8330            HF,LR [omega = 0.3000]
    0.1670               HF 

   => VV10 Non-Local Parameters <=

    VV10 B              =     6.0000E+00
    VV10 C              =     1.0000E-02

   => Molecular Quadrature <=

    Radial Scheme          =       TREUTLER
    Pruning Scheme         =           FLAT
    Nuclear Scheme         =       TREUTLER

    BS radius alpha        =              1
    Pruning alpha          =              1
    Radial Points          =             75
    Spherical Points       =            302
    Total Points           =          45300
    Total Blocks           =            427
    Max Points             =            254
    Max Functions          =            169

   => Loading Basis Set <=

    Name: (AUG-CC-PV(Q+D)Z AUX)
    Role: JKFIT
    Keyword: DF_BASIS_SCF
    atoms 1 entry C          line   178 file /work/zw18965/.conda/envs/p4env/share/psi4/basis/aug-cc-pvqz-jkfit.gbs 
    atoms 2 entry S          line   810 file /work/zw18965/.conda/envs/p4env/share/psi4/basis/aug-cc-pvqz-jkfit.gbs 

  ==> Pre-Iterations <==

   -------------------------------------------------------
    Irrep   Nso     Nmo     Nalpha   Nbeta   Ndocc  Nsocc
   -------------------------------------------------------
     A1        66      66       0       0       0       0
     A2        23      23       0       0       0       0
     B1        40      40       0       0       0       0
     B2        40      40       0       0       0       0
   -------------------------------------------------------
    Total     169     169      11      11      11       0
   -------------------------------------------------------

  ==> Integral Setup <==

  ==> DiskDFJK: Density-Fitted J/K Matrices <==

    J tasked:                  Yes
    K tasked:                  Yes
    wK tasked:                 Yes
    Omega:               3.000E-01
    OpenMP threads:             24
    Integrals threads:          24
    Memory [MiB]:           102788
    Algorithm:                Core
    Integral Cache:           NONE
    Schwarz Cutoff:          1E-12
    Fitting Condition:       1E-10

   => Auxiliary Basis Set <=

  Basis Set: (AUG-CC-PV(Q+D)Z AUX)
    Blend: AUG-CC-PVQZ-JKFIT
    Number of shells: 80
    Number of basis function: 326
    Number of Cartesian functions: 445
    Spherical Harmonics?: true
    Max angular momentum: 5

  Cached 100.0% of DFT collocation blocks in 0.203 [GiB].

  Minimum eigenvalue in the overlap matrix is 3.7784152116E-05.
  Using Symmetric Orthogonalization.

  SCF Guess: Superposition of Atomic Densities via on-the-fly atomic UHF.

  ==> Iterations <==

                           Total Energy        Delta E     RMS |[F,P]|

   @DF-RKS iter SAD:  -435.57902412689646   -4.35579e+02   0.00000e+00 
   @DF-RKS iter   1:  -436.12610358371461   -5.47079e-01   3.54991e-03 DIIS
   @DF-RKS iter   2:  -436.11592077321234    1.01828e-02   3.60738e-03 DIIS
   @DF-RKS iter   3:  -436.17174384482411   -5.58231e-02   6.88662e-04 DIIS
   @DF-RKS iter   4:  -436.17335344461424   -1.60960e-03   9.50710e-05 DIIS
   @DF-RKS iter   5:  -436.17341512708640   -6.16825e-05   2.82252e-05 DIIS
   @DF-RKS iter   6:  -436.17342019696451   -5.06988e-06   1.17955e-05 DIIS
   @DF-RKS iter   7:  -436.17342143867398   -1.24171e-06   1.43668e-06 DIIS
   @DF-RKS iter   8:  -436.17342147589574   -3.72218e-08   1.75430e-07 DIIS
   @DF-RKS iter   9:  -436.17342147635668   -4.60943e-10   2.55108e-08 DIIS
   @DF-RKS iter  10:  -436.17342147636651   -9.83391e-12   4.17778e-09 DIIS
  Energy and wave function converged.


  ==> Post-Iterations <==

    Orbital Energies [Eh]
    ---------------------

    Doubly Occupied:                                                      

       1A1   -88.939762     2A1   -10.378829     3A1    -8.098992  
       1B1    -6.052207     1B2    -6.052207     4A1    -6.050869  
       5A1    -0.965418     6A1    -0.638058     2B1    -0.456751  
       2B2    -0.456751     7A1    -0.422308  

    Virtual:                                                              

       3B1    -0.004833     3B2    -0.004833     8A1     0.047298  
       9A1     0.077318     4B1     0.078177     4B2     0.078177  
      10A1     0.092564     5B1     0.102814     5B2     0.102814  
      11A1     0.153084    12A1     0.175525     1A2     0.175525  
      13A1     0.202788     6B1     0.256024     6B2     0.256024  
      14A1     0.274658     2A2     0.281607    15A1     0.281608  
       7B2     0.288040     7B1     0.288040    16A1     0.310443  
       8B1     0.361401     8B2     0.361401    17A1     0.425524  
      18A1     0.439405     3A2     0.439405    19A1     0.476526  
      20A1     0.494660     9B1     0.501551     9B2     0.501551  
      10B1     0.517393    10B2     0.517393    11B2     0.529571  
      11B1     0.529571    21A1     0.585323     4A2     0.585325  
      22A1     0.645344    12B1     0.701493    12B2     0.701493  
      23A1     0.773623     5A2     0.788622    24A1     0.788623  
      13B1     0.804086    13B2     0.804086    14B2     0.877981  
      14B1     0.877981    25A1     0.932943    26A1     0.994035  
       6A2     0.994114    27A1     0.994117    28A1     1.052049  
      15B2     1.119828    15B1     1.119828     7A2     1.167853  
      29A1     1.167853    16B1     1.269426    16B2     1.269426  
      30A1     1.284232    17B1     1.362133    17B2     1.362133  
       8A2     1.375680    31A1     1.375682    18B2     1.383888  
      18B1     1.383888    32A1     1.457515     9A2     1.457518  
      19B1     1.476254    19B2     1.476254    20B1     1.499329  
      20B2     1.499329    33A1     1.521622    34A1     1.663523  
      21B2     1.709522    21B1     1.709522    35A1     1.764722  
      10A2     1.764724    36A1     1.960164    37A1     2.070657  
      38A1     2.096362    11A2     2.096373    39A1     2.122449  
      12A2     2.122458    22B2     2.154987    22B1     2.154987  
      40A1     2.167656    23B1     2.203586    23B2     2.203586  
      24B2     2.315312    24B1     2.315312    13A2     2.376640  
      41A1     2.376653    42A1     2.398830    25B2     2.402828  
      25B1     2.402828    43A1     2.604701    26B1     2.685676  
      26B2     2.685676    14A2     2.766924    44A1     2.766935  
      27B2     2.832082    27B1     2.832082    45A1     2.858187  
      15A2     3.028128    46A1     3.028135    28B2     3.245916  
      28B1     3.245916    47A1     3.332790    29B2     3.436724  
      29B1     3.436724    16A2     3.498934    48A1     3.498935  
      17A2     3.610131    49A1     3.610147    30B1     3.667149  
      30B2     3.667149    50A1     3.756403    31B1     3.784404  
      31B2     3.784404    51A1     3.983490    52A1     3.992895  
      18A2     3.992901    53A1     4.310493    32B2     4.397627  
      32B1     4.397627    33B2     5.591206    33B1     5.591206  
      54A1     5.738693    19A2     5.738751    34B2     5.883291  
      34B1     5.883291    35B2     5.891563    35B1     5.891563  
      55A1     6.032167    20A2     6.032168    36B2     6.082109  
      36B1     6.082109    56A1     6.103430    37B2     6.246176  
      37B1     6.246176    21A2     6.302912    57A1     6.302912  
      58A1     6.348195    22A2     6.522320    59A1     6.522334  
      60A1     6.575875    38B2     6.826117    38B1     6.826117  
      61A1     7.218596    39B2     7.341892    39B1     7.341892  
      62A1     8.577597    63A1     8.806613    23A2     8.806649  
      40B1     9.058303    40B2     9.058303    64A1     9.622147  
      65A1    19.984730    66A1    21.131905  

    Final Occupation by Irrep:
             A1    A2    B1    B2 
    DOCC [     7,    0,    2,    2 ]

  @DF-RKS Final Energy:  -436.17342147636651

   => Energetics <=

    Nuclear Repulsion Energy =             32.9548669154078127
    One-Electron Energy =                -665.5557320296986745
    Two-Electron Energy =                 219.3835210211582307
    DFT Exchange-Correlation Energy =     -23.0481448890447034
    Empirical Dispersion Energy =           0.0000000000000000
    VV10 Nonlocal Energy =                  0.0920675058108030
    Total Energy =                       -436.1734214763665136

Computation Completed


Properties will be evaluated at   0.000000,   0.000000,   0.000000 [a0]

Properties computed using the SCF density matrix

  Nuclear Dipole Moment: [e a0]
     X:     0.0000      Y:     0.0000      Z:     0.0111

  Electronic Dipole Moment: [e a0]
     X:     0.0000      Y:     0.0000      Z:     0.7311

  Dipole Moment: [e a0]
     X:     0.0000      Y:     0.0000      Z:     0.7422     Total:     0.7422

  Dipole Moment: [D]
     X:     0.0000      Y:     0.0000      Z:     1.8864     Total:     1.8864


*** tstop() called on bp1-compute00047.data.bp.acrc.priv at Tue Apr 27 16:35:38 2021
Module time:
	user time   =      82.26 seconds =       1.37 minutes
	system time =       3.77 seconds =       0.06 minutes
	total time  =          4 seconds =       0.07 minutes
Total time:
	user time   =      82.26 seconds =       1.37 minutes
	system time =       3.77 seconds =       0.06 minutes
	total time  =          4 seconds =       0.07 minutes

  //>>>>>>>>>>>>>>>>>>>>>>>>>>>>>>>>>>>//
  //    Loading displacement 2 of 3    //
  //<<<<<<<<<<<<<<<<<<<<<<<<<<<<<<<<<<<//

*** tstart() called on bp1-compute00047.data.bp.acrc.priv
*** at Tue Apr 27 16:35:38 2021

   => Loading Basis Set <=

    Name: AUG-CC-PV(Q+D)Z
    Role: ORBITAL
    Keyword: BASIS
    atoms 1 entry C          line   319 file /work/zw18965/.conda/envs/p4env/share/psi4/basis/aug-cc-pv_qpd_z.gbs 
    atoms 2 entry S          line  1148 file /work/zw18965/.conda/envs/p4env/share/psi4/basis/aug-cc-pv_qpd_z.gbs 


         ---------------------------------------------------------
                                   SCF
               by Justin Turney, Rob Parrish, Andy Simmonett
                          and Daniel G. A. Smith
                              RKS Reference
                       24 Threads, 137329 MiB Core
         ---------------------------------------------------------

  ==> Geometry <==

    Molecular point group: c2v
    Full point group: C_inf_v

    Geometry (in Angstrom), charge = 0, multiplicity = 1:

       Center              X                  Y                   Z               Mass       
    ------------   -----------------  -----------------  -----------------  -----------------
         C            0.000000000000     0.000000000000    -1.121499117253    12.000000000000
         S            0.000000000000     0.000000000000     0.420929546091    31.972071174400

  Running in c2v symmetry.

  Rotational constants: A = ************  B =      0.81210  C =      0.81210 [cm^-1]
  Rotational constants: A = ************  B =  24346.24174  C =  24346.24174 [MHz]
  Nuclear repulsion =   32.935728848677002

  Charge       = 0
  Multiplicity = 1
  Electrons    = 22
  Nalpha       = 11
  Nbeta        = 11

  ==> Algorithm <==

  SCF Algorithm Type is DF.
  DIIS enabled.
  MOM disabled.
  Fractional occupation disabled.
  Guess Type is SAD.
  Energy threshold   = 1.00e-08
  Density threshold  = 1.00e-08
  Integral threshold = 0.00e+00

  ==> Primary Basis <==

  Basis Set: AUG-CC-PV(Q+D)Z
    Blend: AUG-CC-PV(Q+D)Z
    Number of shells: 43
    Number of basis function: 169
    Number of Cartesian functions: 220
    Spherical Harmonics?: true
    Max angular momentum: 4

  ==> DFT Potential <==

   => Composite Functional: WB97X-V <= 

    wB97X-V Hyb-GGA Exchange-Correlation Functional

    N. Mardirossian and M. Head-Gordon, Phys. Chem. Chem. Phys. 16, 9904 (2014)

    Deriv               =              1
    GGA                 =           TRUE
    Meta                =          FALSE

    Exchange Hybrid     =           TRUE
    MP2 Hybrid          =          FALSE

   => Exchange-Correlation Functionals <=

    1.0000   wB97X-V range-separated functional

   => Exact (HF) Exchange <=

    0.8330            HF,LR [omega = 0.3000]
    0.1670               HF 

   => VV10 Non-Local Parameters <=

    VV10 B              =     6.0000E+00
    VV10 C              =     1.0000E-02

   => Molecular Quadrature <=

    Radial Scheme          =       TREUTLER
    Pruning Scheme         =           FLAT
    Nuclear Scheme         =       TREUTLER

    BS radius alpha        =              1
    Pruning alpha          =              1
    Radial Points          =             75
    Spherical Points       =            302
    Total Points           =          45300
    Total Blocks           =            428
    Max Points             =            254
    Max Functions          =            169

   => Loading Basis Set <=

    Name: (AUG-CC-PV(Q+D)Z AUX)
    Role: JKFIT
    Keyword: DF_BASIS_SCF
    atoms 1 entry C          line   178 file /work/zw18965/.conda/envs/p4env/share/psi4/basis/aug-cc-pvqz-jkfit.gbs 
    atoms 2 entry S          line   810 file /work/zw18965/.conda/envs/p4env/share/psi4/basis/aug-cc-pvqz-jkfit.gbs 

  ==> Pre-Iterations <==

   -------------------------------------------------------
    Irrep   Nso     Nmo     Nalpha   Nbeta   Ndocc  Nsocc
   -------------------------------------------------------
     A1        66      66       0       0       0       0
     A2        23      23       0       0       0       0
     B1        40      40       0       0       0       0
     B2        40      40       0       0       0       0
   -------------------------------------------------------
    Total     169     169      11      11      11       0
   -------------------------------------------------------

  ==> Integral Setup <==

  ==> DiskDFJK: Density-Fitted J/K Matrices <==

    J tasked:                  Yes
    K tasked:                  Yes
    wK tasked:                 Yes
    Omega:               3.000E-01
    OpenMP threads:             24
    Integrals threads:          24
    Memory [MiB]:           102788
    Algorithm:                Core
    Integral Cache:           NONE
    Schwarz Cutoff:          1E-12
    Fitting Condition:       1E-10

   => Auxiliary Basis Set <=

  Basis Set: (AUG-CC-PV(Q+D)Z AUX)
    Blend: AUG-CC-PVQZ-JKFIT
    Number of shells: 80
    Number of basis function: 326
    Number of Cartesian functions: 445
    Spherical Harmonics?: true
    Max angular momentum: 5

  Cached 100.0% of DFT collocation blocks in 0.203 [GiB].

  Minimum eigenvalue in the overlap matrix is 3.7871550868E-05.
  Using Symmetric Orthogonalization.

  SCF Guess: Superposition of Atomic Densities via on-the-fly atomic UHF.

  ==> Iterations <==

                           Total Energy        Delta E     RMS |[F,P]|

   @DF-RKS iter SAD:  -435.57774199803214   -4.35578e+02   0.00000e+00 
   @DF-RKS iter   1:  -436.12630434538141   -5.48562e-01   3.54137e-03 DIIS
   @DF-RKS iter   2:  -436.11618121845470    1.01231e-02   3.59742e-03 DIIS
   @DF-RKS iter   3:  -436.17169994939479   -5.55187e-02   6.89677e-04 DIIS
   @DF-RKS iter   4:  -436.17331635168847   -1.61640e-03   9.50877e-05 DIIS
   @DF-RKS iter   5:  -436.17337812716255   -6.17755e-05   2.82436e-05 DIIS
   @DF-RKS iter   6:  -436.17338321124709   -5.08408e-06   1.18040e-05 DIIS
   @DF-RKS iter   7:  -436.17338445639655   -1.24515e-06   1.43890e-06 DIIS
   @DF-RKS iter   8:  -436.17338449374239   -3.73458e-08   1.75599e-07 DIIS
   @DF-RKS iter   9:  -436.17338449420419   -4.61796e-10   2.55225e-08 DIIS
   @DF-RKS iter  10:  -436.17338449421408   -9.89075e-12   4.18254e-09 DIIS
  Energy and wave function converged.


  ==> Post-Iterations <==

    Orbital Energies [Eh]
    ---------------------

    Doubly Occupied:                                                      

       1A1   -88.939823     2A1   -10.379096     3A1    -8.099005  
       1B1    -6.052222     1B2    -6.052222     4A1    -6.050887  
       5A1    -0.965171     6A1    -0.638108     2B1    -0.456600  
       2B2    -0.456600     7A1    -0.422389  

    Virtual:                                                              

       3B1    -0.004961     3B2    -0.004961     8A1     0.047307  
       9A1     0.077295     4B1     0.078185     4B2     0.078185  
      10A1     0.092564     5B1     0.102810     5B2     0.102810  
      11A1     0.153049    12A1     0.175536     1A2     0.175536  
      13A1     0.202767     6B1     0.256004     6B2     0.256004  
      14A1     0.274602     2A2     0.281591    15A1     0.281592  
       7B2     0.288041     7B1     0.288041    16A1     0.310336  
       8B1     0.361436     8B2     0.361436    17A1     0.425574  
      18A1     0.439453     3A2     0.439453    19A1     0.476521  
      20A1     0.494534     9B1     0.501478     9B2     0.501478  
      10B2     0.517411    10B1     0.517411    11B1     0.529468  
      11B2     0.529468    21A1     0.585330     4A2     0.585332  
      22A1     0.645164    12B1     0.701423    12B2     0.701423  
      23A1     0.773468     5A2     0.788524    24A1     0.788525  
      13B1     0.804004    13B2     0.804004    14B2     0.877933  
      14B1     0.877933    25A1     0.932783    26A1     0.993839  
       6A2     0.993969    27A1     0.993972    28A1     1.052080  
      15B1     1.119857    15B2     1.119857     7A2     1.167932  
      29A1     1.167932    16B1     1.269207    16B2     1.269207  
      30A1     1.284040    17B1     1.362273    17B2     1.362273  
       8A2     1.375718    31A1     1.375720    18B1     1.383934  
      18B2     1.383934    32A1     1.457465     9A2     1.457468  
      19B1     1.476113    19B2     1.476113    20B1     1.499232  
      20B2     1.499232    33A1     1.521320    34A1     1.663254  
      21B1     1.709121    21B2     1.709121    35A1     1.764524  
      10A2     1.764526    36A1     1.960353    37A1     2.070591  
      38A1     2.096216    11A2     2.096227    39A1     2.122248  
      12A2     2.122258    22B1     2.154826    22B2     2.154826  
      40A1     2.167590    23B2     2.203452    23B1     2.203452  
      24B2     2.315123    24B1     2.315123    13A2     2.376380  
      41A1     2.376393    42A1     2.398463    25B1     2.402358  
      25B2     2.402358    43A1     2.604428    26B1     2.685588  
      26B2     2.685588    14A2     2.766821    44A1     2.766831  
      27B1     2.831335    27B2     2.831335    45A1     2.857485  
      15A2     3.027608    46A1     3.027615    28B1     3.245565  
      28B2     3.245565    47A1     3.332341    29B1     3.436804  
      29B2     3.436804    16A2     3.498865    48A1     3.498866  
      17A2     3.610200    49A1     3.610216    30B1     3.667058  
      30B2     3.667058    50A1     3.754752    31B1     3.784071  
      31B2     3.784071    51A1     3.983113    52A1     3.992107  
      18A2     3.992113    53A1     4.310431    32B1     4.397092  
      32B2     4.397092    33B1     5.590276    33B2     5.590276  
      54A1     5.738565    19A2     5.738623    34B1     5.882904  
      34B2     5.882904    35B2     5.891138    35B1     5.891138  
      55A1     6.031870    20A2     6.031871    36B2     6.081939  
      36B1     6.081939    56A1     6.103507    37B2     6.245991  
      37B1     6.245991    21A2     6.302219    57A1     6.302219  
      58A1     6.347533    22A2     6.521555    59A1     6.521570  
      60A1     6.574637    38B2     6.825150    38B1     6.825150  
      61A1     7.216874    39B2     7.339524    39B1     7.339524  
      62A1     8.576630    63A1     8.806536    23A2     8.806572  
      40B1     9.057932    40B2     9.057932    64A1     9.619947  
      65A1    19.977388    66A1    21.129566  

    Final Occupation by Irrep:
             A1    A2    B1    B2 
    DOCC [     7,    0,    2,    2 ]

  @DF-RKS Final Energy:  -436.17338449421408

   => Energetics <=

    Nuclear Repulsion Energy =             32.9357288486770017
    One-Electron Energy =                -665.5177269842237138
    Two-Electron Energy =                 219.3642300689932085
    DFT Exchange-Correlation Energy =     -23.0476842576554795
    Empirical Dispersion Energy =           0.0000000000000000
    VV10 Nonlocal Energy =                  0.0920678299948430
    Total Energy =                       -436.1733844942140763

Computation Completed


Properties will be evaluated at   0.000000,   0.000000,   0.000000 [a0]

Properties computed using the SCF density matrix

  Nuclear Dipole Moment: [e a0]
     X:     0.0000      Y:     0.0000      Z:     0.0111

  Electronic Dipole Moment: [e a0]
     X:     0.0000      Y:     0.0000      Z:     0.7294

  Dipole Moment: [e a0]
     X:     0.0000      Y:     0.0000      Z:     0.7405     Total:     0.7405

  Dipole Moment: [D]
     X:     0.0000      Y:     0.0000      Z:     1.8822     Total:     1.8822


*** tstop() called on bp1-compute00047.data.bp.acrc.priv at Tue Apr 27 16:35:42 2021
Module time:
	user time   =      86.10 seconds =       1.44 minutes
	system time =       3.77 seconds =       0.06 minutes
	total time  =          4 seconds =       0.07 minutes
Total time:
	user time   =     168.50 seconds =       2.81 minutes
	system time =       7.55 seconds =       0.13 minutes
	total time  =          8 seconds =       0.13 minutes

  //>>>>>>>>>>>>>>>>>>>>>>>>>>>>>>>>>>>//
  //    Loading displacement 3 of 3    //
  //<<<<<<<<<<<<<<<<<<<<<<<<<<<<<<<<<<<//

*** tstart() called on bp1-compute00047.data.bp.acrc.priv
*** at Tue Apr 27 16:35:42 2021

   => Loading Basis Set <=

    Name: AUG-CC-PV(Q+D)Z
    Role: ORBITAL
    Keyword: BASIS
    atoms 1 entry C          line   319 file /work/zw18965/.conda/envs/p4env/share/psi4/basis/aug-cc-pv_qpd_z.gbs 
    atoms 2 entry S          line  1148 file /work/zw18965/.conda/envs/p4env/share/psi4/basis/aug-cc-pv_qpd_z.gbs 


         ---------------------------------------------------------
                                   SCF
               by Justin Turney, Rob Parrish, Andy Simmonett
                          and Daniel G. A. Smith
                              RKS Reference
                       24 Threads, 137329 MiB Core
         ---------------------------------------------------------

  ==> Geometry <==

    Molecular point group: c2v
    Full point group: C_inf_v

    Geometry (in Angstrom), charge = 0, multiplicity = 1:

       Center              X                  Y                   Z               Mass       
    ------------   -----------------  -----------------  -----------------  -----------------
         C            0.000000000000     0.000000000000    -1.120196528169    12.000000000000
         S            0.000000000000     0.000000000000     0.420440648487    31.972071174400

  Running in c2v symmetry.

  Rotational constants: A = ************  B =      0.81399  C =      0.81399 [cm^-1]
  Rotational constants: A = ************  B =  24402.89535  C =  24402.89535 [MHz]
  Nuclear repulsion =   32.974027236302241

  Charge       = 0
  Multiplicity = 1
  Electrons    = 22
  Nalpha       = 11
  Nbeta        = 11

  ==> Algorithm <==

  SCF Algorithm Type is DF.
  DIIS enabled.
  MOM disabled.
  Fractional occupation disabled.
  Guess Type is SAD.
  Energy threshold   = 1.00e-08
  Density threshold  = 1.00e-08
  Integral threshold = 0.00e+00

  ==> Primary Basis <==

  Basis Set: AUG-CC-PV(Q+D)Z
    Blend: AUG-CC-PV(Q+D)Z
    Number of shells: 43
    Number of basis function: 169
    Number of Cartesian functions: 220
    Spherical Harmonics?: true
    Max angular momentum: 4

  ==> DFT Potential <==

   => Composite Functional: WB97X-V <= 

    wB97X-V Hyb-GGA Exchange-Correlation Functional

    N. Mardirossian and M. Head-Gordon, Phys. Chem. Chem. Phys. 16, 9904 (2014)

    Deriv               =              1
    GGA                 =           TRUE
    Meta                =          FALSE

    Exchange Hybrid     =           TRUE
    MP2 Hybrid          =          FALSE

   => Exchange-Correlation Functionals <=

    1.0000   wB97X-V range-separated functional

   => Exact (HF) Exchange <=

    0.8330            HF,LR [omega = 0.3000]
    0.1670               HF 

   => VV10 Non-Local Parameters <=

    VV10 B              =     6.0000E+00
    VV10 C              =     1.0000E-02

   => Molecular Quadrature <=

    Radial Scheme          =       TREUTLER
    Pruning Scheme         =           FLAT
    Nuclear Scheme         =       TREUTLER

    BS radius alpha        =              1
    Pruning alpha          =              1
    Radial Points          =             75
    Spherical Points       =            302
    Total Points           =          45300
    Total Blocks           =            427
    Max Points             =            254
    Max Functions          =            169

   => Loading Basis Set <=

    Name: (AUG-CC-PV(Q+D)Z AUX)
    Role: JKFIT
    Keyword: DF_BASIS_SCF
    atoms 1 entry C          line   178 file /work/zw18965/.conda/envs/p4env/share/psi4/basis/aug-cc-pvqz-jkfit.gbs 
    atoms 2 entry S          line   810 file /work/zw18965/.conda/envs/p4env/share/psi4/basis/aug-cc-pvqz-jkfit.gbs 

  ==> Pre-Iterations <==

   -------------------------------------------------------
    Irrep   Nso     Nmo     Nalpha   Nbeta   Ndocc  Nsocc
   -------------------------------------------------------
     A1        66      66       0       0       0       0
     A2        23      23       0       0       0       0
     B1        40      40       0       0       0       0
     B2        40      40       0       0       0       0
   -------------------------------------------------------
    Total     169     169      11      11      11       0
   -------------------------------------------------------

  ==> Integral Setup <==

  ==> DiskDFJK: Density-Fitted J/K Matrices <==

    J tasked:                  Yes
    K tasked:                  Yes
    wK tasked:                 Yes
    Omega:               3.000E-01
    OpenMP threads:             24
    Integrals threads:          24
    Memory [MiB]:           102788
    Algorithm:                Core
    Integral Cache:           NONE
    Schwarz Cutoff:          1E-12
    Fitting Condition:       1E-10

   => Auxiliary Basis Set <=

  Basis Set: (AUG-CC-PV(Q+D)Z AUX)
    Blend: AUG-CC-PVQZ-JKFIT
    Number of shells: 80
    Number of basis function: 326
    Number of Cartesian functions: 445
    Spherical Harmonics?: true
    Max angular momentum: 5

  Cached 100.0% of DFT collocation blocks in 0.203 [GiB].

  Minimum eigenvalue in the overlap matrix is 3.7696993725E-05.
  Using Symmetric Orthogonalization.

  SCF Guess: Superposition of Atomic Densities via on-the-fly atomic UHF.

  ==> Iterations <==

                           Total Energy        Delta E     RMS |[F,P]|

   @DF-RKS iter SAD:  -435.58030422174613   -4.35580e+02   0.00000e+00 
   @DF-RKS iter   1:  -436.12589966992294   -5.45595e-01   3.55847e-03 DIIS
   @DF-RKS iter   2:  -436.11565689359031    1.02428e-02   3.61737e-03 DIIS
   @DF-RKS iter   3:  -436.17178614168665   -5.61292e-02   6.87644e-04 DIIS
   @DF-RKS iter   4:  -436.17338894276600   -1.60280e-03   9.50559e-05 DIIS
   @DF-RKS iter   5:  -436.17345053491346   -6.15921e-05   2.82072e-05 DIIS
   @DF-RKS iter   6:  -436.17345559081974   -5.05591e-06   1.17873e-05 DIIS
   @DF-RKS iter   7:  -436.17345682914777   -1.23833e-06   1.43446e-06 DIIS
   @DF-RKS iter   8:  -436.17345686624589   -3.70981e-08   1.75268e-07 DIIS
   @DF-RKS iter   9:  -436.17345686670581   -4.59920e-10   2.54993e-08 DIIS
   @DF-RKS iter  10:  -436.17345686671553   -9.72022e-12   4.17310e-09 DIIS
  Energy and wave function converged.


  ==> Post-Iterations <==

    Orbital Energies [Eh]
    ---------------------

    Doubly Occupied:                                                      

       1A1   -88.939701     2A1   -10.378562     3A1    -8.098979  
       1B1    -6.052192     1B2    -6.052192     4A1    -6.050850  
       5A1    -0.965665     6A1    -0.638007     2B2    -0.456903  
       2B1    -0.456903     7A1    -0.422227  

    Virtual:                                                              

       3B2    -0.004706     3B1    -0.004706     8A1     0.047290  
       9A1     0.077341     4B1     0.078168     4B2     0.078168  
      10A1     0.092564     5B1     0.102817     5B2     0.102817  
      11A1     0.153118    12A1     0.175515     1A2     0.175515  
      13A1     0.202810     6B1     0.256044     6B2     0.256044  
      14A1     0.274714     2A2     0.281622    15A1     0.281623  
       7B1     0.288039     7B2     0.288039    16A1     0.310550  
       8B1     0.361366     8B2     0.361366    17A1     0.425474  
      18A1     0.439357     3A2     0.439357    19A1     0.476531  
      20A1     0.494786     9B1     0.501624     9B2     0.501624  
      10B1     0.517374    10B2     0.517374    11B1     0.529674  
      11B2     0.529674    21A1     0.585316     4A2     0.585318  
      22A1     0.645524    12B1     0.701564    12B2     0.701564  
      23A1     0.773778     5A2     0.788719    24A1     0.788720  
      13B2     0.804168    13B1     0.804168    14B2     0.878028  
      14B1     0.878028    25A1     0.933101    26A1     0.994231  
       6A2     0.994259    27A1     0.994262    28A1     1.052019  
      15B2     1.119800    15B1     1.119800     7A2     1.167774  
      29A1     1.167774    16B2     1.269644    16B1     1.269644  
      30A1     1.284426    17B1     1.361993    17B2     1.361993  
       8A2     1.375642    31A1     1.375644    18B1     1.383842  
      18B2     1.383842    32A1     1.457565     9A2     1.457568  
      19B1     1.476396    19B2     1.476396    20B2     1.499427  
      20B1     1.499427    33A1     1.521926    34A1     1.663792  
      21B2     1.709924    21B1     1.709924    35A1     1.764920  
      10A2     1.764922    36A1     1.959974    37A1     2.070724  
      38A1     2.096508    11A2     2.096519    39A1     2.122649  
      12A2     2.122659    22B2     2.155146    22B1     2.155146  
      40A1     2.167724    23B2     2.203721    23B1     2.203721  
      24B2     2.315500    24B1     2.315500    13A2     2.376900  
      41A1     2.376912    42A1     2.399197    25B1     2.403298  
      25B2     2.403298    43A1     2.604973    26B2     2.685762  
      26B1     2.685762    14A2     2.767027    44A1     2.767038  
      27B2     2.832831    27B1     2.832831    45A1     2.858891  
      15A2     3.028649    46A1     3.028656    28B2     3.246269  
      28B1     3.246269    47A1     3.333236    29B2     3.436643  
      29B1     3.436643    16A2     3.499005    48A1     3.499006  
      17A2     3.610062    49A1     3.610078    30B1     3.667241  
      30B2     3.667241    50A1     3.758058    31B1     3.784738  
      31B2     3.784738    51A1     3.983856    52A1     3.993685  
      18A2     3.993691    53A1     4.310572    32B2     4.398159  
      32B1     4.398159    33B2     5.592137    33B1     5.592137  
      54A1     5.738821    19A2     5.738878    34B1     5.883679  
      34B2     5.883679    35B2     5.891991    35B1     5.891991  
      55A1     6.032463    20A2     6.032464    36B2     6.082279  
      36B1     6.082279    56A1     6.103348    37B2     6.246360  
      37B1     6.246360    21A2     6.303607    57A1     6.303607  
      58A1     6.348835    22A2     6.523085    59A1     6.523100  
      60A1     6.577135    38B2     6.827083    38B1     6.827083  
      61A1     7.220325    39B2     7.344262    39B1     7.344262  
      62A1     8.578553    63A1     8.806690    23A2     8.806727  
      40B2     9.058677    40B1     9.058677    64A1     9.624348  
      65A1    19.992086    66A1    21.134269  

    Final Occupation by Irrep:
             A1    A2    B1    B2 
    DOCC [     7,    0,    2,    2 ]

  @DF-RKS Final Energy:  -436.17345686671553

   => Energetics <=

    Nuclear Repulsion Energy =             32.9740272363022413
    One-Electron Energy =                -665.5937791795053045
    Two-Electron Energy =                 219.4028341986823136
    DFT Exchange-Correlation Energy =     -23.0486063043759231
    Empirical Dispersion Energy =           0.0000000000000000
    VV10 Nonlocal Energy =                  0.0920671821811577
    Total Energy =                       -436.1734568667155258

Computation Completed


Properties will be evaluated at   0.000000,   0.000000,   0.000000 [a0]

Properties computed using the SCF density matrix

  Nuclear Dipole Moment: [e a0]
     X:     0.0000      Y:     0.0000      Z:     0.0111

  Electronic Dipole Moment: [e a0]
     X:     0.0000      Y:     0.0000      Z:     0.7327

  Dipole Moment: [e a0]
     X:     0.0000      Y:     0.0000      Z:     0.7438     Total:     0.7438

  Dipole Moment: [D]
     X:     0.0000      Y:     0.0000      Z:     1.8905     Total:     1.8905


*** tstop() called on bp1-compute00047.data.bp.acrc.priv at Tue Apr 27 16:35:46 2021
Module time:
	user time   =      81.02 seconds =       1.35 minutes
	system time =       2.62 seconds =       0.04 minutes
	total time  =          4 seconds =       0.07 minutes
Total time:
	user time   =     249.66 seconds =       4.16 minutes
	system time =      10.18 seconds =       0.17 minutes
	total time  =         12 seconds =       0.20 minutes

         ----------------------------------------------------------
                                   FINDIF
                     R. A. King and Jonathon Misiewicz
         ---------------------------------------------------------

  Computing gradient from energies.
    Using 3-point formula.
    Energy without displacement: -436.1734214764
    Check energies below for precision!
    Forces are for mass-weighted, symmetry-adapted cartesians (in au).

     Coord      Energy(-1)        Energy(+1)            Force
        0   -436.1733844942   -436.1734568667     -0.0072372501


-------------------------------------------------------------
  ## New Matrix (Symmetry 0) ##
  Irrep: 1 Size: 2 x 3

                 1                   2                   3

    1     0.00000000000000     0.00000000000000    -0.02137770752619
    2     0.00000000000000     0.00000000000000     0.02137770752619




			-----------------------------------------
			 OPTKING 2.0: for geometry optimizations 
			  - R.A. King,  Bethel University        
			-----------------------------------------
	At level 1: Red. Int., RFO, no backsteps, dynamic trust

	Internal coordinates to be generated automatically.
	Detected frag 1 with atoms:  1 2
	---Fragment 1 Bond Connectivity---
	 1 : 2
	 2 : 1

	---Fragment 1 Geometry and Gradient---
	 C           0.0000000000        0.0000000000       -2.1180954132
	 S           0.0000000000        0.0000000000        0.7949796189
	             0.0000000000        0.0000000000       -0.0213777075
	             0.0000000000        0.0000000000        0.0213777075

	Previous optimization step data not found.  Starting new optimization.

	---Fragment 1 Intrafragment Coordinates---
	 - Coordinate -           - BOHR/RAD -       - ANG/DEG -
	 R(1,2)           =         2.913075	       1.541533

	Current energy   :      -436.1734214764

	Generating empirical Hessian (Schlegel '84) for each fragment.
	Taking RFO optimization step.
	Going to follow RFO solution 1.
	Using RFO vector 1.
	Norm of target step-size    0.03315
	Projected energy change by RFO approximation:        -0.0001590326

	Back-transformation to cartesian coordinates...
	Successfully converged to displaced geometry.

	--- Internal Coordinate Step in ANG or DEG, aJ/ANG or AJ/DEG ---
	 ---------------------------------------------------------------------------
	   Coordinate                Previous        Force       Change         New 
	   ----------                --------       ------       ------       ------
	    1 R(1,2)          =      1.541533    -0.176125    -0.017542     1.523991
	 ---------------------------------------------------------------------------
	Successfully symmetrized geometry.

  ==> Convergence Check <==

  Measures of convergence in internal coordinates in au.
  Criteria marked as inactive (o), active & met (*), and active & unmet ( ).
  --------------------------------------------------------------------------------------------- ~
   Step     Total Energy     Delta E     MAX Force     RMS Force      MAX Disp      RMS Disp    ~
  --------------------------------------------------------------------------------------------- ~
    Convergence Criteria    1.00e-06 *    3.00e-04 *             o    1.20e-03 *             o  ~
  --------------------------------------------------------------------------------------------- ~
      1    -436.17342148   -4.36e+02      2.14e-02      2.14e-02 o    3.32e-02      3.32e-02 o  ~
  ---------------------------------------------------------------------------------------------

	Writing optimization data to binary file.
	Structure for next step:
	Cartesian Geometry (in Angstrom)
	    C     0.0000000000   0.0000000000  -1.1120766526
	    S     0.0000000000   0.0000000000   0.4119139299
			--------------------------
			 OPTKING Finished Execution 
			--------------------------

    Structure for next step:
    Molecular point group: c2v
    Full point group: C_inf_v

    Geometry (in Angstrom), charge = 0, multiplicity = 1:

    C            0.000000000000     0.000000000000    -1.108092802166
    S            0.000000000000     0.000000000000     0.415897786336

gradient() will perform gradient computation by finite difference of analytic energies.

         ----------------------------------------------------------
                                   FINDIF
                     R. A. King and Jonathon Misiewicz
         ---------------------------------------------------------

  Using finite-differences of energies to determine gradients.
    Generating geometries for use with 3-point formula.
    Displacement size will be 5.00e-03.
    Number of atoms is 2.
    Number of symmetric SALCs is 1.
    Translations projected? 1. Rotations projected? 1.
    Number of geometries (including reference) is 3.

  //>>>>>>>>>>>>>>>>>>>>>>>>>>>>>>>>>>>//
  //    Loading displacement 1 of 3    //
  //<<<<<<<<<<<<<<<<<<<<<<<<<<<<<<<<<<<//

*** tstart() called on bp1-compute00047.data.bp.acrc.priv
*** at Tue Apr 27 16:35:46 2021

   => Loading Basis Set <=

    Name: AUG-CC-PV(Q+D)Z
    Role: ORBITAL
    Keyword: BASIS
    atoms 1 entry C          line   319 file /work/zw18965/.conda/envs/p4env/share/psi4/basis/aug-cc-pv_qpd_z.gbs 
    atoms 2 entry S          line  1148 file /work/zw18965/.conda/envs/p4env/share/psi4/basis/aug-cc-pv_qpd_z.gbs 


         ---------------------------------------------------------
                                   SCF
               by Justin Turney, Rob Parrish, Andy Simmonett
                          and Daniel G. A. Smith
                              RKS Reference
                       24 Threads, 137329 MiB Core
         ---------------------------------------------------------

  ==> Geometry <==

    Molecular point group: c2v
    Full point group: C_inf_v

    Geometry (in Angstrom), charge = 0, multiplicity = 1:

       Center              X                  Y                   Z               Mass       
    ------------   -----------------  -----------------  -----------------  -----------------
         C            0.000000000000     0.000000000000    -1.108092802166    12.000000000000
         S            0.000000000000     0.000000000000     0.415897786336    31.972071174400

  Running in c2v symmetry.

  Rotational constants: A = ************  B =      0.83187  C =      0.83187 [cm^-1]
  Rotational constants: A = ************  B =  24938.91382  C =  24938.91382 [MHz]
  Nuclear repulsion =   33.334203378681977

  Charge       = 0
  Multiplicity = 1
  Electrons    = 22
  Nalpha       = 11
  Nbeta        = 11

  ==> Algorithm <==

  SCF Algorithm Type is DF.
  DIIS enabled.
  MOM disabled.
  Fractional occupation disabled.
  Guess Type is READ.
  Energy threshold   = 1.00e-08
  Density threshold  = 1.00e-08
  Integral threshold = 0.00e+00

  ==> Primary Basis <==

  Basis Set: AUG-CC-PV(Q+D)Z
    Blend: AUG-CC-PV(Q+D)Z
    Number of shells: 43
    Number of basis function: 169
    Number of Cartesian functions: 220
    Spherical Harmonics?: true
    Max angular momentum: 4

  ==> DFT Potential <==

   => Composite Functional: WB97X-V <= 

    wB97X-V Hyb-GGA Exchange-Correlation Functional

    N. Mardirossian and M. Head-Gordon, Phys. Chem. Chem. Phys. 16, 9904 (2014)

    Deriv               =              1
    GGA                 =           TRUE
    Meta                =          FALSE

    Exchange Hybrid     =           TRUE
    MP2 Hybrid          =          FALSE

   => Exchange-Correlation Functionals <=

    1.0000   wB97X-V range-separated functional

   => Exact (HF) Exchange <=

    0.8330            HF,LR [omega = 0.3000]
    0.1670               HF 

   => VV10 Non-Local Parameters <=

    VV10 B              =     6.0000E+00
    VV10 C              =     1.0000E-02

   => Molecular Quadrature <=

    Radial Scheme          =       TREUTLER
    Pruning Scheme         =           FLAT
    Nuclear Scheme         =       TREUTLER

    BS radius alpha        =              1
    Pruning alpha          =              1
    Radial Points          =             75
    Spherical Points       =            302
    Total Points           =          45300
    Total Blocks           =            427
    Max Points             =            254
    Max Functions          =            169

   => Loading Basis Set <=

    Name: (AUG-CC-PV(Q+D)Z AUX)
    Role: JKFIT
    Keyword: DF_BASIS_SCF
    atoms 1 entry C          line   178 file /work/zw18965/.conda/envs/p4env/share/psi4/basis/aug-cc-pvqz-jkfit.gbs 
    atoms 2 entry S          line   810 file /work/zw18965/.conda/envs/p4env/share/psi4/basis/aug-cc-pvqz-jkfit.gbs 

   => Loading Basis Set <=

    Name: AUG-CC-PV(Q+D)Z
    Role: ORBITAL
    Keyword: BASIS
    atoms 1 entry C          line   319 file /work/zw18965/.conda/envs/p4env/share/psi4/basis/aug-cc-pv_qpd_z.gbs 
    atoms 2 entry S          line  1148 file /work/zw18965/.conda/envs/p4env/share/psi4/basis/aug-cc-pv_qpd_z.gbs 

  Reading orbitals from file 180, no projection.

  ==> Pre-Iterations <==

   -------------------------------------------------------
    Irrep   Nso     Nmo     Nalpha   Nbeta   Ndocc  Nsocc
   -------------------------------------------------------
     A1        66      66       0       0       0       0
     A2        23      23       0       0       0       0
     B1        40      40       0       0       0       0
     B2        40      40       0       0       0       0
   -------------------------------------------------------
    Total     169     169      11      11      11       0
   -------------------------------------------------------

  ==> Integral Setup <==

  ==> DiskDFJK: Density-Fitted J/K Matrices <==

    J tasked:                  Yes
    K tasked:                  Yes
    wK tasked:                 Yes
    Omega:               3.000E-01
    OpenMP threads:             24
    Integrals threads:          24
    Memory [MiB]:           102788
    Algorithm:                Core
    Integral Cache:           NONE
    Schwarz Cutoff:          1E-12
    Fitting Condition:       1E-10

   => Auxiliary Basis Set <=

  Basis Set: (AUG-CC-PV(Q+D)Z AUX)
    Blend: AUG-CC-PVQZ-JKFIT
    Number of shells: 80
    Number of basis function: 326
    Number of Cartesian functions: 445
    Spherical Harmonics?: true
    Max angular momentum: 5

  Cached 100.0% of DFT collocation blocks in 0.203 [GiB].

  Minimum eigenvalue in the overlap matrix is 3.6120163012E-05.
  Using Symmetric Orthogonalization.

  SCF Guess: Orbitals guess was supplied from a previous computation.

  ==> Iterations <==

                           Total Energy        Delta E     RMS |[F,P]|

   @DF-RKS iter   0:  -436.19235121035797   -4.36192e+02   7.38296e-04 
   @DF-RKS iter   1:  -436.17376557515666    1.85856e-02   1.01148e-04 DIIS
   @DF-RKS iter   2:  -436.17375421152138    1.13636e-05   1.20567e-04 DIIS
   @DF-RKS iter   3:  -436.17381374627058   -5.95347e-05   1.47882e-05 DIIS
   @DF-RKS iter   4:  -436.17381444985949   -7.03589e-07   2.28716e-06 DIIS
   @DF-RKS iter   5:  -436.17381449108382   -4.12243e-08   8.18086e-07 DIIS
   @DF-RKS iter   6:  -436.17381449717828   -6.09447e-09   9.92256e-08 DIIS
   @DF-RKS iter   7:  -436.17381449731539   -1.37106e-10   1.71230e-08 DIIS
   @DF-RKS iter   8:  -436.17381449731857   -3.18323e-12   3.71745e-09 DIIS
  Energy and wave function converged.


  ==> Post-Iterations <==

    Orbital Energies [Eh]
    ---------------------

    Doubly Occupied:                                                      

       1A1   -88.938514     2A1   -10.373551     3A1    -8.098728  
       1B2    -6.051893     1B1    -6.051893     4A1    -6.050487  
       5A1    -0.970266     6A1    -0.637087     2B1    -0.459748  
       2B2    -0.459748     7A1    -0.420678  

    Virtual:                                                              

       3B1    -0.002345     3B2    -0.002345     8A1     0.047123  
       9A1     0.077775     4B1     0.078014     4B2     0.078014  
      10A1     0.092565     5B2     0.102884     5B1     0.102884  
      11A1     0.153713    12A1     0.175322     1A2     0.175322  
      13A1     0.203185     6B2     0.256415     6B1     0.256415  
      14A1     0.275753     2A2     0.281903    15A1     0.281904  
       7B2     0.288012     7B1     0.288012    16A1     0.312522  
       8B1     0.360721     8B2     0.360721    17A1     0.424545  
      18A1     0.438462     3A2     0.438462    19A1     0.476613  
      20A1     0.497150     9B2     0.502980     9B1     0.502980  
      10B1     0.517035    10B2     0.517035    11B2     0.531623  
      11B1     0.531623    21A1     0.585183     4A2     0.585186  
      22A1     0.648872    12B2     0.702889    12B1     0.702889  
      23A1     0.776619     5A2     0.790525    24A1     0.790526  
      13B1     0.805694    13B2     0.805694    14B2     0.878915  
      14B1     0.878915    25A1     0.935853     6A2     0.996957  
      26A1     0.996960    27A1     0.997796    28A1     1.051788  
      15B2     1.119260    15B1     1.119260    29A1     1.166291  
       7A2     1.166291    16B2     1.273777    16B1     1.273777  
      30A1     1.288322    17B2     1.359358    17B1     1.359358  
       8A2     1.374944    31A1     1.374945    18B1     1.382987  
      18B2     1.382987    32A1     1.458487     9A2     1.458489  
      19B2     1.478936    19B1     1.478936    20B1     1.501242  
      20B2     1.501242    33A1     1.527740    34A1     1.668810  
      21B2     1.717616    21B1     1.717616    35A1     1.768582  
      10A2     1.768585    36A1     1.956249    37A1     2.071814  
      38A1     2.099257    11A2     2.099268    39A1     2.126403  
      12A2     2.126412    22B2     2.157950    22B1     2.157950  
      40A1     2.169123    23B2     2.206235    23B1     2.206235  
      24B2     2.318986    24B1     2.318986    13A2     2.381783  
      41A1     2.381795    42A1     2.406170    25B1     2.412121  
      25B2     2.412121    43A1     2.609880    26B2     2.687125  
      26B1     2.687125    14A2     2.768860    44A1     2.768871  
      27B2     2.847107    27B1     2.847107    45A1     2.872476  
      15A2     3.038223    46A1     3.038230    28B2     3.253105  
      28B1     3.253105    47A1     3.341028    29B1     3.435115  
      29B2     3.435115    16A2     3.500533    48A1     3.500534  
      17A2     3.608764    49A1     3.608779    30B1     3.669073  
      30B2     3.669073    50A1     3.789277    31B1     3.791034  
      31B2     3.791034    51A1     3.988522    52A1     4.008648  
      18A2     4.008654    53A1     4.315232    32B2     4.407618  
      32B1     4.407618    33B2     5.609576    33B1     5.609576  
      54A1     5.741208    19A2     5.741257    34B2     5.891038  
      34B1     5.891038    35B2     5.900582    35B1     5.900582  
      55A1     6.037891    20A2     6.037897    36B2     6.085256  
      36B1     6.085256    56A1     6.100842    37B2     6.249815  
      37B1     6.249815    57A1     6.316830    21A2     6.316830  
      58A1     6.357098    22A2     6.537526    59A1     6.537541  
      60A1     6.604484    38B2     6.844928    38B1     6.844928  
      61A1     7.253891    39B2     7.388806    39B1     7.388806  
      62A1     8.594415    63A1     8.808193    23A2     8.808233  
      40B2     9.066365    40B1     9.066365    64A1     9.665090  
      65A1    20.131600    66A1    21.182579  

    Final Occupation by Irrep:
             A1    A2    B1    B2 
    DOCC [     7,    0,    2,    2 ]

  @DF-RKS Final Energy:  -436.17381449731857

   => Energetics <=

    Nuclear Repulsion Energy =             33.3342033786819769
    One-Electron Energy =                -666.3085933643970975
    Two-Electron Energy =                 219.7658399470133475
    DFT Exchange-Correlation Energy =     -23.0573257234847873
    Empirical Dispersion Energy =           0.0000000000000000
    VV10 Nonlocal Energy =                  0.0920612648679611
    Total Energy =                       -436.1738144973186309

Computation Completed


Properties will be evaluated at   0.000000,   0.000000,   0.000000 [a0]

Properties computed using the SCF density matrix

  Nuclear Dipole Moment: [e a0]
     X:     0.0000      Y:     0.0000      Z:     0.0110

  Electronic Dipole Moment: [e a0]
     X:     0.0000      Y:     0.0000      Z:     0.7630

  Dipole Moment: [e a0]
     X:     0.0000      Y:     0.0000      Z:     0.7740     Total:     0.7740

  Dipole Moment: [D]
     X:     0.0000      Y:     0.0000      Z:     1.9673     Total:     1.9673


*** tstop() called on bp1-compute00047.data.bp.acrc.priv at Tue Apr 27 16:35:49 2021
Module time:
	user time   =      60.46 seconds =       1.01 minutes
	system time =       1.95 seconds =       0.03 minutes
	total time  =          3 seconds =       0.05 minutes
Total time:
	user time   =     310.47 seconds =       5.17 minutes
	system time =      12.15 seconds =       0.20 minutes
	total time  =         15 seconds =       0.25 minutes

  //>>>>>>>>>>>>>>>>>>>>>>>>>>>>>>>>>>>//
  //    Loading displacement 2 of 3    //
  //<<<<<<<<<<<<<<<<<<<<<<<<<<<<<<<<<<<//

*** tstart() called on bp1-compute00047.data.bp.acrc.priv
*** at Tue Apr 27 16:35:49 2021

   => Loading Basis Set <=

    Name: AUG-CC-PV(Q+D)Z
    Role: ORBITAL
    Keyword: BASIS
    atoms 1 entry C          line   319 file /work/zw18965/.conda/envs/p4env/share/psi4/basis/aug-cc-pv_qpd_z.gbs 
    atoms 2 entry S          line  1148 file /work/zw18965/.conda/envs/p4env/share/psi4/basis/aug-cc-pv_qpd_z.gbs 


         ---------------------------------------------------------
                                   SCF
               by Justin Turney, Rob Parrish, Andy Simmonett
                          and Daniel G. A. Smith
                              RKS Reference
                       24 Threads, 137329 MiB Core
         ---------------------------------------------------------

  ==> Geometry <==

    Molecular point group: c2v
    Full point group: C_inf_v

    Geometry (in Angstrom), charge = 0, multiplicity = 1:

       Center              X                  Y                   Z               Mass       
    ------------   -----------------  -----------------  -----------------  -----------------
         C            0.000000000000     0.000000000000    -1.108744096708    12.000000000000
         S            0.000000000000     0.000000000000     0.416142235138    31.972071174400

  Running in c2v symmetry.

  Rotational constants: A = ************  B =      0.83090  C =      0.83090 [cm^-1]
  Rotational constants: A = ************  B =  24909.62337  C =  24909.62337 [MHz]
  Nuclear repulsion =   33.314622318654692

  Charge       = 0
  Multiplicity = 1
  Electrons    = 22
  Nalpha       = 11
  Nbeta        = 11

  ==> Algorithm <==

  SCF Algorithm Type is DF.
  DIIS enabled.
  MOM disabled.
  Fractional occupation disabled.
  Guess Type is READ.
  Energy threshold   = 1.00e-08
  Density threshold  = 1.00e-08
  Integral threshold = 0.00e+00

  ==> Primary Basis <==

  Basis Set: AUG-CC-PV(Q+D)Z
    Blend: AUG-CC-PV(Q+D)Z
    Number of shells: 43
    Number of basis function: 169
    Number of Cartesian functions: 220
    Spherical Harmonics?: true
    Max angular momentum: 4

  ==> DFT Potential <==

   => Composite Functional: WB97X-V <= 

    wB97X-V Hyb-GGA Exchange-Correlation Functional

    N. Mardirossian and M. Head-Gordon, Phys. Chem. Chem. Phys. 16, 9904 (2014)

    Deriv               =              1
    GGA                 =           TRUE
    Meta                =          FALSE

    Exchange Hybrid     =           TRUE
    MP2 Hybrid          =          FALSE

   => Exchange-Correlation Functionals <=

    1.0000   wB97X-V range-separated functional

   => Exact (HF) Exchange <=

    0.8330            HF,LR [omega = 0.3000]
    0.1670               HF 

   => VV10 Non-Local Parameters <=

    VV10 B              =     6.0000E+00
    VV10 C              =     1.0000E-02

   => Molecular Quadrature <=

    Radial Scheme          =       TREUTLER
    Pruning Scheme         =           FLAT
    Nuclear Scheme         =       TREUTLER

    BS radius alpha        =              1
    Pruning alpha          =              1
    Radial Points          =             75
    Spherical Points       =            302
    Total Points           =          45300
    Total Blocks           =            427
    Max Points             =            254
    Max Functions          =            169

   => Loading Basis Set <=

    Name: (AUG-CC-PV(Q+D)Z AUX)
    Role: JKFIT
    Keyword: DF_BASIS_SCF
    atoms 1 entry C          line   178 file /work/zw18965/.conda/envs/p4env/share/psi4/basis/aug-cc-pvqz-jkfit.gbs 
    atoms 2 entry S          line   810 file /work/zw18965/.conda/envs/p4env/share/psi4/basis/aug-cc-pvqz-jkfit.gbs 

   => Loading Basis Set <=

    Name: AUG-CC-PV(Q+D)Z
    Role: ORBITAL
    Keyword: BASIS
    atoms 1 entry C          line   319 file /work/zw18965/.conda/envs/p4env/share/psi4/basis/aug-cc-pv_qpd_z.gbs 
    atoms 2 entry S          line  1148 file /work/zw18965/.conda/envs/p4env/share/psi4/basis/aug-cc-pv_qpd_z.gbs 

  Reading orbitals from file 180, no projection.

  ==> Pre-Iterations <==

   -------------------------------------------------------
    Irrep   Nso     Nmo     Nalpha   Nbeta   Ndocc  Nsocc
   -------------------------------------------------------
     A1        66      66       0       0       0       0
     A2        23      23       0       0       0       0
     B1        40      40       0       0       0       0
     B2        40      40       0       0       0       0
   -------------------------------------------------------
    Total     169     169      11      11      11       0
   -------------------------------------------------------

  ==> Integral Setup <==

  ==> DiskDFJK: Density-Fitted J/K Matrices <==

    J tasked:                  Yes
    K tasked:                  Yes
    wK tasked:                 Yes
    Omega:               3.000E-01
    OpenMP threads:             24
    Integrals threads:          24
    Memory [MiB]:           102788
    Algorithm:                Core
    Integral Cache:           NONE
    Schwarz Cutoff:          1E-12
    Fitting Condition:       1E-10

   => Auxiliary Basis Set <=

  Basis Set: (AUG-CC-PV(Q+D)Z AUX)
    Blend: AUG-CC-PVQZ-JKFIT
    Number of shells: 80
    Number of basis function: 326
    Number of Cartesian functions: 445
    Spherical Harmonics?: true
    Max angular momentum: 5

  Cached 100.0% of DFT collocation blocks in 0.203 [GiB].

  Minimum eigenvalue in the overlap matrix is 3.6202972948E-05.
  Using Symmetric Orthogonalization.

  SCF Guess: Orbitals guess was supplied from a previous computation.

  ==> Iterations <==

                           Total Energy        Delta E     RMS |[F,P]|

   @DF-RKS iter   0:  -436.17288506964991   -4.36173e+02   3.80580e-05 
   @DF-RKS iter   1:  -436.17381005732364   -9.24988e-04   5.22254e-06 DIIS
   @DF-RKS iter   2:  -436.17381002515839    3.21652e-08   6.25720e-06 DIIS
   @DF-RKS iter   3:  -436.17381018560030   -1.60442e-07   7.59232e-07 DIIS
   @DF-RKS iter   4:  -436.17381018745795   -1.85764e-09   1.17744e-07 DIIS
   @DF-RKS iter   5:  -436.17381018756731   -1.09367e-10   4.27056e-08 DIIS
   @DF-RKS iter   6:  -436.17381018758374   -1.64277e-11   5.04582e-09 DIIS
  Energy and wave function converged.


  ==> Post-Iterations <==

    Orbital Energies [Eh]
    ---------------------

    Doubly Occupied:                                                      

       1A1   -88.938580     2A1   -10.373822     3A1    -8.098742  
       1B2    -6.051910     1B1    -6.051910     4A1    -6.050507  
       5A1    -0.970018     6A1    -0.637135     2B1    -0.459593  
       2B2    -0.459593     7A1    -0.420763  

    Virtual:                                                              

       3B2    -0.002471     3B1    -0.002471     8A1     0.047132  
       9A1     0.077751     4B2     0.078022     4B1     0.078022  
      10A1     0.092565     5B2     0.102880     5B1     0.102880  
      11A1     0.153683    12A1     0.175332     1A2     0.175332  
      13A1     0.203166     6B2     0.256395     6B1     0.256395  
      14A1     0.275698     2A2     0.281888    15A1     0.281889  
       7B2     0.288013     7B1     0.288013    16A1     0.312417  
       8B2     0.360756     8B1     0.360756    17A1     0.424595  
      18A1     0.438510     3A2     0.438510    19A1     0.476609  
      20A1     0.497022     9B2     0.502907     9B1     0.502907  
      10B2     0.517054    10B1     0.517054    11B2     0.531516  
      11B1     0.531516    21A1     0.585190     4A2     0.585193  
      22A1     0.648691    12B2     0.702817    12B1     0.702817  
      23A1     0.776468     5A2     0.790428    24A1     0.790429  
      13B1     0.805612    13B2     0.805612    14B1     0.878867  
      14B2     0.878867    25A1     0.935714     6A2     0.996812  
      26A1     0.996815    27A1     0.997609    28A1     1.051784  
      15B2     1.119290    15B1     1.119290    29A1     1.166371  
       7A2     1.166371    16B2     1.273551    16B1     1.273551  
      30A1     1.288098    17B2     1.359501    17B1     1.359501  
       8A2     1.374981    31A1     1.374982    18B1     1.383033  
      18B2     1.383033    32A1     1.458437     9A2     1.458440  
      19B2     1.478804    19B1     1.478804    20B2     1.501144  
      20B1     1.501144    33A1     1.527418    34A1     1.668539  
      21B2     1.717192    21B1     1.717192    35A1     1.768386  
      10A2     1.768388    36A1     1.956458    37A1     2.071763  
      38A1     2.099108    11A2     2.099118    39A1     2.126199  
      12A2     2.126209    22B2     2.157807    22B1     2.157807  
      40A1     2.169039    23B2     2.206099    23B1     2.206099  
      24B2     2.318799    24B1     2.318799    13A2     2.381517  
      41A1     2.381529    42A1     2.405788    25B1     2.411642  
      25B2     2.411642    43A1     2.609623    26B2     2.687064  
      26B1     2.687064    14A2     2.768765    44A1     2.768777  
      27B1     2.846322    27B2     2.846322    45A1     2.871722  
      15A2     3.037713    46A1     3.037720    28B1     3.252723  
      28B2     3.252723    47A1     3.340631    29B2     3.435198  
      29B1     3.435198    16A2     3.500441    48A1     3.500441  
      17A2     3.608834    49A1     3.608849    30B1     3.668968  
      30B2     3.668968    50A1     3.787578    31B2     3.790691  
      31B1     3.790691    51A1     3.988376    52A1     4.007829  
      18A2     4.007835    53A1     4.314824    32B1     4.407130  
      32B2     4.407130    33B1     5.608633    33B2     5.608633  
      54A1     5.741079    19A2     5.741129    34B2     5.890634  
      34B1     5.890634    35B1     5.900086    35B2     5.900086  
      55A1     6.037603    20A2     6.037608    36B2     6.085104  
      36B1     6.085104    56A1     6.101026    37B2     6.249628  
      37B1     6.249628    57A1     6.316103    21A2     6.316104  
      58A1     6.356819    22A2     6.536739    59A1     6.536753  
      60A1     6.602832    38B1     6.843973    38B2     6.843973  
      61A1     7.252014    39B1     7.386387    39B2     7.386387  
      62A1     8.593650    63A1     8.808109    23A2     8.808149  
      40B1     9.065914    40B2     9.065914    64A1     9.662912  
      65A1    20.123950    66A1    21.179775  

    Final Occupation by Irrep:
             A1    A2    B1    B2 
    DOCC [     7,    0,    2,    2 ]

  @DF-RKS Final Energy:  -436.17381018758374

   => Energetics <=

    Nuclear Repulsion Energy =             33.3146223186546919
    One-Electron Energy =                -666.2697528576985633
    Two-Electron Energy =                 219.7461083230226393
    DFT Exchange-Correlation Energy =     -23.0568495501430206
    Empirical Dispersion Energy =           0.0000000000000000
    VV10 Nonlocal Energy =                  0.0920615785805814
    Total Energy =                       -436.1738101875836833

Computation Completed


Properties will be evaluated at   0.000000,   0.000000,   0.000000 [a0]

Properties computed using the SCF density matrix

  Nuclear Dipole Moment: [e a0]
     X:     0.0000      Y:     0.0000      Z:     0.0110

  Electronic Dipole Moment: [e a0]
     X:     0.0000      Y:     0.0000      Z:     0.7614

  Dipole Moment: [e a0]
     X:     0.0000      Y:     0.0000      Z:     0.7724     Total:     0.7724

  Dipole Moment: [D]
     X:     0.0000      Y:     0.0000      Z:     1.9632     Total:     1.9632


*** tstop() called on bp1-compute00047.data.bp.acrc.priv at Tue Apr 27 16:35:52 2021
Module time:
	user time   =      59.73 seconds =       1.00 minutes
	system time =       3.28 seconds =       0.05 minutes
	total time  =          3 seconds =       0.05 minutes
Total time:
	user time   =     370.34 seconds =       6.17 minutes
	system time =      15.43 seconds =       0.26 minutes
	total time  =         18 seconds =       0.30 minutes

  //>>>>>>>>>>>>>>>>>>>>>>>>>>>>>>>>>>>//
  //    Loading displacement 3 of 3    //
  //<<<<<<<<<<<<<<<<<<<<<<<<<<<<<<<<<<<//

*** tstart() called on bp1-compute00047.data.bp.acrc.priv
*** at Tue Apr 27 16:35:52 2021

   => Loading Basis Set <=

    Name: AUG-CC-PV(Q+D)Z
    Role: ORBITAL
    Keyword: BASIS
    atoms 1 entry C          line   319 file /work/zw18965/.conda/envs/p4env/share/psi4/basis/aug-cc-pv_qpd_z.gbs 
    atoms 2 entry S          line  1148 file /work/zw18965/.conda/envs/p4env/share/psi4/basis/aug-cc-pv_qpd_z.gbs 


         ---------------------------------------------------------
                                   SCF
               by Justin Turney, Rob Parrish, Andy Simmonett
                          and Daniel G. A. Smith
                              RKS Reference
                       24 Threads, 137329 MiB Core
         ---------------------------------------------------------

  ==> Geometry <==

    Molecular point group: c2v
    Full point group: C_inf_v

    Geometry (in Angstrom), charge = 0, multiplicity = 1:

       Center              X                  Y                   Z               Mass       
    ------------   -----------------  -----------------  -----------------  -----------------
         C            0.000000000000     0.000000000000    -1.107441507625    12.000000000000
         S            0.000000000000     0.000000000000     0.415653337533    31.972071174400

  Running in c2v symmetry.

  Rotational constants: A = ************  B =      0.83285  C =      0.83285 [cm^-1]
  Rotational constants: A = ************  B =  24968.25596  C =  24968.25596 [MHz]
  Nuclear repulsion =   33.353807470241733

  Charge       = 0
  Multiplicity = 1
  Electrons    = 22
  Nalpha       = 11
  Nbeta        = 11

  ==> Algorithm <==

  SCF Algorithm Type is DF.
  DIIS enabled.
  MOM disabled.
  Fractional occupation disabled.
  Guess Type is READ.
  Energy threshold   = 1.00e-08
  Density threshold  = 1.00e-08
  Integral threshold = 0.00e+00

  ==> Primary Basis <==

  Basis Set: AUG-CC-PV(Q+D)Z
    Blend: AUG-CC-PV(Q+D)Z
    Number of shells: 43
    Number of basis function: 169
    Number of Cartesian functions: 220
    Spherical Harmonics?: true
    Max angular momentum: 4

  ==> DFT Potential <==

   => Composite Functional: WB97X-V <= 

    wB97X-V Hyb-GGA Exchange-Correlation Functional

    N. Mardirossian and M. Head-Gordon, Phys. Chem. Chem. Phys. 16, 9904 (2014)

    Deriv               =              1
    GGA                 =           TRUE
    Meta                =          FALSE

    Exchange Hybrid     =           TRUE
    MP2 Hybrid          =          FALSE

   => Exchange-Correlation Functionals <=

    1.0000   wB97X-V range-separated functional

   => Exact (HF) Exchange <=

    0.8330            HF,LR [omega = 0.3000]
    0.1670               HF 

   => VV10 Non-Local Parameters <=

    VV10 B              =     6.0000E+00
    VV10 C              =     1.0000E-02

   => Molecular Quadrature <=

    Radial Scheme          =       TREUTLER
    Pruning Scheme         =           FLAT
    Nuclear Scheme         =       TREUTLER

    BS radius alpha        =              1
    Pruning alpha          =              1
    Radial Points          =             75
    Spherical Points       =            302
    Total Points           =          45300
    Total Blocks           =            427
    Max Points             =            254
    Max Functions          =            169

   => Loading Basis Set <=

    Name: (AUG-CC-PV(Q+D)Z AUX)
    Role: JKFIT
    Keyword: DF_BASIS_SCF
    atoms 1 entry C          line   178 file /work/zw18965/.conda/envs/p4env/share/psi4/basis/aug-cc-pvqz-jkfit.gbs 
    atoms 2 entry S          line   810 file /work/zw18965/.conda/envs/p4env/share/psi4/basis/aug-cc-pvqz-jkfit.gbs 

   => Loading Basis Set <=

    Name: AUG-CC-PV(Q+D)Z
    Role: ORBITAL
    Keyword: BASIS
    atoms 1 entry C          line   319 file /work/zw18965/.conda/envs/p4env/share/psi4/basis/aug-cc-pv_qpd_z.gbs 
    atoms 2 entry S          line  1148 file /work/zw18965/.conda/envs/p4env/share/psi4/basis/aug-cc-pv_qpd_z.gbs 

  Reading orbitals from file 180, no projection.

  ==> Pre-Iterations <==

   -------------------------------------------------------
    Irrep   Nso     Nmo     Nalpha   Nbeta   Ndocc  Nsocc
   -------------------------------------------------------
     A1        66      66       0       0       0       0
     A2        23      23       0       0       0       0
     B1        40      40       0       0       0       0
     B2        40      40       0       0       0       0
   -------------------------------------------------------
    Total     169     169      11      11      11       0
   -------------------------------------------------------

  ==> Integral Setup <==

  ==> DiskDFJK: Density-Fitted J/K Matrices <==

    J tasked:                  Yes
    K tasked:                  Yes
    wK tasked:                 Yes
    Omega:               3.000E-01
    OpenMP threads:             24
    Integrals threads:          24
    Memory [MiB]:           102788
    Algorithm:                Core
    Integral Cache:           NONE
    Schwarz Cutoff:          1E-12
    Fitting Condition:       1E-10

   => Auxiliary Basis Set <=

  Basis Set: (AUG-CC-PV(Q+D)Z AUX)
    Blend: AUG-CC-PVQZ-JKFIT
    Number of shells: 80
    Number of basis function: 326
    Number of Cartesian functions: 445
    Spherical Harmonics?: true
    Max angular momentum: 5

  Cached 100.0% of DFT collocation blocks in 0.203 [GiB].

  Minimum eigenvalue in the overlap matrix is 3.6037580599E-05.
  Using Symmetric Orthogonalization.

  SCF Guess: Orbitals guess was supplied from a previous computation.

  ==> Iterations <==

                           Total Energy        Delta E     RMS |[F,P]|

   @DF-RKS iter   0:  -436.17474353926025   -4.36175e+02   3.81135e-05 
   @DF-RKS iter   1:  -436.17381692877962    9.26610e-04   5.22117e-06 DIIS
   @DF-RKS iter   2:  -436.17381689713261    3.16470e-08   6.24582e-06 DIIS
   @DF-RKS iter   3:  -436.17381705691247   -1.59780e-07   7.56881e-07 DIIS
   @DF-RKS iter   4:  -436.17381705875641   -1.84394e-09   1.17618e-07 DIIS
   @DF-RKS iter   5:  -436.17381705886612   -1.09708e-10   4.26820e-08 DIIS
   @DF-RKS iter   6:  -436.17381705888243   -1.63141e-11   5.05946e-09 DIIS
  Energy and wave function converged.


  ==> Post-Iterations <==

    Orbital Energies [Eh]
    ---------------------

    Doubly Occupied:                                                      

       1A1   -88.938448     2A1   -10.373279     3A1    -8.098714  
       1B1    -6.051876     1B2    -6.051876     4A1    -6.050467  
       5A1    -0.970514     6A1    -0.637038     2B1    -0.459902  
       2B2    -0.459902     7A1    -0.420592  

    Virtual:                                                              

       3B1    -0.002218     3B2    -0.002218     8A1     0.047114  
       9A1     0.077798     4B1     0.078006     4B2     0.078006  
      10A1     0.092565     5B1     0.102887     5B2     0.102887  
      11A1     0.153742    12A1     0.175312     1A2     0.175312  
      13A1     0.203204     6B1     0.256434     6B2     0.256434  
      14A1     0.275809     2A2     0.281918    15A1     0.281919  
       7B1     0.288010     7B2     0.288010    16A1     0.312628  
       8B1     0.360687     8B2     0.360687    17A1     0.424495  
      18A1     0.438414     3A2     0.438414    19A1     0.476618  
      20A1     0.497279     9B1     0.503053     9B2     0.503053  
      10B1     0.517017    10B2     0.517017    11B1     0.531729  
      11B2     0.531729    21A1     0.585176     4A2     0.585178  
      22A1     0.649052    12B1     0.702960    12B2     0.702960  
      23A1     0.776770     5A2     0.790622    24A1     0.790623  
      13B1     0.805776    13B2     0.805776    14B1     0.878963  
      14B2     0.878963    25A1     0.935991     6A2     0.997103  
      26A1     0.997105    27A1     0.997982    28A1     1.051794  
      15B1     1.119231    15B2     1.119231    29A1     1.166210  
       7A2     1.166210    16B2     1.274003    16B1     1.274003  
      30A1     1.288548    17B1     1.359215    17B2     1.359215  
       8A2     1.374907    31A1     1.374908    18B2     1.382941  
      18B1     1.382941    32A1     1.458537     9A2     1.458539  
      19B1     1.479069    19B2     1.479069    20B2     1.501339  
      20B1     1.501339    33A1     1.528063    34A1     1.669080  
      21B1     1.718042    21B2     1.718042    35A1     1.768778  
      10A2     1.768781    36A1     1.956040    37A1     2.071863  
      38A1     2.099407    11A2     2.099417    39A1     2.126606  
      12A2     2.126616    22B1     2.158092    22B2     2.158092  
      40A1     2.169208    23B2     2.206371    23B1     2.206371  
      24B2     2.319173    24B1     2.319173    13A2     2.382049  
      41A1     2.382061    42A1     2.406552    25B1     2.412600  
      25B2     2.412600    43A1     2.610137    26B1     2.687186  
      26B2     2.687186    14A2     2.768954    44A1     2.768966  
      27B2     2.847894    27B1     2.847894    45A1     2.873232  
      15A2     3.038733    46A1     3.038740    28B2     3.253488  
      28B1     3.253488    47A1     3.341422    29B1     3.435031  
      29B2     3.435031    16A2     3.500628    48A1     3.500628  
      17A2     3.608694    49A1     3.608709    30B2     3.669178  
      30B1     3.669178    50A1     3.790979    31B2     3.791378  
      31B1     3.791378    51A1     3.988657    52A1     4.009469  
      18A2     4.009474    53A1     4.315658    32B2     4.408104  
      32B1     4.408104    33B1     5.610519    33B2     5.610519  
      54A1     5.741337    19A2     5.741386    34B2     5.891442  
      34B1     5.891442    35B1     5.901081    35B2     5.901081  
      55A1     6.038178    20A2     6.038185    36B1     6.085407  
      36B2     6.085407    56A1     6.100653    37B2     6.250002  
      37B1     6.250002    57A1     6.317558    21A2     6.317559  
      58A1     6.357360    22A2     6.538314    59A1     6.538329  
      60A1     6.606155    38B2     6.845882    38B1     6.845882  
      61A1     7.255776    39B1     7.391227    39B2     7.391227  
      62A1     8.595171    63A1     8.808278    23A2     8.808318  
      40B2     9.066820    40B1     9.066820    64A1     9.667265  
      65A1    20.139267    66A1    21.185406  

    Final Occupation by Irrep:
             A1    A2    B1    B2 
    DOCC [     7,    0,    2,    2 ]

  @DF-RKS Final Energy:  -436.17381705888243

   => Energetics <=

    Nuclear Repulsion Energy =             33.3538074702417333
    One-Electron Energy =                -666.3474769325343914
    Two-Electron Energy =                 219.7855942053573699
    DFT Exchange-Correlation Energy =     -23.0578027533042800
    Empirical Dispersion Energy =           0.0000000000000000
    VV10 Nonlocal Energy =                  0.0920609513571419
    Total Energy =                       -436.1738170588824346

Computation Completed


Properties will be evaluated at   0.000000,   0.000000,   0.000000 [a0]

Properties computed using the SCF density matrix

  Nuclear Dipole Moment: [e a0]
     X:     0.0000      Y:     0.0000      Z:     0.0110

  Electronic Dipole Moment: [e a0]
     X:     0.0000      Y:     0.0000      Z:     0.7647

  Dipole Moment: [e a0]
     X:     0.0000      Y:     0.0000      Z:     0.7756     Total:     0.7756

  Dipole Moment: [D]
     X:     0.0000      Y:     0.0000      Z:     1.9715     Total:     1.9715


*** tstop() called on bp1-compute00047.data.bp.acrc.priv at Tue Apr 27 16:35:54 2021
Module time:
	user time   =      54.88 seconds =       0.91 minutes
	system time =       1.92 seconds =       0.03 minutes
	total time  =          2 seconds =       0.03 minutes
Total time:
	user time   =     425.37 seconds =       7.09 minutes
	system time =      17.36 seconds =       0.29 minutes
	total time  =         20 seconds =       0.33 minutes

         ----------------------------------------------------------
                                   FINDIF
                     R. A. King and Jonathon Misiewicz
         ---------------------------------------------------------

  Computing gradient from energies.
    Using 3-point formula.
    Energy without displacement: -436.1738144973
    Check energies below for precision!
[...]
     X:     0.0000      Y:     0.0000      Z:     0.0110

  Electronic Dipole Moment: [e a0]
     X:     0.0000      Y:     0.0000      Z:     0.7648

  Dipole Moment: [e a0]
     X:     0.0000      Y:     0.0000      Z:     0.7757     Total:     0.7757

  Dipole Moment: [D]
     X:     0.0000      Y:     0.0000      Z:     1.9717     Total:     1.9717


*** tstop() called on bp1-compute00047.data.bp.acrc.priv at Tue Apr 27 16:36:22 2021
Module time:
	user time   =      87.20 seconds =       1.45 minutes
	system time =       2.93 seconds =       0.05 minutes
	total time  =          4 seconds =       0.07 minutes
Total time:
	user time   =    1019.76 seconds =      17.00 minutes
	system time =      38.72 seconds =       0.65 minutes
	total time  =         48 seconds =       0.80 minutes

  //>>>>>>>>>>>>>>>>>>>>>>>>>>>>>>>>>>>//
  //    Loading displacement 3 of 3    //
  //<<<<<<<<<<<<<<<<<<<<<<<<<<<<<<<<<<<//

*** tstart() called on bp1-compute00047.data.bp.acrc.priv
*** at Tue Apr 27 16:36:22 2021

   => Loading Basis Set <=

    Name: AUG-CC-PV(Q+D)Z
    Role: ORBITAL
    Keyword: BASIS
    atoms 1 entry C          line   319 file /work/zw18965/.conda/envs/p4env/share/psi4/basis/aug-cc-pv_qpd_z.gbs 
    atoms 2 entry S          line  1148 file /work/zw18965/.conda/envs/p4env/share/psi4/basis/aug-cc-pv_qpd_z.gbs 


         ---------------------------------------------------------
                                   SCF
               by Justin Turney, Rob Parrish, Andy Simmonett
                          and Daniel G. A. Smith
                              RKS Reference
                       24 Threads, 137329 MiB Core
         ---------------------------------------------------------

  ==> Geometry <==

    Molecular point group: c2v
    Full point group: C_inf_v

    Geometry (in Angstrom), charge = 0, multiplicity = 1:

       Center              X                  Y                   Z               Mass       
    ------------   -----------------  -----------------  -----------------  -----------------
         C            0.000000000000     0.000000000000    -1.106103478818    12.000000000000
         S            0.000000000000     0.000000000000     0.415151138424    31.972071174400

  Running in c2v symmetry.

  Rotational constants: A = ************  B =      0.83487  C =      0.83487 [cm^-1]
  Rotational constants: A = ************  B =  25028.69959  C =  25028.69959 [MHz]
  Nuclear repulsion =   33.394154830182195

  Charge       = 0
  Multiplicity = 1
  Electrons    = 22
  Nalpha       = 11
  Nbeta        = 11

  ==> Algorithm <==

  SCF Algorithm Type is DF.
  DIIS enabled.
  MOM disabled.
  Fractional occupation disabled.
  Guess Type is SAD.
  Energy threshold   = 1.00e-10
  Density threshold  = 1.00e-10
  Integral threshold = 0.00e+00

  ==> Primary Basis <==

  Basis Set: AUG-CC-PV(Q+D)Z
    Blend: AUG-CC-PV(Q+D)Z
    Number of shells: 43
    Number of basis function: 169
    Number of Cartesian functions: 220
    Spherical Harmonics?: true
    Max angular momentum: 4

  ==> DFT Potential <==

   => Composite Functional: WB97X-V <= 

    wB97X-V Hyb-GGA Exchange-Correlation Functional

    N. Mardirossian and M. Head-Gordon, Phys. Chem. Chem. Phys. 16, 9904 (2014)

    Deriv               =              1
    GGA                 =           TRUE
    Meta                =          FALSE

    Exchange Hybrid     =           TRUE
    MP2 Hybrid          =          FALSE

   => Exchange-Correlation Functionals <=

    1.0000   wB97X-V range-separated functional

   => Exact (HF) Exchange <=

    0.8330            HF,LR [omega = 0.3000]
    0.1670               HF 

   => VV10 Non-Local Parameters <=

    VV10 B              =     6.0000E+00
    VV10 C              =     1.0000E-02

   => Molecular Quadrature <=

    Radial Scheme          =       TREUTLER
    Pruning Scheme         =           FLAT
    Nuclear Scheme         =       TREUTLER

    BS radius alpha        =              1
    Pruning alpha          =              1
    Radial Points          =             75
    Spherical Points       =            302
    Total Points           =          45300
    Total Blocks           =            427
    Max Points             =            254
    Max Functions          =            169

   => Loading Basis Set <=

    Name: (AUG-CC-PV(Q+D)Z AUX)
    Role: JKFIT
    Keyword: DF_BASIS_SCF
    atoms 1 entry C          line   178 file /work/zw18965/.conda/envs/p4env/share/psi4/basis/aug-cc-pvqz-jkfit.gbs 
    atoms 2 entry S          line   810 file /work/zw18965/.conda/envs/p4env/share/psi4/basis/aug-cc-pvqz-jkfit.gbs 

  ==> Pre-Iterations <==

   -------------------------------------------------------
    Irrep   Nso     Nmo     Nalpha   Nbeta   Ndocc  Nsocc
   -------------------------------------------------------
     A1        66      66       0       0       0       0
     A2        23      23       0       0       0       0
     B1        40      40       0       0       0       0
     B2        40      40       0       0       0       0
   -------------------------------------------------------
    Total     169     169      11      11      11       0
   -------------------------------------------------------

  ==> Integral Setup <==

  ==> DiskDFJK: Density-Fitted J/K Matrices <==

    J tasked:                  Yes
    K tasked:                  Yes
    wK tasked:                 Yes
    Omega:               3.000E-01
    OpenMP threads:             24
    Integrals threads:          24
    Memory [MiB]:           102788
    Algorithm:                Core
    Integral Cache:           NONE
    Schwarz Cutoff:          1E-12
    Fitting Condition:       1E-10

   => Auxiliary Basis Set <=

  Basis Set: (AUG-CC-PV(Q+D)Z AUX)
    Blend: AUG-CC-PVQZ-JKFIT
    Number of shells: 80
    Number of basis function: 326
    Number of Cartesian functions: 445
    Spherical Harmonics?: true
    Max angular momentum: 5

  Cached 100.0% of DFT collocation blocks in 0.203 [GiB].

  Minimum eigenvalue in the overlap matrix is 3.5868633137E-05.
  Using Symmetric Orthogonalization.

  SCF Guess: Superposition of Atomic Densities via on-the-fly atomic UHF.

  ==> Iterations <==

                           Total Energy        Delta E     RMS |[F,P]|

   @DF-RKS iter SAD:  -435.60829366829677   -4.35608e+02   0.00000e+00 
   @DF-RKS iter   1:  -436.12090081560501   -5.12607e-01   3.74765e-03 DIIS
   @DF-RKS iter   2:  -436.10946127543639    1.14395e-02   3.83170e-03 DIIS
   @DF-RKS iter   3:  -436.17227922035704   -6.28179e-02   6.67859e-04 DIIS
   @DF-RKS iter   4:  -436.17375120909645   -1.47199e-03   9.47328e-05 DIIS
   @DF-RKS iter   5:  -436.17381082440079   -5.96153e-05   2.78213e-05 DIIS
   @DF-RKS iter   6:  -436.17381558697991   -4.76258e-06   1.16029e-05 DIIS
   @DF-RKS iter   7:  -436.17381675365226   -1.16667e-06   1.38884e-06 DIIS
   @DF-RKS iter   8:  -436.17381678823773   -3.45855e-08   1.72114e-07 DIIS
   @DF-RKS iter   9:  -436.17381678867753   -4.39798e-10   2.53056e-08 DIIS
   @DF-RKS iter  10:  -436.17381678868725   -9.72022e-12   4.09570e-09 DIIS
   @DF-RKS iter  11:  -436.17381678868759   -3.41061e-13   7.31106e-10 DIIS
   @DF-RKS iter  12:  -436.17381678868770   -1.13687e-13   8.99599e-11 DIIS
  Energy and wave function converged.


  ==> Post-Iterations <==

    Orbital Energies [Eh]
    ---------------------

    Doubly Occupied:                                                      

       1A1   -88.938311     2A1   -10.372720     3A1    -8.098684  
       1B2    -6.051840     1B1    -6.051840     4A1    -6.050425  
       5A1    -0.971024     6A1    -0.636939     2B2    -0.460220  
       2B1    -0.460220     7A1    -0.420415  

    Virtual:                                                              

       3B2    -0.001958     3B1    -0.001958     8A1     0.047094  
       9A1     0.077847     4B2     0.077989     4B1     0.077989  
      10A1     0.092566     5B2     0.102895     5B1     0.102895  
      11A1     0.153803    12A1     0.175290     1A2     0.175290  
      13A1     0.203242     6B2     0.256475     6B1     0.256475  
      14A1     0.275922     2A2     0.281948    15A1     0.281949  
       7B1     0.288006     7B2     0.288006    16A1     0.312844  
       8B2     0.360617     8B1     0.360617    17A1     0.424392  
      18A1     0.438315     3A2     0.438315    19A1     0.476626  
      20A1     0.497543     9B2     0.503203     9B1     0.503203  
      10B2     0.516980    10B1     0.516980    11B1     0.531948  
      11B2     0.531948    21A1     0.585161     4A2     0.585163  
      22A1     0.649422    12B2     0.703108    12B1     0.703108  
      23A1     0.777078     5A2     0.790821    24A1     0.790822  
      13B2     0.805944    13B1     0.805944    14B1     0.879062  
      14B2     0.879062    25A1     0.936271     6A2     0.997401  
      26A1     0.997404    27A1     0.998360    28A1     1.051814  
      15B1     1.119171    15B2     1.119171    29A1     1.166044  
       7A2     1.166044    16B2     1.274468    16B1     1.274468  
      30A1     1.289016    17B2     1.358921    17B1     1.358921  
       8A2     1.374830    31A1     1.374831    18B2     1.382847  
      18B1     1.382847    32A1     1.458638     9A2     1.458641  
      19B2     1.479339    19B1     1.479339    20B1     1.501540  
      20B2     1.501540    33A1     1.528730    34A1     1.669637  
      21B2     1.718919    21B1     1.718919    35A1     1.769181  
      10A2     1.769184    36A1     1.955607    37A1     2.071961  
      38A1     2.099714    11A2     2.099725    39A1     2.127024  
      12A2     2.127034    22B1     2.158382    22B2     2.158382  
      40A1     2.169385    23B2     2.206649    23B1     2.206649  
      24B1     2.319557    24B2     2.319557    13A2     2.382596  
      41A1     2.382608    42A1     2.407341    25B1     2.413584  
      25B2     2.413584    43A1     2.610663    26B2     2.687306  
      26B1     2.687306    14A2     2.769147    44A1     2.769159  
      27B1     2.849517    27B2     2.849517    45A1     2.874794  
      15A2     3.039777    46A1     3.039784    28B2     3.254280  
      28B1     3.254280    47A1     3.342226    29B1     3.434859  
      29B2     3.434859    16A2     3.500825    48A1     3.500826  
      17A2     3.608549    49A1     3.608564    30B2     3.669397  
      30B1     3.669397    31B2     3.792087    31B1     3.792087  
      50A1     3.794481    51A1     3.988897    52A1     4.011159  
      18A2     4.011165    53A1     4.316590    32B2     4.409094  
      32B1     4.409094    33B2     5.612457    33B1     5.612457  
      54A1     5.741602    19A2     5.741650    34B2     5.892274  
      34B1     5.892274    35B2     5.902121    35B1     5.902121  
      55A1     6.038768    20A2     6.038775    36B1     6.085715  
      36B2     6.085715    56A1     6.100247    37B2     6.250388  
      37B1     6.250388    57A1     6.319061    21A2     6.319062  
      58A1     6.357845    22A2     6.539938    59A1     6.539953  
      60A1     6.609646    38B1     6.847842    38B2     6.847842  
      61A1     7.259676    39B1     7.396207    39B2     7.396207  
      62A1     8.596694    63A1     8.808453    23A2     8.808494  
      40B2     9.067770    40B1     9.067770    64A1     9.671727  
      65A1    20.155073    66A1    21.191282  

    Final Occupation by Irrep:
             A1    A2    B1    B2 
    DOCC [     7,    0,    2,    2 ]

  @DF-RKS Final Energy:  -436.17381678868770

   => Energetics <=

    Nuclear Repulsion Energy =             33.3941548301821953
    One-Electron Energy =                -666.4274995227078762
    Two-Electron Energy =                 219.8262530339666796
    DFT Exchange-Correlation Energy =     -23.0587854389903484
    Empirical Dispersion Energy =           0.0000000000000000
    VV10 Nonlocal Energy =                  0.0920603088616989
    Total Energy =                       -436.1738167886877022

Computation Completed


Properties will be evaluated at   0.000000,   0.000000,   0.000000 [a0]

Properties computed using the SCF density matrix

  Nuclear Dipole Moment: [e a0]
     X:     0.0000      Y:     0.0000      Z:     0.0110

  Electronic Dipole Moment: [e a0]
     X:     0.0000      Y:     0.0000      Z:     0.7680

  Dipole Moment: [e a0]
     X:     0.0000      Y:     0.0000      Z:     0.7790     Total:     0.7790

  Dipole Moment: [D]
     X:     0.0000      Y:     0.0000      Z:     1.9800     Total:     1.9800


*** tstop() called on bp1-compute00047.data.bp.acrc.priv at Tue Apr 27 16:36:26 2021
Module time:
	user time   =      86.84 seconds =       1.45 minutes
	system time =       3.53 seconds =       0.06 minutes
	total time  =          4 seconds =       0.07 minutes
Total time:
	user time   =    1106.74 seconds =      18.45 minutes
	system time =      42.26 seconds =       0.70 minutes
	total time  =         52 seconds =       0.87 minutes

         ----------------------------------------------------------
                                   FINDIF
                     R. A. King and Jonathon Misiewicz
         ---------------------------------------------------------

  Computing second-derivative from energies using projected, 
  symmetry-adapted, cartesian coordinates.

  3 energies passed in, including the reference geometry.
    Using 3-point formula.
    Energy without displacement: -436.1738178525
    Check energies below for precision!
    0: -1 :      -436.1738171465
    0: 1  :      -436.1738167887

-------------------------------------------------------------


  ==> Harmonic Vibrational Analysis <==

  non-mass-weighted Hessian:       Symmetric? True   Hermitian? True   Lin Dep Dim?  5 (0)
  projection of translations (True) and rotations (True) removed 5 degrees of freedom (5)
  total projector:                 Symmetric? True   Hermitian? True   Lin Dep Dim?  5 (5)
  mass-weighted Hessian:           Symmetric? True   Hermitian? True   Lin Dep Dim?  5 (0)
  pre-proj  low-frequency mode:    0.0000  [cm^-1]
  pre-proj  low-frequency mode:    0.0000  [cm^-1]
  pre-proj  low-frequency mode:    0.0000  [cm^-1]
  pre-proj  low-frequency mode:    0.0000  [cm^-1]
  pre-proj  low-frequency mode:    0.0000  [cm^-1]
  pre-proj  all modes:['0.0000' '0.0000' '0.0000' '0.0000' '0.0000' '1367.6862']
  projected mass-weighted Hessian: Symmetric? True   Hermitian? True   Lin Dep Dim?  5 (5)
  post-proj low-frequency mode:    0.0000i [cm^-1] (TR)
  post-proj low-frequency mode:    0.0000  [cm^-1] (TR)
  post-proj low-frequency mode:    0.0000  [cm^-1] (TR)
  post-proj low-frequency mode:    0.0000  [cm^-1] (TR)
  post-proj low-frequency mode:    0.0000  [cm^-1] (TR)
  post-proj  all modes:['0.0000i' '0.0000' '0.0000' '0.0000' '0.0000' '1367.6862']

  Vibration                       6           
  Freq [cm^-1]                1367.6862       
  Irrep                           A1          
  Reduced mass [u]             14.4661        
  Force const [mDyne/A]        15.9431        
  Turning point v=0 [a0]        0.0780        
  RMS dev v=0 [a0 u^1/2]        0.2098        
  Char temp [K]               1967.7960       
  ----------------------------------------------------------------------------------
      1   C                0.00  0.00  0.94   
      2   S                0.00  0.00 -0.35   

  ==> Thermochemistry Components <==

  Entropy, S
    Electronic S            0.000 [cal/(mol K)]        0.000 [J/(mol K)]       0.00000000 [mEh/K] (multiplicity = 1)
    Translational S        37.269 [cal/(mol K)]      155.933 [J/(mol K)]       0.05939180 [mEh/K] (mol. weight = 43.9721 [u], P = 101325.00 [Pa])
    Rotational S           12.948 [cal/(mol K)]       54.173 [J/(mol K)]       0.02063323 [mEh/K] (symmetry no. = 1)
    Vibrational S           0.021 [cal/(mol K)]        0.086 [J/(mol K)]       0.00003278 [mEh/K]
  Total S                  50.237 [cal/(mol K)]      210.192 [J/(mol K)]       0.08005781 [mEh/K]
  Correction S              0.000 [cal/(mol K)]        0.000 [J/(mol K)]       0.00000000 [mEh/K]

  Constant volume heat capacity, Cv
    Electronic Cv           0.000 [cal/(mol K)]        0.000 [J/(mol K)]       0.00000000 [mEh/K]
    Translational Cv        2.981 [cal/(mol K)]       12.472 [J/(mol K)]       0.00475022 [mEh/K]
    Rotational Cv           1.987 [cal/(mol K)]        8.314 [J/(mol K)]       0.00316681 [mEh/K]
    Vibrational Cv          0.118 [cal/(mol K)]        0.494 [J/(mol K)]       0.00018817 [mEh/K]
  Total Cv                  5.086 [cal/(mol K)]       21.280 [J/(mol K)]       0.00810519 [mEh/K]
  Correction Cv             0.000 [cal/(mol K)]        0.000 [J/(mol K)]       0.00000000 [mEh/K]

  Constant pressure heat capacity, Cp
    Electronic Cp           0.000 [cal/(mol K)]        0.000 [J/(mol K)]       0.00000000 [mEh/K]
    Translational Cp        4.968 [cal/(mol K)]       20.786 [J/(mol K)]       0.00791703 [mEh/K]
    Rotational Cp           1.987 [cal/(mol K)]        8.314 [J/(mol K)]       0.00316681 [mEh/K]
    Vibrational Cp          0.118 [cal/(mol K)]        0.494 [J/(mol K)]       0.00018817 [mEh/K]
  Total Cp                  7.073 [cal/(mol K)]       29.595 [J/(mol K)]       0.01127200 [mEh/K]
  Correction Cp             0.000 [cal/(mol K)]        0.000 [J/(mol K)]       0.00000000 [mEh/K]

  ==> Thermochemistry Energy Analysis <==

  Raw electronic energy, E0
  Total E0, Electronic energy at well bottom at 0 [K]                 -436.17381785 [Eh]

  Zero-point energy, ZPE_vib = Sum_i nu_i / 2
    Electronic ZPE          0.000 [kcal/mol]        0.000 [kJ/mol]       0.00000000 [Eh]
    Translational ZPE       0.000 [kcal/mol]        0.000 [kJ/mol]       0.00000000 [Eh]
    Rotational ZPE          0.000 [kcal/mol]        0.000 [kJ/mol]       0.00000000 [Eh]
    Vibrational ZPE         1.955 [kcal/mol]        8.181 [kJ/mol]       0.00311582 [Eh]         683.843 [cm^-1]
  Correction ZPE            1.955 [kcal/mol]        8.181 [kJ/mol]       0.00311582 [Eh]         683.843 [cm^-1]
  Total ZPE, Electronic energy at 0 [K]                               -436.17070203 [Eh]

  Thermal Energy, E (includes ZPE)
    Electronic E            0.000 [kcal/mol]        0.000 [kJ/mol]       0.00000000 [Eh]
    Translational E         0.889 [kcal/mol]        3.718 [kJ/mol]       0.00141628 [Eh]
    Rotational E            0.592 [kcal/mol]        2.479 [kJ/mol]       0.00094418 [Eh]
    Vibrational E           1.961 [kcal/mol]        8.203 [kJ/mol]       0.00312431 [Eh]
  Correction E              3.442 [kcal/mol]       14.400 [kJ/mol]       0.00548477 [Eh]
  Total E, Electronic energy at  298.15 [K]                           -436.16833308 [Eh]

  Enthalpy, H_trans = E_trans + k_B * T
    Electronic H            0.000 [kcal/mol]        0.000 [kJ/mol]       0.00000000 [Eh]
    Translational H         1.481 [kcal/mol]        6.197 [kJ/mol]       0.00236046 [Eh]
    Rotational H            0.592 [kcal/mol]        2.479 [kJ/mol]       0.00094418 [Eh]
    Vibrational H           1.961 [kcal/mol]        8.203 [kJ/mol]       0.00312431 [Eh]
  Correction H              4.034 [kcal/mol]       16.879 [kJ/mol]       0.00642895 [Eh]
  Total H, Enthalpy at  298.15 [K]                                    -436.16738890 [Eh]

  Gibbs free energy, G = H - T * S
    Electronic G            0.000 [kcal/mol]        0.000 [kJ/mol]       0.00000000 [Eh]
    Translational G        -9.631 [kcal/mol]      -40.294 [kJ/mol]      -0.01534720 [Eh]
    Rotational G           -3.268 [kcal/mol]      -13.673 [kJ/mol]      -0.00520761 [Eh]
    Vibrational G           1.954 [kcal/mol]        8.177 [kJ/mol]       0.00311453 [Eh]
  Correction G            -10.944 [kcal/mol]      -45.789 [kJ/mol]      -0.01744028 [Eh]
  Total G, Free enthalpy at  298.15 [K]                               -436.19125814 [Eh]

    Psi4 stopped on: Tuesday, 27 April 2021 04:36PM
    Psi4 wall time for execution: 0:00:51.84

*** Psi4 exiting successfully. Buy a developer a beer!
