
    -----------------------------------------------------------------------
          Psi4: An Open-Source Ab Initio Electronic Structure Package
                               Psi4 1.3.2 release

                         Git: Rev {HEAD} ecbda83 


    R. M. Parrish, L. A. Burns, D. G. A. Smith, A. C. Simmonett,
    A. E. DePrince III, E. G. Hohenstein, U. Bozkaya, A. Yu. Sokolov,
    R. Di Remigio, R. M. Richard, J. F. Gonthier, A. M. James,
    H. R. McAlexander, A. Kumar, M. Saitow, X. Wang, B. P. Pritchard,
    P. Verma, H. F. Schaefer III, K. Patkowski, R. A. King, E. F. Valeev,
    F. A. Evangelista, J. M. Turney, T. D. Crawford, and C. D. Sherrill,
    J. Chem. Theory Comput. 13(7) pp 3185--3197 (2017).
    (doi: 10.1021/acs.jctc.7b00174)


                         Additional Contributions by
    P. Kraus, H. Kruse, M. H. Lechner, M. C. Schieber, R. A. Shaw,
    A. Alenaizan, R. Galvelis, Z. L. Glick, S. Lehtola, and J. P. Misiewicz

    -----------------------------------------------------------------------


    Psi4 started on: Tuesday, 27 April 2021 04:35PM

    Process ID: 127703
    Host:       bp1-compute00067.data.bp.acrc.priv
    PSIDATADIR: /work/zw18965/.conda/envs/p4env/share/psi4
    Memory:     500.0 MiB
    Threads:    24
    
  ==> Input File <==

--------------------------------------------------------------------------
memory 144 GB

molecule {
0 1
F 0.0000000000 0.0000000000 0.0000000000
F 0.0000000000 0.0000000000 1.4129000000
}

set dynamic_level 1
set basis aug-cc-pV(Q+d)Z
 
optimize("wB97X-V")
frequencies("wB97X-V")
--------------------------------------------------------------------------

  Memory set to 134.110 GiB by Python driver.
gradient() will perform gradient computation by finite difference of analytic energies.

         ----------------------------------------------------------
                                   FINDIF
                     R. A. King and Jonathon Misiewicz
         ---------------------------------------------------------

  Using finite-differences of energies to determine gradients.
    Generating geometries for use with 3-point formula.
    Displacement size will be 5.00e-03.
    Number of atoms is 2.
    Number of symmetric SALCs is 1.
    Translations projected? 1. Rotations projected? 1.
    Number of geometries (including reference) is 3.

  //>>>>>>>>>>>>>>>>>>>>>>>>>>>>>>>>>>>//
  //    Loading displacement 1 of 3    //
  //<<<<<<<<<<<<<<<<<<<<<<<<<<<<<<<<<<<//

*** tstart() called on bp1-compute00067.data.bp.acrc.priv
*** at Tue Apr 27 16:35:49 2021

   => Loading Basis Set <=

    Name: AUG-CC-PV(Q+D)Z
    Role: ORBITAL
    Keyword: BASIS
    atoms 1-2 entry F          line   499 file /work/zw18965/.conda/envs/p4env/share/psi4/basis/aug-cc-pv_qpd_z.gbs 


         ---------------------------------------------------------
                                   SCF
               by Justin Turney, Rob Parrish, Andy Simmonett
                          and Daniel G. A. Smith
                              RKS Reference
                       24 Threads, 137329 MiB Core
         ---------------------------------------------------------

  ==> Geometry <==

    Molecular point group: d2h
    Full point group: D_inf_h

    Geometry (in Angstrom), charge = 0, multiplicity = 1:

       Center              X                  Y                   Z               Mass       
    ------------   -----------------  -----------------  -----------------  -----------------
         F            0.000000000000     0.000000000000    -0.706450000000    18.998403162730
         F            0.000000000000     0.000000000000     0.706450000000    18.998403162730

  Running in d2h symmetry.

  Rotational constants: A = ************  B =      0.88897  C =      0.88897 [cm^-1]
  Rotational constants: A = ************  B =  26650.61560  C =  26650.61560 [MHz]
  Nuclear repulsion =   30.337146340342564

  Charge       = 0
  Multiplicity = 1
  Electrons    = 18
  Nalpha       = 9
  Nbeta        = 9

  ==> Algorithm <==

  SCF Algorithm Type is DF.
  DIIS enabled.
  MOM disabled.
  Fractional occupation disabled.
  Guess Type is SAD.
  Energy threshold   = 1.00e-08
  Density threshold  = 1.00e-08
  Integral threshold = 0.00e+00

  ==> Primary Basis <==

  Basis Set: AUG-CC-PV(Q+D)Z
    Blend: AUG-CC-PV(Q+D)Z
    Number of shells: 40
    Number of basis function: 160
    Number of Cartesian functions: 210
    Spherical Harmonics?: true
    Max angular momentum: 4

  ==> DFT Potential <==

   => Composite Functional: WB97X-V <= 

    wB97X-V Hyb-GGA Exchange-Correlation Functional

    N. Mardirossian and M. Head-Gordon, Phys. Chem. Chem. Phys. 16, 9904 (2014)

    Deriv               =              1
    GGA                 =           TRUE
    Meta                =          FALSE

    Exchange Hybrid     =           TRUE
    MP2 Hybrid          =          FALSE

   => Exchange-Correlation Functionals <=

    1.0000   wB97X-V range-separated functional

   => Exact (HF) Exchange <=

    0.8330            HF,LR [omega = 0.3000]
    0.1670               HF 

   => VV10 Non-Local Parameters <=

    VV10 B              =     6.0000E+00
    VV10 C              =     1.0000E-02

   => Molecular Quadrature <=

    Radial Scheme          =       TREUTLER
    Pruning Scheme         =           FLAT
    Nuclear Scheme         =       TREUTLER

    BS radius alpha        =              1
    Pruning alpha          =              1
    Radial Points          =             75
    Spherical Points       =            302
    Total Points           =          44842
    Total Blocks           =            416
    Max Points             =            256
    Max Functions          =            160

   => Loading Basis Set <=

    Name: (AUG-CC-PV(Q+D)Z AUX)
    Role: JKFIT
    Keyword: DF_BASIS_SCF
    atoms 1-2 entry F          line   388 file /work/zw18965/.conda/envs/p4env/share/psi4/basis/aug-cc-pvqz-jkfit.gbs 

  ==> Pre-Iterations <==

   -------------------------------------------------------
    Irrep   Nso     Nmo     Nalpha   Nbeta   Ndocc  Nsocc
   -------------------------------------------------------
     Ag        31      31       0       0       0       0
     B1g       11      11       0       0       0       0
     B2g       19      19       0       0       0       0
     B3g       19      19       0       0       0       0
     Au        11      11       0       0       0       0
     B1u       31      31       0       0       0       0
     B2u       19      19       0       0       0       0
     B3u       19      19       0       0       0       0
   -------------------------------------------------------
    Total     160     160       9       9       9       0
   -------------------------------------------------------

  ==> Integral Setup <==

  ==> DiskDFJK: Density-Fitted J/K Matrices <==

    J tasked:                  Yes
    K tasked:                  Yes
    wK tasked:                 Yes
    Omega:               3.000E-01
    OpenMP threads:             24
    Integrals threads:          24
    Memory [MiB]:           102814
    Algorithm:                Core
    Integral Cache:           NONE
    Schwarz Cutoff:          1E-12
    Fitting Condition:       1E-10

   => Auxiliary Basis Set <=

  Basis Set: (AUG-CC-PV(Q+D)Z AUX)
    Blend: AUG-CC-PVQZ-JKFIT
    Number of shells: 68
    Number of basis function: 284
    Number of Cartesian functions: 396
    Spherical Harmonics?: true
    Max angular momentum: 5

  Cached 100.0% of DFT collocation blocks in 0.178 [GiB].

  Minimum eigenvalue in the overlap matrix is 2.9454908143E-04.
  Using Symmetric Orthogonalization.

  SCF Guess: Superposition of Atomic Densities via on-the-fly atomic UHF.

  ==> Iterations <==

                           Total Energy        Delta E     RMS |[F,P]|

   @DF-RKS iter SAD:  -199.09988394122249   -1.99100e+02   0.00000e+00 
   @DF-RKS iter   1:  -199.51528996802946   -4.15406e-01   4.31216e-03 DIIS
   @DF-RKS iter   2:  -199.53197253484080   -1.66826e-02   1.93644e-03 DIIS
   @DF-RKS iter   3:  -199.53437767062903   -2.40514e-03   1.50783e-04 DIIS
   @DF-RKS iter   4:  -199.53440971613261   -3.20455e-05   7.98548e-05 DIIS
   @DF-RKS iter   5:  -199.53441529223218   -5.57610e-06   1.21853e-05 DIIS
   @DF-RKS iter   6:  -199.53441548271434   -1.90482e-07   3.85869e-07 DIIS
   @DF-RKS iter   7:  -199.53441548311596   -4.01627e-10   5.65872e-08 DIIS
   @DF-RKS iter   8:  -199.53441548312213   -6.16751e-12   3.80484e-09 DIIS
  Energy and wave function converged.


  ==> Post-Iterations <==

    Orbital Energies [Eh]
    ---------------------

    Doubly Occupied:                                                      

       1Ag   -24.872092     1B1u  -24.872086     2Ag    -1.482168  
       2B1u   -1.241390     3Ag    -0.713700     1B2u   -0.661981  
       1B3u   -0.661981     1B3g   -0.530393     1B2g   -0.530393  

    Virtual:                                                              

       3B1u   -0.052536     4B1u    0.117856     4Ag     0.141994  
       2B3u    0.160983     2B2u    0.160983     2B3g    0.211109  
       2B2g    0.211109     5Ag     0.216486     5B1u    0.351596  
       6Ag     0.535560     1B1g    0.535560     7Ag     0.666189  
       3B3u    0.683429     3B2u    0.683429     6B1u    0.708516  
       7B1u    0.730265     1Au     0.730266     3B2g    0.736599  
       3B3g    0.736599     4B3u    0.768150     4B2u    0.768150  
       8B1u    0.910015     8Ag     0.932005     4B2g    1.045864  
       4B3g    1.045864     9Ag     1.200644     5B3u    1.650257  
       5B2u    1.650257     6B2u    1.650473     6B3u    1.650473  
      10Ag     1.653492     2B1g    1.653493     9B1u    1.803489  
      11Ag     1.833122     3B1g    1.892005    12Ag     1.892010  
      10B1u    1.935061     2Au     1.935061     5B3g    1.943905  
       5B2g    1.943905     6B2g    1.979053     6B3g    1.979053  
      11B1u    2.202618     7B2u    2.264470     7B3u    2.264470  
      12B1u    2.379035     3Au     2.379047    13B1u    2.385518  
      13Ag     2.576115     7B2g    2.697799     7B3g    2.697799  
      14Ag     3.007631     8B3u    3.087722     8B2u    3.087722  
       8B3g    3.446546     8B2g    3.446546     9B3u    4.187382  
       9B2u    4.187382    15Ag     4.355724     4B1g    4.355727  
       5B1g    4.385384    16Ag     4.385399    17Ag     4.496022  
      10B3u    4.512843    10B2u    4.512843     4Au     4.613413  
      14B1u    4.613427    15B1u    4.658690    18Ag     4.863488  
       9B2g    5.074235     9B3g    5.074235    10B3g    5.086448  
      10B2g    5.086448    11B3u    5.117723    11B2u    5.117723  
      16B1u    5.177640    17B1u    5.260628     5Au     5.260641  
      11B3g    5.262666    11B2g    5.262666    19Ag     5.273283  
       6B1g    5.273287    12B2u    5.277299    12B3u    5.277299  
      20Ag     5.299505    21Ag     5.308101     7B1g    5.308104  
      18B1u    5.470941     6Au     5.470951    19B1u    5.510497  
      20B1u    5.749077    12B2g    5.886646    12B3g    5.886646  
      21B1u    6.187045     7Au     6.187053    13B2u    6.224948  
      13B3u    6.224948    13B3g    7.184482    13B2g    7.184482  
      22Ag     7.214423    22B1u    7.587750    14B3u   12.252338  
      14B2u   12.252338    23Ag    12.467472    14B2g   12.840419  
      14B3g   12.840419    15B3u   13.043292    15B2u   13.043292  
       8B1g   13.081616    24Ag    13.081894     8Au    13.175990  
      23B1u   13.176273    25Ag    13.318569     9B1g   13.318604  
      15B2g   13.325587    15B3g   13.325587    26Ag    13.391963  
      16B2u   13.515737    16B3u   13.515737    24B1u   13.534621  
       9Au    13.534665    16B3g   13.600262    16B2g   13.600262  
      25B1u   13.831193    26B1u   14.528553    27Ag    15.091670  
      10B1g   15.091714    17B3u   15.140144    17B2u   15.140144  
      18B2u   15.179020    18B3u   15.179020    17B2g   15.230870  
      17B3g   15.230870    27B1u   15.426675    10Au    15.426728  
      28Ag    15.496764    28B1u   15.776723    29Ag    15.985412  
      11B1g   15.985494    29B1u   16.112711    11Au    16.112781  
      18B3g   16.209380    18B2g   16.209380    19B2u   16.268570  
      19B3u   16.268570    19B2g   16.583110    19B3g   16.583110  
      30B1u   17.474977    30Ag    17.520866    31Ag    52.254945  
      31B1u   54.024244  

    Final Occupation by Irrep:
             Ag   B1g   B2g   B3g    Au   B1u   B2u   B3u 
    DOCC [     3,    0,    1,    1,    0,    2,    1,    1 ]

  @DF-RKS Final Energy:  -199.53441548312213

   => Energetics <=

    Nuclear Repulsion Energy =             30.3371463403425636
    One-Electron Energy =                -338.4772273468528283
    Two-Electron Energy =                 123.5379114618949927
    DFT Exchange-Correlation Energy =     -15.0093229942680164
    Empirical Dispersion Energy =           0.0000000000000000
    VV10 Nonlocal Energy =                  0.0770770557611727
    Total Energy =                       -199.5344154831221317

Computation Completed


Properties will be evaluated at   0.000000,   0.000000,   0.000000 [a0]

Properties computed using the SCF density matrix

  Nuclear Dipole Moment: [e a0]
     X:     0.0000      Y:     0.0000      Z:     0.0000

  Electronic Dipole Moment: [e a0]
     X:     0.0000      Y:     0.0000      Z:     0.0000

  Dipole Moment: [e a0]
     X:     0.0000      Y:     0.0000      Z:     0.0000     Total:     0.0000

  Dipole Moment: [D]
     X:     0.0000      Y:     0.0000      Z:     0.0000     Total:     0.0000


*** tstop() called on bp1-compute00067.data.bp.acrc.priv at Tue Apr 27 16:35:52 2021
Module time:
	user time   =      64.89 seconds =       1.08 minutes
	system time =       3.10 seconds =       0.05 minutes
	total time  =          3 seconds =       0.05 minutes
Total time:
	user time   =      64.89 seconds =       1.08 minutes
	system time =       3.10 seconds =       0.05 minutes
	total time  =          3 seconds =       0.05 minutes

  //>>>>>>>>>>>>>>>>>>>>>>>>>>>>>>>>>>>//
  //    Loading displacement 2 of 3    //
  //<<<<<<<<<<<<<<<<<<<<<<<<<<<<<<<<<<<//

*** tstart() called on bp1-compute00067.data.bp.acrc.priv
*** at Tue Apr 27 16:35:52 2021

   => Loading Basis Set <=

    Name: AUG-CC-PV(Q+D)Z
    Role: ORBITAL
    Keyword: BASIS
    atoms 1-2 entry F          line   499 file /work/zw18965/.conda/envs/p4env/share/psi4/basis/aug-cc-pv_qpd_z.gbs 


         ---------------------------------------------------------
                                   SCF
               by Justin Turney, Rob Parrish, Andy Simmonett
                          and Daniel G. A. Smith
                              RKS Reference
                       24 Threads, 137329 MiB Core
         ---------------------------------------------------------

  ==> Geometry <==

    Molecular point group: d2h
    Full point group: D_inf_h

    Geometry (in Angstrom), charge = 0, multiplicity = 1:

       Center              X                  Y                   Z               Mass       
    ------------   -----------------  -----------------  -----------------  -----------------
         F            0.000000000000     0.000000000000    -0.706879237434    18.998403162730
         F            0.000000000000     0.000000000000     0.706879237434    18.998403162730

  Running in d2h symmetry.

  Rotational constants: A = ************  B =      0.88789  C =      0.88789 [cm^-1]
  Rotational constants: A = ************  B =  26618.25938  C =  26618.25938 [MHz]
  Nuclear repulsion =   30.318724751270118

  Charge       = 0
  Multiplicity = 1
  Electrons    = 18
  Nalpha       = 9
  Nbeta        = 9

  ==> Algorithm <==

  SCF Algorithm Type is DF.
  DIIS enabled.
  MOM disabled.
  Fractional occupation disabled.
  Guess Type is SAD.
  Energy threshold   = 1.00e-08
  Density threshold  = 1.00e-08
  Integral threshold = 0.00e+00

  ==> Primary Basis <==

  Basis Set: AUG-CC-PV(Q+D)Z
    Blend: AUG-CC-PV(Q+D)Z
    Number of shells: 40
    Number of basis function: 160
    Number of Cartesian functions: 210
    Spherical Harmonics?: true
    Max angular momentum: 4

  ==> DFT Potential <==

   => Composite Functional: WB97X-V <= 

    wB97X-V Hyb-GGA Exchange-Correlation Functional

    N. Mardirossian and M. Head-Gordon, Phys. Chem. Chem. Phys. 16, 9904 (2014)

    Deriv               =              1
    GGA                 =           TRUE
    Meta                =          FALSE

    Exchange Hybrid     =           TRUE
    MP2 Hybrid          =          FALSE

   => Exchange-Correlation Functionals <=

    1.0000   wB97X-V range-separated functional

   => Exact (HF) Exchange <=

    0.8330            HF,LR [omega = 0.3000]
    0.1670               HF 

   => VV10 Non-Local Parameters <=

    VV10 B              =     6.0000E+00
    VV10 C              =     1.0000E-02

   => Molecular Quadrature <=

    Radial Scheme          =       TREUTLER
    Pruning Scheme         =           FLAT
    Nuclear Scheme         =       TREUTLER

    BS radius alpha        =              1
    Pruning alpha          =              1
    Radial Points          =             75
    Spherical Points       =            302
    Total Points           =          44842
    Total Blocks           =            416
    Max Points             =            256
    Max Functions          =            160

   => Loading Basis Set <=

    Name: (AUG-CC-PV(Q+D)Z AUX)
    Role: JKFIT
    Keyword: DF_BASIS_SCF
    atoms 1-2 entry F          line   388 file /work/zw18965/.conda/envs/p4env/share/psi4/basis/aug-cc-pvqz-jkfit.gbs 

  ==> Pre-Iterations <==

   -------------------------------------------------------
    Irrep   Nso     Nmo     Nalpha   Nbeta   Ndocc  Nsocc
   -------------------------------------------------------
     Ag        31      31       0       0       0       0
     B1g       11      11       0       0       0       0
     B2g       19      19       0       0       0       0
     B3g       19      19       0       0       0       0
     Au        11      11       0       0       0       0
     B1u       31      31       0       0       0       0
     B2u       19      19       0       0       0       0
     B3u       19      19       0       0       0       0
   -------------------------------------------------------
    Total     160     160       9       9       9       0
   -------------------------------------------------------

  ==> Integral Setup <==

  ==> DiskDFJK: Density-Fitted J/K Matrices <==

    J tasked:                  Yes
    K tasked:                  Yes
    wK tasked:                 Yes
    Omega:               3.000E-01
    OpenMP threads:             24
    Integrals threads:          24
    Memory [MiB]:           102814
    Algorithm:                Core
    Integral Cache:           NONE
    Schwarz Cutoff:          1E-12
    Fitting Condition:       1E-10

   => Auxiliary Basis Set <=

  Basis Set: (AUG-CC-PV(Q+D)Z AUX)
    Blend: AUG-CC-PVQZ-JKFIT
    Number of shells: 68
    Number of basis function: 284
    Number of Cartesian functions: 396
    Spherical Harmonics?: true
    Max angular momentum: 5

  Cached 100.0% of DFT collocation blocks in 0.178 [GiB].

  Minimum eigenvalue in the overlap matrix is 2.9520569443E-04.
  Using Symmetric Orthogonalization.

  SCF Guess: Superposition of Atomic Densities via on-the-fly atomic UHF.

  ==> Iterations <==

                           Total Energy        Delta E     RMS |[F,P]|

   @DF-RKS iter SAD:  -199.09874358742618   -1.99099e+02   0.00000e+00 
   @DF-RKS iter   1:  -199.51529277317351   -4.16549e-01   4.30698e-03 DIIS
   @DF-RKS iter   2:  -199.53193555775348   -1.66428e-02   1.93405e-03 DIIS
   @DF-RKS iter   3:  -199.53433541802519   -2.39986e-03   1.50420e-04 DIIS
   @DF-RKS iter   4:  -199.53436736645673   -3.19484e-05   7.96477e-05 DIIS
   @DF-RKS iter   5:  -199.53437291410751   -5.54765e-06   1.21929e-05 DIIS
   @DF-RKS iter   6:  -199.53437310463883   -1.90531e-07   3.85963e-07 DIIS
   @DF-RKS iter   7:  -199.53437310504066   -4.01826e-10   5.65499e-08 DIIS
   @DF-RKS iter   8:  -199.53437310504685   -6.19593e-12   3.80808e-09 DIIS
  Energy and wave function converged.


  ==> Post-Iterations <==

    Orbital Energies [Eh]
    ---------------------

    Doubly Occupied:                                                      

       1Ag   -24.872146     1B1u  -24.872139     2Ag    -1.481767  
       2B1u   -1.241602     3Ag    -0.713513     1B3u   -0.661818  
       1B2u   -0.661818     1B2g   -0.530535     1B3g   -0.530535  

    Virtual:                                                              

       3B1u   -0.053100     4B1u    0.117830     4Ag     0.141991  
       2B3u    0.160987     2B2u    0.160987     2B3g    0.211103  
       2B2g    0.211103     5Ag     0.216501     5B1u    0.351571  
       6Ag     0.535568     1B1g    0.535568     7Ag     0.666323  
       3B3u    0.683280     3B2u    0.683280     6B1u    0.708390  
       7B1u    0.730197     1Au     0.730198     3B2g    0.736631  
       3B3g    0.736631     4B3u    0.768139     4B2u    0.768139  
       8B1u    0.910102     8Ag     0.932195     4B2g    1.045880  
       4B3g    1.045880     9Ag     1.200369     5B2u    1.650343  
       5B3u    1.650343     6B3u    1.650369     6B2u    1.650369  
      10Ag     1.653499     2B1g    1.653500     9B1u    1.803130  
      11Ag     1.832846     3B1g    1.891824    12Ag     1.891829  
      10B1u    1.935044     2Au     1.935045     5B3g    1.943704  
       5B2g    1.943704     6B2g    1.978868     6B3g    1.978868  
      11B1u    2.202416     7B3u    2.264101     7B2u    2.264101  
      12B1u    2.378513     3Au     2.378526    13B1u    2.385731  
      13Ag     2.574623     7B2g    2.698425     7B3g    2.698425  
      14Ag     3.008789     8B3u    3.087678     8B2u    3.087678  
       8B3g    3.444978     8B2g    3.444978     9B3u    4.187402  
       9B2u    4.187402    15Ag     4.355013     4B1g    4.355017  
       5B1g    4.385697    16Ag     4.385713    17Ag     4.495790  
      10B2u    4.512693    10B3u    4.512693     4Au     4.613108  
      14B1u    4.613122    15B1u    4.656562    18Ag     4.862371  
       9B3g    5.073941     9B2g    5.073941    10B2g    5.085284  
      10B3g    5.085284    11B3u    5.117832    11B2u    5.117832  
      16B1u    5.177161    17B1u    5.260802     5Au     5.260815  
      11B2g    5.262594    11B3g    5.262594    19Ag     5.272828  
       6B1g    5.272831    12B3u    5.277543    12B2u    5.277543  
      20Ag     5.298867    21Ag     5.308130     7B1g    5.308133  
      18B1u    5.470409     6Au     5.470419    19B1u    5.510821  
      20B1u    5.749220    12B3g    5.886077    12B2g    5.886077  
      21B1u    6.184936     7Au     6.184944    13B2u    6.222761  
      13B3u    6.222761    13B3g    7.183302    13B2g    7.183302  
      22Ag     7.215808    22B1u    7.583127    14B3u   12.252289  
      14B2u   12.252289    23Ag    12.465937    14B2g   12.837521  
      14B3g   12.837521    15B3u   13.043057    15B2u   13.043057  
       8B1g   13.081709    24Ag    13.081986     8Au    13.175898  
      23B1u   13.176181    25Ag    13.318391     9B1g   13.318426  
      15B2g   13.325393    15B3g   13.325393    26Ag    13.391978  
      16B2u   13.518539    16B3u   13.518539    24B1u   13.534243  
       9Au    13.534287    16B3g   13.598540    16B2g   13.598540  
      25B1u   13.828919    26B1u   14.526710    27Ag    15.091802  
      10B1g   15.091846    17B2u   15.140223    17B3u   15.140223  
      18B3u   15.178150    18B2u   15.178150    17B3g   15.230753  
      17B2g   15.230753    27B1u   15.425937    10Au    15.425990  
      28Ag    15.494371    28B1u   15.781786    29Ag    15.985370  
      11B1g   15.985452    29B1u   16.112490    11Au    16.112560  
      18B2g   16.206207    18B3g   16.206207    19B3u   16.267649  
      19B2u   16.267649    19B3g   16.583962    19B2g   16.583962  
      30B1u   17.468006    30Ag    17.520182    31Ag    52.255936  
      31B1u   54.016754  

    Final Occupation by Irrep:
             Ag   B1g   B2g   B3g    Au   B1u   B2u   B3u 
    DOCC [     3,    0,    1,    1,    0,    2,    1,    1 ]

  @DF-RKS Final Energy:  -199.53437310504685

   => Energetics <=

    Nuclear Repulsion Energy =             30.3187247512701177
    One-Electron Energy =                -338.4411349513319465
    Two-Electron Energy =                 123.5199280566140061
    DFT Exchange-Correlation Energy =     -15.0089693153953547
    Empirical Dispersion Energy =           0.0000000000000000
    VV10 Nonlocal Energy =                  0.0770783537963117
    Total Energy =                       -199.5343731050468818

Computation Completed


Properties will be evaluated at   0.000000,   0.000000,   0.000000 [a0]

Properties computed using the SCF density matrix

  Nuclear Dipole Moment: [e a0]
     X:     0.0000      Y:     0.0000      Z:     0.0000

  Electronic Dipole Moment: [e a0]
     X:     0.0000      Y:     0.0000      Z:     0.0000

  Dipole Moment: [e a0]
     X:     0.0000      Y:     0.0000      Z:     0.0000     Total:     0.0000

  Dipole Moment: [D]
     X:     0.0000      Y:     0.0000      Z:     0.0000     Total:     0.0000


*** tstop() called on bp1-compute00067.data.bp.acrc.priv at Tue Apr 27 16:35:55 2021
Module time:
	user time   =      63.81 seconds =       1.06 minutes
	system time =       3.46 seconds =       0.06 minutes
	total time  =          3 seconds =       0.05 minutes
Total time:
	user time   =     128.86 seconds =       2.15 minutes
	system time =       6.57 seconds =       0.11 minutes
	total time  =          6 seconds =       0.10 minutes

  //>>>>>>>>>>>>>>>>>>>>>>>>>>>>>>>>>>>//
  //    Loading displacement 3 of 3    //
  //<<<<<<<<<<<<<<<<<<<<<<<<<<<<<<<<<<<//

*** tstart() called on bp1-compute00067.data.bp.acrc.priv
*** at Tue Apr 27 16:35:55 2021

   => Loading Basis Set <=

    Name: AUG-CC-PV(Q+D)Z
    Role: ORBITAL
    Keyword: BASIS
    atoms 1-2 entry F          line   499 file /work/zw18965/.conda/envs/p4env/share/psi4/basis/aug-cc-pv_qpd_z.gbs 


         ---------------------------------------------------------
                                   SCF
               by Justin Turney, Rob Parrish, Andy Simmonett
                          and Daniel G. A. Smith
                              RKS Reference
                       24 Threads, 137329 MiB Core
         ---------------------------------------------------------

  ==> Geometry <==

    Molecular point group: d2h
    Full point group: D_inf_h

    Geometry (in Angstrom), charge = 0, multiplicity = 1:

       Center              X                  Y                   Z               Mass       
    ------------   -----------------  -----------------  -----------------  -----------------
         F            0.000000000000     0.000000000000    -0.706020762566    18.998403162730
         F            0.000000000000     0.000000000000     0.706020762566    18.998403162730

  Running in d2h symmetry.

  Rotational constants: A = ************  B =      0.89005  C =      0.89005 [cm^-1]
  Rotational constants: A = ************  B =  26683.03085  C =  26683.03085 [MHz]
  Nuclear repulsion =   30.355590328857176

  Charge       = 0
  Multiplicity = 1
  Electrons    = 18
  Nalpha       = 9
  Nbeta        = 9

  ==> Algorithm <==

  SCF Algorithm Type is DF.
  DIIS enabled.
  MOM disabled.
  Fractional occupation disabled.
  Guess Type is SAD.
  Energy threshold   = 1.00e-08
  Density threshold  = 1.00e-08
  Integral threshold = 0.00e+00

  ==> Primary Basis <==

  Basis Set: AUG-CC-PV(Q+D)Z
    Blend: AUG-CC-PV(Q+D)Z
    Number of shells: 40
    Number of basis function: 160
    Number of Cartesian functions: 210
    Spherical Harmonics?: true
    Max angular momentum: 4

  ==> DFT Potential <==

   => Composite Functional: WB97X-V <= 

    wB97X-V Hyb-GGA Exchange-Correlation Functional

    N. Mardirossian and M. Head-Gordon, Phys. Chem. Chem. Phys. 16, 9904 (2014)

    Deriv               =              1
    GGA                 =           TRUE
    Meta                =          FALSE

    Exchange Hybrid     =           TRUE
    MP2 Hybrid          =          FALSE

   => Exchange-Correlation Functionals <=

    1.0000   wB97X-V range-separated functional

   => Exact (HF) Exchange <=

    0.8330            HF,LR [omega = 0.3000]
    0.1670               HF 

   => VV10 Non-Local Parameters <=

    VV10 B              =     6.0000E+00
    VV10 C              =     1.0000E-02

   => Molecular Quadrature <=

    Radial Scheme          =       TREUTLER
    Pruning Scheme         =           FLAT
    Nuclear Scheme         =       TREUTLER

    BS radius alpha        =              1
    Pruning alpha          =              1
    Radial Points          =             75
    Spherical Points       =            302
    Total Points           =          44842
    Total Blocks           =            416
    Max Points             =            256
    Max Functions          =            160

   => Loading Basis Set <=

    Name: (AUG-CC-PV(Q+D)Z AUX)
    Role: JKFIT
    Keyword: DF_BASIS_SCF
    atoms 1-2 entry F          line   388 file /work/zw18965/.conda/envs/p4env/share/psi4/basis/aug-cc-pvqz-jkfit.gbs 

  ==> Pre-Iterations <==

   -------------------------------------------------------
    Irrep   Nso     Nmo     Nalpha   Nbeta   Ndocc  Nsocc
   -------------------------------------------------------
     Ag        31      31       0       0       0       0
     B1g       11      11       0       0       0       0
     B2g       19      19       0       0       0       0
     B3g       19      19       0       0       0       0
     Au        11      11       0       0       0       0
     B1u       31      31       0       0       0       0
     B2u       19      19       0       0       0       0
     B3u       19      19       0       0       0       0
   -------------------------------------------------------
    Total     160     160       9       9       9       0
   -------------------------------------------------------

  ==> Integral Setup <==

  ==> DiskDFJK: Density-Fitted J/K Matrices <==

    J tasked:                  Yes
    K tasked:                  Yes
    wK tasked:                 Yes
    Omega:               3.000E-01
    OpenMP threads:             24
    Integrals threads:          24
    Memory [MiB]:           102814
    Algorithm:                Core
    Integral Cache:           NONE
    Schwarz Cutoff:          1E-12
    Fitting Condition:       1E-10

   => Auxiliary Basis Set <=

  Basis Set: (AUG-CC-PV(Q+D)Z AUX)
    Blend: AUG-CC-PVQZ-JKFIT
    Number of shells: 68
    Number of basis function: 284
    Number of Cartesian functions: 396
    Spherical Harmonics?: true
    Max angular momentum: 5

  Cached 100.0% of DFT collocation blocks in 0.178 [GiB].

  Minimum eigenvalue in the overlap matrix is 2.9389376649E-04.
  Using Symmetric Orthogonalization.

  SCF Guess: Superposition of Atomic Densities via on-the-fly atomic UHF.

  ==> Iterations <==

                           Total Energy        Delta E     RMS |[F,P]|

   @DF-RKS iter SAD:  -199.10102770384853   -1.99101e+02   0.00000e+00 
   @DF-RKS iter   1:  -199.51528616735627   -4.14258e-01   4.31734e-03 DIIS
   @DF-RKS iter   2:  -199.53200857530254   -1.67224e-02   1.93882e-03 DIIS
   @DF-RKS iter   3:  -199.53441898367723   -2.41041e-03   1.51145e-04 DIIS
   @DF-RKS iter   4:  -199.53445112628305   -3.21426e-05   8.00618e-05 DIIS
   @DF-RKS iter   5:  -199.53445673088402   -5.60460e-06   1.21777e-05 DIIS
   @DF-RKS iter   6:  -199.53445692131439   -1.90430e-07   3.85781e-07 DIIS
   @DF-RKS iter   7:  -199.53445692171633   -4.01940e-10   5.66243e-08 DIIS
   @DF-RKS iter   8:  -199.53445692172230   -5.96856e-12   3.80160e-09 DIIS
  Energy and wave function converged.


  ==> Post-Iterations <==

    Orbital Energies [Eh]
    ---------------------

    Doubly Occupied:                                                      

       1Ag   -24.872038     1B1u  -24.872032     2Ag    -1.482569  
       2B1u   -1.241177     3Ag    -0.713887     1B3u   -0.662144  
       1B2u   -0.662144     1B2g   -0.530250     1B3g   -0.530250  

    Virtual:                                                              

       3B1u   -0.051971     4B1u    0.117883     4Ag     0.141997  
       2B3u    0.160979     2B2u    0.160979     2B2g    0.211114  
       2B3g    0.211114     5Ag     0.216472     5B1u    0.351620  
       6Ag     0.535552     1B1g    0.535552     7Ag     0.666055  
       3B2u    0.683578     3B3u    0.683578     6B1u    0.708641  
       7B1u    0.730334     1Au     0.730335     3B2g    0.736566  
       3B3g    0.736566     4B2u    0.768160     4B3u    0.768160  
       8B1u    0.909929     8Ag     0.931815     4B2g    1.045848  
       4B3g    1.045848     9Ag     1.200918     5B2u    1.650171  
       5B3u    1.650171     6B2u    1.650577     6B3u    1.650577  
      10Ag     1.653484     2B1g    1.653485     9B1u    1.803848  
      11Ag     1.833397     3B1g    1.892187    12Ag     1.892192  
      10B1u    1.935077     2Au     1.935077     5B3g    1.944106  
       5B2g    1.944106     6B2g    1.979239     6B3g    1.979239  
      11B1u    2.202816     7B2u    2.264839     7B3u    2.264839  
      12B1u    2.379556     3Au     2.379569    13B1u    2.385308  
      13Ag     2.577607     7B2g    2.697171     7B3g    2.697171  
      14Ag     3.006478     8B2u    3.087766     8B3u    3.087766  
       8B2g    3.448116     8B3g    3.448116     9B2u    4.187365  
       9B3u    4.187365    15Ag     4.356435     4B1g    4.356438  
       5B1g    4.385069    16Ag     4.385085    17Ag     4.496249  
      10B3u    4.512992    10B2u    4.512992     4Au     4.613718  
      14B1u    4.613732    15B1u    4.660811    18Ag     4.864612  
       9B2g    5.074530     9B3g    5.074530    10B2g    5.087613  
      10B3g    5.087613    11B3u    5.117614    11B2u    5.117614  
      16B1u    5.178115    17B1u    5.260453     5Au     5.260465  
      11B2g    5.262739    11B3g    5.262739    19Ag     5.273740  
       6B1g    5.273744    12B2u    5.277055    12B3u    5.277055  
      20Ag     5.300144    21Ag     5.308072     7B1g    5.308075  
      18B1u    5.471473     6Au     5.471483    19B1u    5.510169  
      20B1u    5.748950    12B3g    5.887210    12B2g    5.887210  
      21B1u    6.189156     7Au     6.189164    13B2u    6.227137  
      13B3u    6.227137    13B3g    7.185663    13B2g    7.185663  
      22Ag     7.213025    22B1u    7.592380    14B3u   12.252388  
      14B2u   12.252388    23Ag    12.469011    14B2g   12.843324  
      14B3g   12.843324    15B3u   13.043526    15B2u   13.043526  
       8B1g   13.081524    24Ag    13.081802     8Au    13.176082  
      23B1u   13.176365    25Ag    13.318738     9B1g   13.318772  
      15B2g   13.325781    15B3g   13.325781    26Ag    13.391960  
      16B2u   13.512917    16B3u   13.512917    24B1u   13.535006  
       9Au    13.535050    16B2g   13.601998    16B3g   13.601998  
      25B1u   13.833467    26B1u   14.530386    27Ag    15.091540  
      10B1g   15.091583    17B3u   15.140064    17B2u   15.140064  
      18B2u   15.179899    18B3u   15.179899    17B2g   15.230986  
      17B3g   15.230986    27B1u   15.427415    10Au    15.427468  
      28Ag    15.499165    28B1u   15.771652    29Ag    15.985454  
      11B1g   15.985536    29B1u   16.112931    11Au    16.113002  
      18B3g   16.212562    18B2g   16.212562    19B3u   16.269490  
      19B2u   16.269490    19B2g   16.582250    19B3g   16.582250  
      30B1u   17.481965    30Ag    17.521538    31Ag    52.253955  
      31B1u   54.031750  

    Final Occupation by Irrep:
             Ag   B1g   B2g   B3g    Au   B1u   B2u   B3u 
    DOCC [     3,    0,    1,    1,    0,    2,    1,    1 ]

  @DF-RKS Final Energy:  -199.53445692172230

   => Energetics <=

    Nuclear Repulsion Energy =             30.3555903288571756
    One-Electron Energy =                -338.5133604683200019
    Two-Electron Energy =                 123.5559149704618136
    DFT Exchange-Correlation Energy =     -15.0096775111660428
    Empirical Dispersion Energy =           0.0000000000000000
    VV10 Nonlocal Energy =                  0.0770757584447951
    Total Energy =                       -199.5344569217222954

Computation Completed


Properties will be evaluated at   0.000000,   0.000000,   0.000000 [a0]

Properties computed using the SCF density matrix

  Nuclear Dipole Moment: [e a0]
     X:     0.0000      Y:     0.0000      Z:    -0.0000

  Electronic Dipole Moment: [e a0]
     X:     0.0000      Y:     0.0000      Z:     0.0000

  Dipole Moment: [e a0]
     X:     0.0000      Y:     0.0000      Z:    -0.0000     Total:     0.0000

  Dipole Moment: [D]
     X:     0.0000      Y:     0.0000      Z:    -0.0000     Total:     0.0000


*** tstop() called on bp1-compute00067.data.bp.acrc.priv at Tue Apr 27 16:35:58 2021
Module time:
	user time   =      63.18 seconds =       1.05 minutes
	system time =       2.05 seconds =       0.03 minutes
	total time  =          3 seconds =       0.05 minutes
Total time:
	user time   =     192.21 seconds =       3.20 minutes
	system time =       8.63 seconds =       0.14 minutes
	total time  =          9 seconds =       0.15 minutes

         ----------------------------------------------------------
                                   FINDIF
                     R. A. King and Jonathon Misiewicz
         ---------------------------------------------------------

  Computing gradient from energies.
    Using 3-point formula.
    Energy without displacement: -199.5344154831
    Check energies below for precision!
    Forces are for mass-weighted, symmetry-adapted cartesians (in au).

     Coord      Energy(-1)        Energy(+1)            Force
        0   -199.5343731050   -199.5344569217     -0.0083816675


-------------------------------------------------------------
  ## New Matrix (Symmetry 0) ##
  Irrep: 1 Size: 2 x 3

                 1                   2                   3

    1     0.00000000000000     0.00000000000000    -0.02583294876738
    2     0.00000000000000     0.00000000000000     0.02583294876738




			-----------------------------------------
			 OPTKING 2.0: for geometry optimizations 
			  - R.A. King,  Bethel University        
			-----------------------------------------
	At level 1: Red. Int., RFO, no backsteps, dynamic trust

	Internal coordinates to be generated automatically.
	Detected frag 1 with atoms:  1 2
	---Fragment 1 Bond Connectivity---
	 1 : 2
	 2 : 1

	---Fragment 1 Geometry and Gradient---
	 F           0.0000000000        0.0000000000       -1.3349970213
	 F           0.0000000000        0.0000000000        1.3349970213
	             0.0000000000        0.0000000000       -0.0258329488
	             0.0000000000        0.0000000000        0.0258329488

	Previous optimization step data not found.  Starting new optimization.

	---Fragment 1 Intrafragment Coordinates---
	 - Coordinate -           - BOHR/RAD -       - ANG/DEG -
	 R(1,2)           =         2.669994	       1.412900

	Current energy   :      -199.5344154831

	Generating empirical Hessian (Schlegel '84) for each fragment.
	Taking RFO optimization step.
	Going to follow RFO solution 1.
	Using RFO vector 1.
	Norm of target step-size    0.05911
	Projected energy change by RFO approximation:         0.0002193642

	Back-transformation to cartesian coordinates...
	Successfully converged to displaced geometry.

	--- Internal Coordinate Step in ANG or DEG, aJ/ANG or AJ/DEG ---
	 ---------------------------------------------------------------------------
	   Coordinate                Previous        Force       Change         New 
	   ----------                --------       ------       ------       ------
	    1 R(1,2)          =      1.412900    -0.212830    -0.031282     1.381618
	 ---------------------------------------------------------------------------
	Successfully symmetrized geometry.

  ==> Convergence Check <==

  Measures of convergence in internal coordinates in au.
  Criteria marked as inactive (o), active & met (*), and active & unmet ( ).
  --------------------------------------------------------------------------------------------- ~
   Step     Total Energy     Delta E     MAX Force     RMS Force      MAX Disp      RMS Disp    ~
  --------------------------------------------------------------------------------------------- ~
    Convergence Criteria    1.00e-06 *    3.00e-04 *             o    1.20e-03 *             o  ~
  --------------------------------------------------------------------------------------------- ~
      1    -199.53441548   -2.00e+02      2.58e-02      2.58e-02 o    5.91e-02      5.91e-02 o  ~
  ---------------------------------------------------------------------------------------------

	Writing optimization data to binary file.
	Structure for next step:
	Cartesian Geometry (in Angstrom)
	    F     0.0000000000   0.0000000000  -0.6908092080
	    F     0.0000000000   0.0000000000   0.6908092080
			--------------------------
			 OPTKING Finished Execution 
			--------------------------

    Structure for next step:
    Molecular point group: d2h
    Full point group: D_inf_h

    Geometry (in Angstrom), charge = 0, multiplicity = 1:

    F            0.000000000000     0.000000000000    -0.690809210745
    F            0.000000000000     0.000000000000     0.690809210745

gradient() will perform gradient computation by finite difference of analytic energies.

         ----------------------------------------------------------
                                   FINDIF
                     R. A. King and Jonathon Misiewicz
         ---------------------------------------------------------

  Using finite-differences of energies to determine gradients.
    Generating geometries for use with 3-point formula.
    Displacement size will be 5.00e-03.
    Number of atoms is 2.
    Number of symmetric SALCs is 1.
    Translations projected? 1. Rotations projected? 1.
    Number of geometries (including reference) is 3.

  //>>>>>>>>>>>>>>>>>>>>>>>>>>>>>>>>>>>//
  //    Loading displacement 1 of 3    //
  //<<<<<<<<<<<<<<<<<<<<<<<<<<<<<<<<<<<//

*** tstart() called on bp1-compute00067.data.bp.acrc.priv
*** at Tue Apr 27 16:35:58 2021

   => Loading Basis Set <=

    Name: AUG-CC-PV(Q+D)Z
    Role: ORBITAL
    Keyword: BASIS
    atoms 1-2 entry F          line   499 file /work/zw18965/.conda/envs/p4env/share/psi4/basis/aug-cc-pv_qpd_z.gbs 


         ---------------------------------------------------------
                                   SCF
               by Justin Turney, Rob Parrish, Andy Simmonett
                          and Daniel G. A. Smith
                              RKS Reference
                       24 Threads, 137329 MiB Core
         ---------------------------------------------------------

  ==> Geometry <==

    Molecular point group: d2h
    Full point group: D_inf_h

    Geometry (in Angstrom), charge = 0, multiplicity = 1:

       Center              X                  Y                   Z               Mass       
    ------------   -----------------  -----------------  -----------------  -----------------
         F            0.000000000000     0.000000000000    -0.690809210745    18.998403162730
         F            0.000000000000     0.000000000000     0.690809210745    18.998403162730

  Running in d2h symmetry.

  Rotational constants: A = ************  B =      0.92968  C =      0.92968 [cm^-1]
  Rotational constants: A = ************  B =  27871.08432  C =  27871.08432 [MHz]
  Nuclear repulsion =   31.024017483814703

  Charge       = 0
  Multiplicity = 1
  Electrons    = 18
  Nalpha       = 9
  Nbeta        = 9

  ==> Algorithm <==

  SCF Algorithm Type is DF.
  DIIS enabled.
  MOM disabled.
  Fractional occupation disabled.
  Guess Type is READ.
  Energy threshold   = 1.00e-08
  Density threshold  = 1.00e-08
  Integral threshold = 0.00e+00

  ==> Primary Basis <==

  Basis Set: AUG-CC-PV(Q+D)Z
    Blend: AUG-CC-PV(Q+D)Z
    Number of shells: 40
    Number of basis function: 160
    Number of Cartesian functions: 210
    Spherical Harmonics?: true
    Max angular momentum: 4

  ==> DFT Potential <==

   => Composite Functional: WB97X-V <= 

    wB97X-V Hyb-GGA Exchange-Correlation Functional

    N. Mardirossian and M. Head-Gordon, Phys. Chem. Chem. Phys. 16, 9904 (2014)

    Deriv               =              1
    GGA                 =           TRUE
    Meta                =          FALSE

    Exchange Hybrid     =           TRUE
    MP2 Hybrid          =          FALSE

   => Exchange-Correlation Functionals <=

    1.0000   wB97X-V range-separated functional

   => Exact (HF) Exchange <=

    0.8330            HF,LR [omega = 0.3000]
    0.1670               HF 

   => VV10 Non-Local Parameters <=

    VV10 B              =     6.0000E+00
    VV10 C              =     1.0000E-02

   => Molecular Quadrature <=

    Radial Scheme          =       TREUTLER
    Pruning Scheme         =           FLAT
    Nuclear Scheme         =       TREUTLER

    BS radius alpha        =              1
    Pruning alpha          =              1
    Radial Points          =             75
    Spherical Points       =            302
    Total Points           =          44826
    Total Blocks           =            414
    Max Points             =            255
    Max Functions          =            160

   => Loading Basis Set <=

    Name: (AUG-CC-PV(Q+D)Z AUX)
    Role: JKFIT
    Keyword: DF_BASIS_SCF
    atoms 1-2 entry F          line   388 file /work/zw18965/.conda/envs/p4env/share/psi4/basis/aug-cc-pvqz-jkfit.gbs 

   => Loading Basis Set <=

    Name: AUG-CC-PV(Q+D)Z
    Role: ORBITAL
    Keyword: BASIS
    atoms 1-2 entry F          line   499 file /work/zw18965/.conda/envs/p4env/share/psi4/basis/aug-cc-pv_qpd_z.gbs 

  Reading orbitals from file 180, no projection.

  ==> Pre-Iterations <==

   -------------------------------------------------------
    Irrep   Nso     Nmo     Nalpha   Nbeta   Ndocc  Nsocc
   -------------------------------------------------------
     Ag        31      31       0       0       0       0
     B1g       11      11       0       0       0       0
     B2g       19      19       0       0       0       0
     B3g       19      19       0       0       0       0
     Au        11      11       0       0       0       0
     B1u       31      31       0       0       0       0
     B2u       19      19       0       0       0       0
     B3u       19      19       0       0       0       0
   -------------------------------------------------------
    Total     160     160       9       9       9       0
   -------------------------------------------------------

  ==> Integral Setup <==

  ==> DiskDFJK: Density-Fitted J/K Matrices <==

    J tasked:                  Yes
    K tasked:                  Yes
    wK tasked:                 Yes
    Omega:               3.000E-01
    OpenMP threads:             24
    Integrals threads:          24
    Memory [MiB]:           102814
    Algorithm:                Core
    Integral Cache:           NONE
    Schwarz Cutoff:          1E-12
    Fitting Condition:       1E-10

   => Auxiliary Basis Set <=

  Basis Set: (AUG-CC-PV(Q+D)Z AUX)
    Blend: AUG-CC-PVQZ-JKFIT
    Number of shells: 68
    Number of basis function: 284
    Number of Cartesian functions: 396
    Spherical Harmonics?: true
    Max angular momentum: 5

  Cached 100.0% of DFT collocation blocks in 0.178 [GiB].

  Minimum eigenvalue in the overlap matrix is 2.7148359117E-04.
  Using Symmetric Orthogonalization.

  SCF Guess: Orbitals guess was supplied from a previous computation.

  ==> Iterations <==

                           Total Energy        Delta E     RMS |[F,P]|

   @DF-RKS iter   0:  -199.54732328729685   -1.99547e+02   1.23194e-03 
   @DF-RKS iter   1:  -199.53520077901567    1.21225e-02   3.09878e-04 DIIS
   @DF-RKS iter   2:  -199.53526550116433   -6.47221e-05   1.20210e-04 DIIS
   @DF-RKS iter   3:  -199.53527589172222   -1.03906e-05   6.21380e-06 DIIS
   @DF-RKS iter   4:  -199.53527599825676   -1.06535e-07   2.35177e-06 DIIS
   @DF-RKS iter   5:  -199.53527600330008   -5.04332e-09   4.47016e-07 DIIS
   @DF-RKS iter   6:  -199.53527600357174   -2.71655e-10   2.49796e-08 DIIS
   @DF-RKS iter   7:  -199.53527600357404   -2.30216e-12   3.48568e-09 DIIS
  Energy and wave function converged.


  ==> Post-Iterations <==

    Orbital Energies [Eh]
    ---------------------

    Doubly Occupied:                                                      

       1Ag   -24.870057     1B1u  -24.870051     2Ag    -1.497557  
       2B1u   -1.233380     3Ag    -0.720547     1B2u   -0.668218  
       1B3u   -0.668218     1B3g   -0.524996     1B2g   -0.524996  

    Virtual:                                                              

       3B1u   -0.031179     4B1u    0.119031     4Ag     0.142101  
       2B2u    0.160821     2B3u    0.160821     2B2g    0.211306  
       2B3g    0.211306     5Ag     0.215945     5B1u    0.352564  
       6Ag     0.535271     1B1g    0.535271     7Ag     0.661254  
       3B2u    0.688745     3B3u    0.688745     6B1u    0.713170  
       7B1u    0.732727     1Au     0.732727     3B2g    0.735424  
       3B3g    0.735424     4B3u    0.768587     4B2u    0.768587  
       8B1u    0.907018     8Ag     0.925022     4B2g    1.045181  
       4B3g    1.045181     9Ag     1.209981     5B3u    1.647196  
       5B2u    1.647196     2B1g    1.653037    10Ag     1.653038  
       6B3u    1.654417     6B2u    1.654417     9B1u    1.816580  
      11Ag     1.843577     3B1g    1.898924    12Ag     1.898930  
       2Au     1.935469    10B1u    1.935470     5B2g    1.951294  
       5B3g    1.951294     6B2g    1.986496     6B3g    1.986496  
      11B1u    2.207638     7B3u    2.277992     7B2u    2.277992  
      12B1u    2.380567    13B1u    2.398241     3Au     2.398253  
      13Ag     2.628456     7B2g    2.674203     7B3g    2.674203  
      14Ag     2.970423     8B3u    3.089007     8B2u    3.089007  
       8B2g    3.505545     8B3g    3.505545     9B3u    4.187870  
       9B2u    4.187870     4B1g    4.373664    15Ag     4.373681  
      16Ag     4.381743     5B1g    4.381747    17Ag     4.501307  
      10B3u    4.517103    10B2u    4.517103     4Au     4.624902  
      14B1u    4.624918    15B1u    4.731609    18Ag     4.909567  
       9B2g    5.086249     9B3g    5.086249    11B3u    5.113594  
      11B2u    5.113594    10B2g    5.129656    10B3g    5.129656  
      16B1u    5.190365    17B1u    5.253424     5Au     5.253434  
      11B2g    5.265203    11B3g    5.265203    12B3u    5.268149  
      12B2u    5.268149    19Ag     5.291023     6B1g    5.291025  
      20Ag     5.306942     7B1g    5.306944    21Ag     5.324321  
      18B1u    5.490508     6Au     5.490518    19B1u    5.497784  
      20B1u    5.754362    12B3g    5.903823    12B2g    5.903823  
      21B1u    6.265679     7Au     6.265685    13B3u    6.306203  
      13B2u    6.306203    22Ag     7.156170    13B3g    7.228638  
      13B2g    7.228638    22B1u    7.761131    14B2u   12.254344  
      14B3u   12.254344    23Ag    12.524232    14B3g   12.950518  
      14B2g   12.950518    15B2u   13.051574    15B3u   13.051574  
       8B1g   13.078220    24Ag    13.078504     8Au    13.179321  
      23B1u   13.179613    25Ag    13.317832     9B1g   13.317856  
      15B3g   13.332905    15B2g   13.332905    26Ag    13.401651  
      16B3u   13.402734    16B2u   13.402734    24B1u   13.553296  
       9Au    13.553328    16B2g   13.671766    16B3g   13.671766  
      25B1u   13.914465    26B1u   14.588205    27Ag    15.088011  
      10B1g   15.088037    17B2u   15.137094    17B3u   15.137094  
      18B2u   15.216233    18B3u   15.216233    17B3g   15.235294  
      17B2g   15.235294    27B1u   15.454556    10Au    15.454587  
      28Ag    15.589050    28B1u   15.590046    29Ag    15.986953  
      11B1g   15.987046    29B1u   16.120986    11Au    16.121069  
      19B3u   16.301027    19B2u   16.301027    18B3g   16.330206  
      18B2g   16.330206    19B3g   16.547548    19B2g   16.547548  
      30Ag    17.537381    30B1u   17.739236    31Ag    52.220641  
      31B1u   54.307230  

    Final Occupation by Irrep:
             Ag   B1g   B2g   B3g    Au   B1u   B2u   B3u 
    DOCC [     3,    0,    1,    1,    0,    2,    1,    1 ]

  @DF-RKS Final Energy:  -199.53527600357404

   => Energetics <=

    Nuclear Repulsion Energy =             31.0240174838147027
    One-Electron Energy =                -339.8206853752649863
    Two-Electron Energy =                 124.2071579051668806
    DFT Exchange-Correlation Energy =     -15.0227962926916447
    Empirical Dispersion Energy =           0.0000000000000000
    VV10 Nonlocal Energy =                  0.0770302754010162
    Total Energy =                       -199.5352760035740403

Computation Completed


Properties will be evaluated at   0.000000,   0.000000,   0.000000 [a0]

Properties computed using the SCF density matrix

  Nuclear Dipole Moment: [e a0]
     X:     0.0000      Y:     0.0000      Z:     0.0000

  Electronic Dipole Moment: [e a0]
     X:     0.0000      Y:     0.0000      Z:     0.0000

  Dipole Moment: [e a0]
     X:     0.0000      Y:     0.0000      Z:     0.0000     Total:     0.0000

  Dipole Moment: [D]
     X:     0.0000      Y:     0.0000      Z:     0.0000     Total:     0.0000


*** tstop() called on bp1-compute00067.data.bp.acrc.priv at Tue Apr 27 16:36:01 2021
Module time:
	user time   =      53.13 seconds =       0.89 minutes
	system time =       1.89 seconds =       0.03 minutes
	total time  =          3 seconds =       0.05 minutes
Total time:
	user time   =     245.85 seconds =       4.10 minutes
	system time =      10.55 seconds =       0.18 minutes
	total time  =         12 seconds =       0.20 minutes

  //>>>>>>>>>>>>>>>>>>>>>>>>>>>>>>>>>>>//
  //    Loading displacement 2 of 3    //
  //<<<<<<<<<<<<<<<<<<<<<<<<<<<<<<<<<<<//

*** tstart() called on bp1-compute00067.data.bp.acrc.priv
*** at Tue Apr 27 16:36:01 2021

   => Loading Basis Set <=

    Name: AUG-CC-PV(Q+D)Z
    Role: ORBITAL
    Keyword: BASIS
    atoms 1-2 entry F          line   499 file /work/zw18965/.conda/envs/p4env/share/psi4/basis/aug-cc-pv_qpd_z.gbs 


         ---------------------------------------------------------
                                   SCF
               by Justin Turney, Rob Parrish, Andy Simmonett
                          and Daniel G. A. Smith
                              RKS Reference
                       24 Threads, 137329 MiB Core
         ---------------------------------------------------------

  ==> Geometry <==

    Molecular point group: d2h
    Full point group: D_inf_h

    Geometry (in Angstrom), charge = 0, multiplicity = 1:

       Center              X                  Y                   Z               Mass       
    ------------   -----------------  -----------------  -----------------  -----------------
         F            0.000000000000     0.000000000000    -0.691238448179    18.998403162730
         F            0.000000000000     0.000000000000     0.691238448179    18.998403162730

  Running in d2h symmetry.

  Rotational constants: A = ************  B =      0.92853  C =      0.92853 [cm^-1]
  Rotational constants: A = ************  B =  27836.48092  C =  27836.48092 [MHz]
  Nuclear repulsion =   31.004752540324173

  Charge       = 0
  Multiplicity = 1
  Electrons    = 18
  Nalpha       = 9
  Nbeta        = 9

  ==> Algorithm <==

  SCF Algorithm Type is DF.
  DIIS enabled.
  MOM disabled.
  Fractional occupation disabled.
  Guess Type is READ.
  Energy threshold   = 1.00e-08
  Density threshold  = 1.00e-08
  Integral threshold = 0.00e+00

  ==> Primary Basis <==

  Basis Set: AUG-CC-PV(Q+D)Z
    Blend: AUG-CC-PV(Q+D)Z
    Number of shells: 40
    Number of basis function: 160
    Number of Cartesian functions: 210
    Spherical Harmonics?: true
    Max angular momentum: 4

  ==> DFT Potential <==

   => Composite Functional: WB97X-V <= 

    wB97X-V Hyb-GGA Exchange-Correlation Functional

    N. Mardirossian and M. Head-Gordon, Phys. Chem. Chem. Phys. 16, 9904 (2014)

    Deriv               =              1
    GGA                 =           TRUE
    Meta                =          FALSE

    Exchange Hybrid     =           TRUE
    MP2 Hybrid          =          FALSE

   => Exchange-Correlation Functionals <=

    1.0000   wB97X-V range-separated functional

   => Exact (HF) Exchange <=

    0.8330            HF,LR [omega = 0.3000]
    0.1670               HF 

   => VV10 Non-Local Parameters <=

    VV10 B              =     6.0000E+00
    VV10 C              =     1.0000E-02

   => Molecular Quadrature <=

    Radial Scheme          =       TREUTLER
    Pruning Scheme         =           FLAT
    Nuclear Scheme         =       TREUTLER

    BS radius alpha        =              1
    Pruning alpha          =              1
    Radial Points          =             75
    Spherical Points       =            302
    Total Points           =          44826
    Total Blocks           =            414
    Max Points             =            255
    Max Functions          =            160

   => Loading Basis Set <=

    Name: (AUG-CC-PV(Q+D)Z AUX)
    Role: JKFIT
    Keyword: DF_BASIS_SCF
    atoms 1-2 entry F          line   388 file /work/zw18965/.conda/envs/p4env/share/psi4/basis/aug-cc-pvqz-jkfit.gbs 

   => Loading Basis Set <=

    Name: AUG-CC-PV(Q+D)Z
    Role: ORBITAL
    Keyword: BASIS
    atoms 1-2 entry F          line   499 file /work/zw18965/.conda/envs/p4env/share/psi4/basis/aug-cc-pv_qpd_z.gbs 

  Reading orbitals from file 180, no projection.

  ==> Pre-Iterations <==

   -------------------------------------------------------
    Irrep   Nso     Nmo     Nalpha   Nbeta   Ndocc  Nsocc
   -------------------------------------------------------
     Ag        31      31       0       0       0       0
     B1g       11      11       0       0       0       0
     B2g       19      19       0       0       0       0
     B3g       19      19       0       0       0       0
     Au        11      11       0       0       0       0
     B1u       31      31       0       0       0       0
     B2u       19      19       0       0       0       0
     B3u       19      19       0       0       0       0
   -------------------------------------------------------
    Total     160     160       9       9       9       0
   -------------------------------------------------------

  ==> Integral Setup <==

  ==> DiskDFJK: Density-Fitted J/K Matrices <==

    J tasked:                  Yes
    K tasked:                  Yes
    wK tasked:                 Yes
    Omega:               3.000E-01
    OpenMP threads:             24
    Integrals threads:          24
    Memory [MiB]:           102814
    Algorithm:                Core
    Integral Cache:           NONE
    Schwarz Cutoff:          1E-12
    Fitting Condition:       1E-10

   => Auxiliary Basis Set <=

  Basis Set: (AUG-CC-PV(Q+D)Z AUX)
    Blend: AUG-CC-PVQZ-JKFIT
    Number of shells: 68
    Number of basis function: 284
    Number of Cartesian functions: 396
    Spherical Harmonics?: true
    Max angular momentum: 5

  Cached 100.0% of DFT collocation blocks in 0.178 [GiB].

  Minimum eigenvalue in the overlap matrix is 2.7209486979E-04.
  Using Symmetric Orthogonalization.

  SCF Guess: Orbitals guess was supplied from a previous computation.

  ==> Iterations <==

                           Total Energy        Delta E     RMS |[F,P]|

   @DF-RKS iter   0:  -199.53492469844059   -1.99535e+02   3.46843e-05 
   @DF-RKS iter   1:  -199.53527125127903   -3.46553e-04   8.63552e-06 DIIS
   @DF-RKS iter   2:  -199.53527130149519   -5.02162e-08   3.34316e-06 DIIS
   @DF-RKS iter   3:  -199.53527130947163   -7.97644e-09   1.61905e-07 DIIS
   @DF-RKS iter   4:  -199.53527130955715   -8.55209e-11   2.90923e-08 DIIS
   @DF-RKS iter   5:  -199.53527130955823   -1.08002e-12   1.16412e-08 DIIS
   @DF-RKS iter   6:  -199.53527130955854   -3.12639e-13   8.49377e-10 DIIS
  Energy and wave function converged.


  ==> Post-Iterations <==

    Orbital Energies [Eh]
    ---------------------

    Doubly Occupied:                                                      

       1Ag   -24.870115     1B1u  -24.870109     2Ag    -1.497114  
       2B1u   -1.233607     3Ag    -0.720358     1B2u   -0.668038  
       1B3u   -0.668038     1B2g   -0.525150     1B3g   -0.525150  

    Virtual:                                                              

       3B1u   -0.031786     4B1u    0.118992     4Ag     0.142098  
       2B2u    0.160826     2B3u    0.160826     2B3g    0.211300  
       2B2g    0.211300     5Ag     0.215960     5B1u    0.352535  
       6Ag     0.535278     1B1g    0.535279     7Ag     0.661391  
       3B2u    0.688602     3B3u    0.688602     6B1u    0.713040  
       7B1u    0.732660     1Au     0.732660     3B2g    0.735456  
       3B3g    0.735456     4B3u    0.768573     4B2u    0.768573  
       8B1u    0.907096     8Ag     0.925215     4B3g    1.045203  
       4B2g    1.045203     9Ag     1.209742     5B3u    1.647278  
       5B2u    1.647278     2B1g    1.653055    10Ag     1.653056  
       6B3u    1.654304     6B2u    1.654304     9B1u    1.816221  
      11Ag     1.843279     3B1g    1.898726    12Ag     1.898732  
       2Au     1.935463    10B1u    1.935464     5B2g    1.951090  
       5B3g    1.951090     6B3g    1.986273     6B2g    1.986273  
      11B1u    2.207563     7B3u    2.277619     7B2u    2.277619  
      12B1u    2.380627    13B1u    2.397708     3Au     2.397720  
      13Ag     2.627113     7B3g    2.674869     7B2g    2.674869  
      14Ag     2.971270     8B3u    3.088981     8B2u    3.088981  
       8B3g    3.503878     8B2g    3.503878     9B3u    4.187825  
       9B2u    4.187825     4B1g    4.373993    15Ag     4.374010  
      16Ag     4.381028     5B1g    4.381032    17Ag     4.501239  
      10B2u    4.517017    10B3u    4.517017     4Au     4.624577  
      14B1u    4.624592    15B1u    4.729739    18Ag     4.908169  
       9B3g    5.085887     9B2g    5.085887    11B2u    5.113712  
      11B3u    5.113712    10B2g    5.128449    10B3g    5.128449  
      16B1u    5.190175    17B1u    5.253643     5Au     5.253652  
      11B2g    5.265136    11B3g    5.265136    12B2u    5.268406  
      12B3u    5.268406    19Ag     5.290506     6B1g    5.290508  
      20Ag     5.306977     7B1g    5.306979    21Ag     5.323599  
      18B1u    5.489967     6Au     5.489977    19B1u    5.498099  
      20B1u    5.753950    12B2g    5.903451    12B3g    5.903451  
      21B1u    6.263475     7Au     6.263480    13B3u    6.303936  
      13B2u    6.303936    22Ag     7.157953    13B2g    7.227387  
      13B3g    7.227387    22B1u    7.756253    14B2u   12.254283  
      14B3u   12.254283    23Ag    12.522697    14B3g   12.947396  
      14B2g   12.947396    15B3u   13.051357    15B2u   13.051357  
       8B1g   13.078313    24Ag    13.078598     8Au    13.179230  
      23B1u   13.179522    25Ag    13.318053     9B1g   13.318078  
      15B2g   13.332695    15B3g   13.332695    26Ag    13.401083  
      16B2u   13.406089    16B3u   13.406089    24B1u   13.552646  
       9Au    13.552678    16B3g   13.669570    16B2g   13.669570  
      25B1u   13.912177    26B1u   14.586815    27Ag    15.088078  
      10B1g   15.088104    17B2u   15.137181    17B3u   15.137181  
      18B3u   15.215077    18B2u   15.215077    17B3g   15.235168  
      17B2g   15.235168    27B1u   15.453766    10Au    15.453798  
      28Ag    15.586385    28B1u   15.595142    29Ag    15.986911  
      11B1g   15.987003    29B1u   16.120752    11Au    16.120835  
      19B2u   16.300168    19B3u   16.300168    18B2g   16.326779  
      18B3g   16.326779    19B2g   16.548612    19B3g   16.548612  
      30Ag    17.537147    30B1u   17.731730    31Ag    52.221500  
      31B1u   54.299237  

    Final Occupation by Irrep:
             Ag   B1g   B2g   B3g    Au   B1u   B2u   B3u 
    DOCC [     3,    0,    1,    1,    0,    2,    1,    1 ]

  @DF-RKS Final Energy:  -199.53527130955854

   => Energetics <=

    Nuclear Repulsion Energy =             31.0047525403241728
    One-Electron Energy =                -339.7830664840720942
    Two-Electron Energy =                 124.1884220116842386
    DFT Exchange-Correlation Energy =     -15.0224109225190396
    Empirical Dispersion Energy =           0.0000000000000000
    VV10 Nonlocal Energy =                  0.0770315450242252
    Total Energy =                       -199.5352713095585386

Computation Completed


Properties will be evaluated at   0.000000,   0.000000,   0.000000 [a0]

Properties computed using the SCF density matrix

  Nuclear Dipole Moment: [e a0]
     X:     0.0000      Y:     0.0000      Z:    -0.0000

  Electronic Dipole Moment: [e a0]
     X:     0.0000      Y:     0.0000      Z:     0.0000

  Dipole Moment: [e a0]
     X:     0.0000      Y:     0.0000      Z:    -0.0000     Total:     0.0000

  Dipole Moment: [D]
     X:     0.0000      Y:     0.0000      Z:    -0.0000     Total:     0.0000


*** tstop() called on bp1-compute00067.data.bp.acrc.priv at Tue Apr 27 16:36:03 2021
Module time:
	user time   =      54.70 seconds =       0.91 minutes
	system time =       2.24 seconds =       0.04 minutes
	total time  =          2 seconds =       0.03 minutes
Total time:
	user time   =     300.69 seconds =       5.01 minutes
	system time =      12.79 seconds =       0.21 minutes
	total time  =         14 seconds =       0.23 minutes

  //>>>>>>>>>>>>>>>>>>>>>>>>>>>>>>>>>>>//
  //    Loading displacement 3 of 3    //
  //<<<<<<<<<<<<<<<<<<<<<<<<<<<<<<<<<<<//

*** tstart() called on bp1-compute00067.data.bp.acrc.priv
*** at Tue Apr 27 16:36:03 2021

   => Loading Basis Set <=

    Name: AUG-CC-PV(Q+D)Z
    Role: ORBITAL
    Keyword: BASIS
    atoms 1-2 entry F          line   499 file /work/zw18965/.conda/envs/p4env/share/psi4/basis/aug-cc-pv_qpd_z.gbs 


         ---------------------------------------------------------
                                   SCF
               by Justin Turney, Rob Parrish, Andy Simmonett
                          and Daniel G. A. Smith
                              RKS Reference
                       24 Threads, 137329 MiB Core
         ---------------------------------------------------------

  ==> Geometry <==

    Molecular point group: d2h
    Full point group: D_inf_h

    Geometry (in Angstrom), charge = 0, multiplicity = 1:

       Center              X                  Y                   Z               Mass       
    ------------   -----------------  -----------------  -----------------  -----------------
         F            0.000000000000     0.000000000000    -0.690379973312    18.998403162730
         F            0.000000000000     0.000000000000     0.690379973312    18.998403162730

  Running in d2h symmetry.

  Rotational constants: A = ************  B =      0.93084  C =      0.93084 [cm^-1]
  Rotational constants: A = ************  B =  27905.75227  C =  27905.75227 [MHz]
  Nuclear repulsion =   31.043306382910036

  Charge       = 0
  Multiplicity = 1
  Electrons    = 18
  Nalpha       = 9
  Nbeta        = 9

  ==> Algorithm <==

  SCF Algorithm Type is DF.
  DIIS enabled.
  MOM disabled.
  Fractional occupation disabled.
  Guess Type is READ.
  Energy threshold   = 1.00e-08
  Density threshold  = 1.00e-08
  Integral threshold = 0.00e+00

  ==> Primary Basis <==

  Basis Set: AUG-CC-PV(Q+D)Z
    Blend: AUG-CC-PV(Q+D)Z
    Number of shells: 40
    Number of basis function: 160
    Number of Cartesian functions: 210
    Spherical Harmonics?: true
    Max angular momentum: 4

  ==> DFT Potential <==

   => Composite Functional: WB97X-V <= 

    wB97X-V Hyb-GGA Exchange-Correlation Functional

    N. Mardirossian and M. Head-Gordon, Phys. Chem. Chem. Phys. 16, 9904 (2014)

    Deriv               =              1
    GGA                 =           TRUE
    Meta                =          FALSE

    Exchange Hybrid     =           TRUE
    MP2 Hybrid          =          FALSE

   => Exchange-Correlation Functionals <=

    1.0000   wB97X-V range-separated functional

   => Exact (HF) Exchange <=

    0.8330            HF,LR [omega = 0.3000]
    0.1670               HF 

   => VV10 Non-Local Parameters <=

    VV10 B              =     6.0000E+00
    VV10 C              =     1.0000E-02

   => Molecular Quadrature <=

    Radial Scheme          =       TREUTLER
    Pruning Scheme         =           FLAT
    Nuclear Scheme         =       TREUTLER

    BS radius alpha        =              1
    Pruning alpha          =              1
    Radial Points          =             75
    Spherical Points       =            302
    Total Points           =          44826
    Total Blocks           =            414
    Max Points             =            255
    Max Functions          =            160

   => Loading Basis Set <=

    Name: (AUG-CC-PV(Q+D)Z AUX)
    Role: JKFIT
    Keyword: DF_BASIS_SCF
    atoms 1-2 entry F          line   388 file /work/zw18965/.conda/envs/p4env/share/psi4/basis/aug-cc-pvqz-jkfit.gbs 

   => Loading Basis Set <=

    Name: AUG-CC-PV(Q+D)Z
    Role: ORBITAL
    Keyword: BASIS
    atoms 1-2 entry F          line   499 file /work/zw18965/.conda/envs/p4env/share/psi4/basis/aug-cc-pv_qpd_z.gbs 

  Reading orbitals from file 180, no projection.

  ==> Pre-Iterations <==

   -------------------------------------------------------
    Irrep   Nso     Nmo     Nalpha   Nbeta   Ndocc  Nsocc
   -------------------------------------------------------
     Ag        31      31       0       0       0       0
     B1g       11      11       0       0       0       0
     B2g       19      19       0       0       0       0
     B3g       19      19       0       0       0       0
     Au        11      11       0       0       0       0
     B1u       31      31       0       0       0       0
     B2u       19      19       0       0       0       0
     B3u       19      19       0       0       0       0
   -------------------------------------------------------
    Total     160     160       9       9       9       0
   -------------------------------------------------------

  ==> Integral Setup <==

  ==> DiskDFJK: Density-Fitted J/K Matrices <==

    J tasked:                  Yes
    K tasked:                  Yes
    wK tasked:                 Yes
    Omega:               3.000E-01
    OpenMP threads:             24
    Integrals threads:          24
    Memory [MiB]:           102814
    Algorithm:                Core
    Integral Cache:           NONE
    Schwarz Cutoff:          1E-12
    Fitting Condition:       1E-10

   => Auxiliary Basis Set <=

  Basis Set: (AUG-CC-PV(Q+D)Z AUX)
    Blend: AUG-CC-PVQZ-JKFIT
    Number of shells: 68
    Number of basis function: 284
    Number of Cartesian functions: 396
    Spherical Harmonics?: true
    Max angular momentum: 5

  Cached 100.0% of DFT collocation blocks in 0.178 [GiB].

  Minimum eigenvalue in the overlap matrix is 2.7087350313E-04.
  Using Symmetric Orthogonalization.

  SCF Guess: Orbitals guess was supplied from a previous computation.

  ==> Iterations <==

                           Total Energy        Delta E     RMS |[F,P]|

   @DF-RKS iter   0:  -199.53562832055411   -1.99536e+02   3.47737e-05 
   @DF-RKS iter   1:  -199.53527950331829    3.48817e-04   8.64729e-06 DIIS
   @DF-RKS iter   2:  -199.53527955366613   -5.03478e-08   3.34627e-06 DIIS
   @DF-RKS iter   3:  -199.53527956165172   -7.98559e-09   1.62063e-07 DIIS
   @DF-RKS iter   4:  -199.53527956173753   -8.58051e-11   2.91682e-08 DIIS
   @DF-RKS iter   5:  -199.53527956173861   -1.08002e-12   1.16802e-08 DIIS
   @DF-RKS iter   6:  -199.53527956173875   -1.42109e-13   8.49561e-10 DIIS
  Energy and wave function converged.


  ==> Post-Iterations <==

    Orbital Energies [Eh]
    ---------------------

    Doubly Occupied:                                                      

       1Ag   -24.869999     1B1u  -24.869993     2Ag    -1.498002  
       2B1u   -1.233152     3Ag    -0.720736     1B3u   -0.668398  
       1B2u   -0.668398     1B2g   -0.524841     1B3g   -0.524841  

    Virtual:                                                              

       3B1u   -0.030571     4B1u    0.119070     4Ag     0.142104  
       2B2u    0.160815     2B3u    0.160815     2B2g    0.211311  
       2B3g    0.211311     5Ag     0.215930     5B1u    0.352592  
       6Ag     0.535263     1B1g    0.535263     7Ag     0.661116  
       3B2u    0.688887     3B3u    0.688887     6B1u    0.713300  
       7B1u    0.732793     1Au     0.732794     3B3g    0.735392  
       3B2g    0.735392     4B2u    0.768600     4B3u    0.768600  
       8B1u    0.906940     8Ag     0.924829     4B3g    1.045160  
       4B2g    1.045160     9Ag     1.210219     5B3u    1.647114  
       5B2u    1.647114     2B1g    1.653020    10Ag     1.653020  
       6B2u    1.654530     6B3u    1.654530     9B1u    1.816939  
      11Ag     1.843876     3B1g    1.899123    12Ag     1.899128  
       2Au     1.935475    10B1u    1.935476     5B2g    1.951499  
       5B3g    1.951499     6B3g    1.986719     6B2g    1.986719  
      11B1u    2.207709     7B2u    2.278366     7B3u    2.278366  
      12B1u    2.380513    13B1u    2.398774     3Au     2.398785  
      13Ag     2.629790     7B3g    2.673537     7B2g    2.673537  
      14Ag     2.969589     8B3u    3.089032     8B2u    3.089032  
       8B2g    3.507214     8B3g    3.507214     9B3u    4.187916  
       9B2u    4.187916     4B1g    4.373335    15Ag     4.373352  
      16Ag     4.382458     5B1g    4.382462    17Ag     4.501371  
      10B2u    4.517188    10B3u    4.517188     4Au     4.625228  
      14B1u    4.625243    15B1u    4.733471    18Ag     4.910972  
       9B3g    5.086613     9B2g    5.086613    11B2u    5.113476  
      11B3u    5.113476    10B3g    5.130864    10B2g    5.130864  
      16B1u    5.190544    17B1u    5.253205     5Au     5.253214  
      11B3g    5.265269    11B2g    5.265269    12B2u    5.267893  
      12B3u    5.267893    19Ag     5.291543     6B1g    5.291545  
      20Ag     5.306907     7B1g    5.306909    21Ag     5.325045  
      18B1u    5.491049     6Au     5.491059    19B1u    5.497474  
      20B1u    5.754788    12B3g    5.904190    12B2g    5.904190  
      21B1u    6.267887     7Au     6.267892    13B3u    6.308473  
      13B2u    6.308473    22Ag     7.154377    13B3g    7.229890  
      13B2g    7.229890    22B1u    7.766016    14B2u   12.254405  
      14B3u   12.254405    23Ag    12.525763    14B2g   12.953645  
      14B3g   12.953645    15B2u   13.051790    15B3u   13.051790  
       8B1g   13.078126    24Ag    13.078410     8Au    13.179412  
      23B1u   13.179704    25Ag    13.317598     9B1g   13.317623  
      15B3g   13.333116    15B2g   13.333116    16B3u   13.399366  
      16B2u   13.399366    26Ag    13.402239    24B1u   13.553954  
       9Au    13.553986    16B2g   13.673974    16B3g   13.673974  
      25B1u   13.916753    26B1u   14.589578    27Ag    15.087947  
      10B1g   15.087972    17B3u   15.137006    17B2u   15.137006  
      18B3u   15.217397    18B2u   15.217397    17B2g   15.235420  
      17B3g   15.235420    27B1u   15.455346    10Au    15.455377  
      28B1u   15.584956    28Ag    15.591723    29Ag    15.986996  
      11B1g   15.987088    29B1u   16.121221    11Au    16.121305  
      19B2u   16.301883    19B3u   16.301883    18B2g   16.333636  
      18B3g   16.333636    19B3g   16.546481    19B2g   16.546481  
      30Ag    17.537603    30B1u   17.746757    31Ag    52.219788  
      31B1u   54.315233  

    Final Occupation by Irrep:
             Ag   B1g   B2g   B3g    Au   B1u   B2u   B3u 
    DOCC [     3,    0,    1,    1,    0,    2,    1,    1 ]

  @DF-RKS Final Energy:  -199.53527956173875

   => Energetics <=

    Nuclear Repulsion Energy =             31.0433063829100355
    One-Electron Energy =                -339.8583465909185293
    Two-Electron Energy =                 124.2259141384068499
    DFT Exchange-Correlation Energy =     -15.0231824987184517
    Empirical Dispersion Energy =           0.0000000000000000
    VV10 Nonlocal Energy =                  0.0770290065813537
    Total Energy =                       -199.5352795617387756

Computation Completed


Properties will be evaluated at   0.000000,   0.000000,   0.000000 [a0]

Properties computed using the SCF density matrix

  Nuclear Dipole Moment: [e a0]
     X:     0.0000      Y:     0.0000      Z:    -0.0000

  Electronic Dipole Moment: [e a0]
     X:     0.0000      Y:     0.0000      Z:     0.0000

  Dipole Moment: [e a0]
     X:     0.0000      Y:     0.0000      Z:    -0.0000     Total:     0.0000

  Dipole Moment: [D]
     X:     0.0000      Y:     0.0000      Z:    -0.0000     Total:     0.0000


*** tstop() called on bp1-compute00067.data.bp.acrc.priv at Tue Apr 27 16:36:05 2021
Module time:
	user time   =      51.39 seconds =       0.86 minutes
	system time =       1.78 seconds =       0.03 minutes
	total time  =          2 seconds =       0.03 minutes
Total time:
	user time   =     352.21 seconds =       5.87 minutes
	system time =      14.58 seconds =       0.24 minutes
	total time  =         16 seconds =       0.27 minutes

         ----------------------------------------------------------
                                   FINDIF
                     R. A. King and Jonathon Misiewicz
         ---------------------------------------------------------

  Computing gradient from energies.
    Using 3-point formula.
    Energy without displacement: -199.5352760036
    Check energies below for precision!
    Forces are for mass-weighted, symmetry-adapted cartesians (in au).

     Coord      Energy(-1)        Energy(+1)            Force
        0   -199.5352713096   -199.5352795617     -0.0008252180


-------------------------------------------------------------
  ## New Matrix (Symmetry 0) ##
  Irrep: 1 Size: 2 x 3

                 1                   2                   3

    1     0.00000000000000     0.00000000000000    -0.00254338587663
    2     0.00000000000000     0.00000000000000     0.00254338587663




			-----------------------------------------
			 OPTKING 2.0: for geometry optimizations 
			  - R.A. King,  Bethel University        
			-----------------------------------------
	At level 1: Red. Int., RFO, no backsteps, dynamic trust

	Previous internal coordinate definitions found.
	---Fragment 1 Geometry and Gradient---
	 F           0.0000000000        0.0000000000       -1.3054402133
	 F           0.0000000000        0.0000000000        1.3054402133
	             0.0000000000        0.0000000000       -0.0025433859
	             0.0000000000        0.0000000000        0.0025433859

	---Fragment 1 Intrafragment Coordinates---
	 - Coordinate -           - BOHR/RAD -       - ANG/DEG -
	 R(1,2)           =         2.610880	       1.381618

	Current energy   :      -199.5352760036

	Energy change for the previous step:
		Projected    :         0.0002193642
		Actual       :        -0.0008605205

	Performing BFGS update.
	Previous computed or guess Hessian on step 1.
	Steps to be used in Hessian update: 1
	Taking RFO optimization step.
	Going to follow RFO solution 1.
	Using RFO vector 1.
	Norm of target step-size    0.00646
	Projected energy change by RFO approximation:         0.0000044172

	Back-transformation to cartesian coordinates...
	Successfully converged to displaced geometry.

[...]
    VV10 Nonlocal Energy =                  0.0770264980220466
    Total Energy =                       -199.5352832257334796

Computation Completed


Properties will be evaluated at   0.000000,   0.000000,   0.000000 [a0]

Properties computed using the SCF density matrix

  Nuclear Dipole Moment: [e a0]
     X:     0.0000      Y:     0.0000      Z:    -0.0000

  Electronic Dipole Moment: [e a0]
     X:     0.0000      Y:     0.0000      Z:     0.0000

  Dipole Moment: [e a0]
     X:     0.0000      Y:     0.0000      Z:    -0.0000     Total:     0.0000

  Dipole Moment: [D]
     X:     0.0000      Y:     0.0000      Z:    -0.0000     Total:     0.0000


*** tstop() called on bp1-compute00067.data.bp.acrc.priv at Tue Apr 27 16:36:28 2021
Module time:
	user time   =      67.79 seconds =       1.13 minutes
	system time =       2.12 seconds =       0.04 minutes
	total time  =          3 seconds =       0.05 minutes
Total time:
	user time   =     840.55 seconds =      14.01 minutes
	system time =      31.39 seconds =       0.52 minutes
	total time  =         39 seconds =       0.65 minutes

  //>>>>>>>>>>>>>>>>>>>>>>>>>>>>>>>>>>>//
  //    Loading displacement 3 of 3    //
  //<<<<<<<<<<<<<<<<<<<<<<<<<<<<<<<<<<<//

*** tstart() called on bp1-compute00067.data.bp.acrc.priv
*** at Tue Apr 27 16:36:28 2021

   => Loading Basis Set <=

    Name: AUG-CC-PV(Q+D)Z
    Role: ORBITAL
    Keyword: BASIS
    atoms 1-2 entry F          line   499 file /work/zw18965/.conda/envs/p4env/share/psi4/basis/aug-cc-pv_qpd_z.gbs 


         ---------------------------------------------------------
                                   SCF
               by Justin Turney, Rob Parrish, Andy Simmonett
                          and Daniel G. A. Smith
                              RKS Reference
                       24 Threads, 137329 MiB Core
         ---------------------------------------------------------

  ==> Geometry <==

    Molecular point group: d2h
    Full point group: D_inf_h

    Geometry (in Angstrom), charge = 0, multiplicity = 1:

       Center              X                  Y                   Z               Mass       
    ------------   -----------------  -----------------  -----------------  -----------------
         F            0.000000000000     0.000000000000    -0.688671959084    18.998403162730
         F            0.000000000000     0.000000000000     0.688671959084    18.998403162730

  Running in d2h symmetry.

  Rotational constants: A = ************  B =      0.93546  C =      0.93546 [cm^-1]
  Rotational constants: A = ************  B =  28044.34519  C =  28044.34519 [MHz]
  Nuclear repulsion =   31.120298640646116

  Charge       = 0
  Multiplicity = 1
  Electrons    = 18
  Nalpha       = 9
  Nbeta        = 9

  ==> Algorithm <==

  SCF Algorithm Type is DF.
  DIIS enabled.
  MOM disabled.
  Fractional occupation disabled.
  Guess Type is SAD.
  Energy threshold   = 1.00e-10
  Density threshold  = 1.00e-10
  Integral threshold = 0.00e+00

  ==> Primary Basis <==

  Basis Set: AUG-CC-PV(Q+D)Z
    Blend: AUG-CC-PV(Q+D)Z
    Number of shells: 40
    Number of basis function: 160
    Number of Cartesian functions: 210
    Spherical Harmonics?: true
    Max angular momentum: 4

  ==> DFT Potential <==

   => Composite Functional: WB97X-V <= 

    wB97X-V Hyb-GGA Exchange-Correlation Functional

    N. Mardirossian and M. Head-Gordon, Phys. Chem. Chem. Phys. 16, 9904 (2014)

    Deriv               =              1
    GGA                 =           TRUE
    Meta                =          FALSE

    Exchange Hybrid     =           TRUE
    MP2 Hybrid          =          FALSE

   => Exchange-Correlation Functionals <=

    1.0000   wB97X-V range-separated functional

   => Exact (HF) Exchange <=

    0.8330            HF,LR [omega = 0.3000]
    0.1670               HF 

   => VV10 Non-Local Parameters <=

    VV10 B              =     6.0000E+00
    VV10 C              =     1.0000E-02

   => Molecular Quadrature <=

    Radial Scheme          =       TREUTLER
    Pruning Scheme         =           FLAT
    Nuclear Scheme         =       TREUTLER

    BS radius alpha        =              1
    Pruning alpha          =              1
    Radial Points          =             75
    Spherical Points       =            302
    Total Points           =          44826
    Total Blocks           =            414
    Max Points             =            255
    Max Functions          =            160

   => Loading Basis Set <=

    Name: (AUG-CC-PV(Q+D)Z AUX)
    Role: JKFIT
    Keyword: DF_BASIS_SCF
    atoms 1-2 entry F          line   388 file /work/zw18965/.conda/envs/p4env/share/psi4/basis/aug-cc-pvqz-jkfit.gbs 

  ==> Pre-Iterations <==

   -------------------------------------------------------
    Irrep   Nso     Nmo     Nalpha   Nbeta   Ndocc  Nsocc
   -------------------------------------------------------
     Ag        31      31       0       0       0       0
     B1g       11      11       0       0       0       0
     B2g       19      19       0       0       0       0
     B3g       19      19       0       0       0       0
     Au        11      11       0       0       0       0
     B1u       31      31       0       0       0       0
     B2u       19      19       0       0       0       0
     B3u       19      19       0       0       0       0
   -------------------------------------------------------
    Total     160     160       9       9       9       0
   -------------------------------------------------------

  ==> Integral Setup <==

  ==> DiskDFJK: Density-Fitted J/K Matrices <==

    J tasked:                  Yes
    K tasked:                  Yes
    wK tasked:                 Yes
    Omega:               3.000E-01
    OpenMP threads:             24
    Integrals threads:          24
    Memory [MiB]:           102814
    Algorithm:                Core
    Integral Cache:           NONE
    Schwarz Cutoff:          1E-12
    Fitting Condition:       1E-10

   => Auxiliary Basis Set <=

  Basis Set: (AUG-CC-PV(Q+D)Z AUX)
    Blend: AUG-CC-PVQZ-JKFIT
    Number of shells: 68
    Number of basis function: 284
    Number of Cartesian functions: 396
    Spherical Harmonics?: true
    Max angular momentum: 5

  Cached 100.0% of DFT collocation blocks in 0.178 [GiB].

  Minimum eigenvalue in the overlap matrix is 2.6845759312E-04.
  Using Symmetric Orthogonalization.

  SCF Guess: Superposition of Atomic Densities via on-the-fly atomic UHF.

  ==> Iterations <==

                           Total Energy        Delta E     RMS |[F,P]|

   @DF-RKS iter SAD:  -199.15022353795649   -1.99150e+02   0.00000e+00 
   @DF-RKS iter   1:  -199.51424048716098   -3.64017e-01   4.52982e-03 DIIS
   @DF-RKS iter   2:  -199.53261956581727   -1.83791e-02   2.03289e-03 DIIS
   @DF-RKS iter   3:  -199.53523928369023   -2.61972e-03   1.65416e-04 DIIS
   @DF-RKS iter   4:  -199.53527535165864   -3.60680e-05   8.82546e-05 DIIS
   @DF-RKS iter   5:  -199.53528214317606   -6.79152e-06   1.18132e-05 DIIS
   @DF-RKS iter   6:  -199.53528232990536   -1.86729e-07   3.86722e-07 DIIS
   @DF-RKS iter   7:  -199.53528233031514   -4.09784e-10   5.78821e-08 DIIS
   @DF-RKS iter   8:  -199.53528233032148   -6.33804e-12   3.67091e-09 DIIS
   @DF-RKS iter   9:  -199.53528233032151   -2.84217e-14   4.05825e-10 DIIS
   @DF-RKS iter  10:  -199.53528233032151    0.00000e+00   2.50423e-11 DIIS
  Energy and wave function converged.


  ==> Post-Iterations <==

    Orbital Energies [Eh]
    ---------------------

    Doubly Occupied:                                                      

       1Ag   -24.869768     1B1u  -24.869761     2Ag    -1.499785  
       2B1u   -1.232243     3Ag    -0.721488     1B3u   -0.669119  
       1B2u   -0.669119     1B2g   -0.524224     1B3g   -0.524224  

    Virtual:                                                              

       3B1u   -0.028141     4B1u    0.119232     4Ag     0.142116  
       2B2u    0.160795     2B3u    0.160795     2B2g    0.211333  
       2B3g    0.211333     5Ag     0.215869     5B1u    0.352708  
       6Ag     0.535232     1B1g    0.535232     7Ag     0.660570  
       3B2u    0.689450     3B3u    0.689450     6B1u    0.713818  
       7B1u    0.733058     1Au     0.733058     3B3g    0.735265  
       3B2g    0.735265     4B2u    0.768656     4B3u    0.768656  
       8B1u    0.906631     8Ag     0.924059     4B3g    1.045075  
       4B2g    1.045075     9Ag     1.211157     5B2u    1.646788  
       5B3u    1.646788     2B1g    1.652945    10Ag     1.652946  
       6B2u    1.654981     6B3u    1.654981     9B1u    1.818368  
      11Ag     1.845073     3B1g    1.899917    12Ag     1.899923  
       2Au     1.935495    10B1u    1.935496     5B3g    1.952313  
       5B2g    1.952313     6B3g    1.987619     6B2g    1.987619  
      11B1u    2.207954     7B2u    2.279853     7B3u    2.279853  
      12B1u    2.380338    13B1u    2.400897     3Au     2.400909  
      13Ag     2.635013     7B2g    2.670876     7B3g    2.670876  
      14Ag     2.966404     8B3u    3.089125     8B2u    3.089125  
       8B2g    3.513883     8B3g    3.513883     9B2u    4.188119  
       9B3u    4.188119     4B1g    4.372021    15Ag     4.372038  
      16Ag     4.385302     5B1g    4.385307    17Ag     4.501586  
      10B2u    4.517509    10B3u    4.517509     4Au     4.626531  
      14B1u    4.626546    15B1u    4.740802    18Ag     4.916631  
       9B2g    5.088078     9B3g    5.088078    11B2u    5.113005  
      11B3u    5.113005    10B3g    5.135682    10B2g    5.135682  
      16B1u    5.191142    17B1u    5.252321     5Au     5.252330  
      11B3g    5.265532    11B2g    5.265532    12B2u    5.266870  
      12B3u    5.266870    19Ag     5.293627     6B1g    5.293629  
      20Ag     5.306767     7B1g    5.306768    21Ag     5.327949  
      18B1u    5.493202     6Au     5.493212    19B1u    5.496298  
      20B1u    5.756629    12B2g    5.905591    12B3g    5.905591  
      21B1u    6.276696     7Au     6.276701    13B3u    6.317522  
      13B2u    6.317522    22Ag     7.147152    13B2g    7.234902  
      13B3g    7.234902    22B1u    7.785513    14B3u   12.254654  
      14B2u   12.254654    23Ag    12.531813    14B2g   12.966132  
      14B3g   12.966132    15B2u   13.052640    15B3u   13.052640  
       8B1g   13.077752    24Ag    13.078036     8Au    13.179774  
      23B1u   13.180065    25Ag    13.316548     9B1g   13.316571  
      15B3g   13.333963    15B2g   13.333963    16B3u   13.385843  
      16B2u   13.385843    26Ag    13.404770    24B1u   13.556658  
       9Au    13.556688    16B2g   13.682898    16B3g   13.682898  
      25B1u   13.925853    26B1u   14.594855    27Ag    15.087713  
      10B1g   15.087736    17B3u   15.136656    17B2u   15.136656  
      18B2u   15.222097    18B3u   15.222097    17B2g   15.235926  
      17B3g   15.235926    27B1u   15.458505    10Au    15.458534  
      28B1u   15.564789    28Ag    15.602432    29Ag    15.987164  
      11B1g   15.987257    29B1u   16.122160    11Au    16.122244  
      19B3u   16.305271    19B2u   16.305271    18B3g   16.347306  
      18B2g   16.347306    19B2g   16.542234    19B3g   16.542234  
      30Ag    17.538365    30B1u   17.776817    31Ag    52.216467  
      31B1u   54.347182  

    Final Occupation by Irrep:
             Ag   B1g   B2g   B3g    Au   B1u   B2u   B3u 
    DOCC [     3,    0,    1,    1,    0,    2,    1,    1 ]

  @DF-RKS Final Energy:  -199.53528233032151

   => Energetics <=

    Nuclear Repulsion Energy =             31.1202986406461157
    One-Electron Energy =                -340.0086387090674407
    Two-Electron Energy =                 124.3007622742859297
    DFT Exchange-Correlation Energy =     -15.0247285026293369
    Empirical Dispersion Energy =           0.0000000000000000
    VV10 Nonlocal Energy =                  0.0770239664432062
    Total Energy =                       -199.5352823303215075

Computation Completed


Properties will be evaluated at   0.000000,   0.000000,   0.000000 [a0]

Properties computed using the SCF density matrix

  Nuclear Dipole Moment: [e a0]
     X:     0.0000      Y:     0.0000      Z:    -0.0000

  Electronic Dipole Moment: [e a0]
     X:     0.0000      Y:     0.0000      Z:     0.0000

  Dipole Moment: [e a0]
     X:     0.0000      Y:     0.0000      Z:    -0.0000     Total:     0.0000

  Dipole Moment: [D]
     X:     0.0000      Y:     0.0000      Z:    -0.0000     Total:     0.0000


*** tstop() called on bp1-compute00067.data.bp.acrc.priv at Tue Apr 27 16:36:31 2021
Module time:
	user time   =      68.09 seconds =       1.13 minutes
	system time =       2.11 seconds =       0.04 minutes
	total time  =          3 seconds =       0.05 minutes
Total time:
	user time   =     908.77 seconds =      15.15 minutes
	system time =      33.51 seconds =       0.56 minutes
	total time  =         42 seconds =       0.70 minutes

         ----------------------------------------------------------
                                   FINDIF
                     R. A. King and Jonathon Misiewicz
         ---------------------------------------------------------

  Computing second-derivative from energies using projected, 
  symmetry-adapted, cartesian coordinates.

  3 energies passed in, including the reference geometry.
    Using 3-point formula.
    Energy without displacement: -199.5352833592
    Check energies below for precision!
    0: -1 :      -199.5352832257
    0: 1  :      -199.5352823303

-------------------------------------------------------------


  ==> Harmonic Vibrational Analysis <==

  non-mass-weighted Hessian:       Symmetric? True   Hermitian? True   Lin Dep Dim?  5 (0)
  projection of translations (True) and rotations (True) removed 5 degrees of freedom (5)
  total projector:                 Symmetric? True   Hermitian? True   Lin Dep Dim?  5 (5)
  mass-weighted Hessian:           Symmetric? True   Hermitian? True   Lin Dep Dim?  5 (0)
  pre-proj  low-frequency mode:    0.0000  [cm^-1]
  pre-proj  low-frequency mode:    0.0000  [cm^-1]
  pre-proj  low-frequency mode:    0.0000  [cm^-1]
  pre-proj  low-frequency mode:    0.0000  [cm^-1]
  pre-proj  low-frequency mode:    0.0000  [cm^-1]
  pre-proj  all modes:['0.0000' '0.0000' '0.0000' '0.0000' '0.0000' '1108.4473']
  projected mass-weighted Hessian: Symmetric? True   Hermitian? True   Lin Dep Dim?  5 (5)
  post-proj low-frequency mode:    0.0000  [cm^-1] (TR)
  post-proj low-frequency mode:    0.0000  [cm^-1] (TR)
  post-proj low-frequency mode:    0.0000  [cm^-1] (TR)
  post-proj low-frequency mode:    0.0000  [cm^-1] (TR)
  post-proj low-frequency mode:    0.0000  [cm^-1] (TR)
  post-proj  all modes:['0.0000' '0.0000' '0.0000' '0.0000' '0.0000' '1108.4473']

  Vibration                       6           
  Freq [cm^-1]                1108.4473       
  Irrep                           Ag          
  Reduced mass [u]             18.9984        
  Force const [mDyne/A]        13.7530        
  Turning point v=0 [a0]        0.0756        
  RMS dev v=0 [a0 u^1/2]        0.2330        
  Char temp [K]               1594.8089       
  ----------------------------------------------------------------------------------
      1   F                0.00  0.00  0.71   
      2   F                0.00  0.00 -0.71   

  ==> Thermochemistry Components <==

  Entropy, S
    Electronic S            0.000 [cal/(mol K)]        0.000 [J/(mol K)]       0.00000000 [mEh/K] (multiplicity = 1)
    Translational S        36.834 [cal/(mol K)]      154.112 [J/(mol K)]       0.05869802 [mEh/K] (mol. weight = 37.9968 [u], P = 101325.00 [Pa])
    Rotational S           11.344 [cal/(mol K)]       47.464 [J/(mol K)]       0.01807812 [mEh/K] (symmetry no. = 2)
    Vibrational S           0.060 [cal/(mol K)]        0.252 [J/(mol K)]       0.00009598 [mEh/K]
  Total S                  48.238 [cal/(mol K)]      201.828 [J/(mol K)]       0.07687212 [mEh/K]
  Correction S              0.000 [cal/(mol K)]        0.000 [J/(mol K)]       0.00000000 [mEh/K]

  Constant volume heat capacity, Cv
    Electronic Cv           0.000 [cal/(mol K)]        0.000 [J/(mol K)]       0.00000000 [mEh/K]
    Translational Cv        2.981 [cal/(mol K)]       12.472 [J/(mol K)]       0.00475022 [mEh/K]
    Rotational Cv           1.987 [cal/(mol K)]        8.314 [J/(mol K)]       0.00316681 [mEh/K]
    Vibrational Cv          0.273 [cal/(mol K)]        1.141 [J/(mol K)]       0.00043477 [mEh/K]
  Total Cv                  5.241 [cal/(mol K)]       21.928 [J/(mol K)]       0.00835180 [mEh/K]
  Correction Cv             0.000 [cal/(mol K)]        0.000 [J/(mol K)]       0.00000000 [mEh/K]

  Constant pressure heat capacity, Cp
    Electronic Cp           0.000 [cal/(mol K)]        0.000 [J/(mol K)]       0.00000000 [mEh/K]
    Translational Cp        4.968 [cal/(mol K)]       20.786 [J/(mol K)]       0.00791703 [mEh/K]
    Rotational Cp           1.987 [cal/(mol K)]        8.314 [J/(mol K)]       0.00316681 [mEh/K]
    Vibrational Cp          0.273 [cal/(mol K)]        1.141 [J/(mol K)]       0.00043477 [mEh/K]
  Total Cp                  7.228 [cal/(mol K)]       30.242 [J/(mol K)]       0.01151861 [mEh/K]
  Correction Cp             0.000 [cal/(mol K)]        0.000 [J/(mol K)]       0.00000000 [mEh/K]

  ==> Thermochemistry Energy Analysis <==

  Raw electronic energy, E0
  Total E0, Electronic energy at well bottom at 0 [K]                 -199.53528336 [Eh]

  Zero-point energy, ZPE_vib = Sum_i nu_i / 2
    Electronic ZPE          0.000 [kcal/mol]        0.000 [kJ/mol]       0.00000000 [Eh]
    Translational ZPE       0.000 [kcal/mol]        0.000 [kJ/mol]       0.00000000 [Eh]
    Rotational ZPE          0.000 [kcal/mol]        0.000 [kJ/mol]       0.00000000 [Eh]
    Vibrational ZPE         1.585 [kcal/mol]        6.630 [kJ/mol]       0.00252523 [Eh]         554.224 [cm^-1]
  Correction ZPE            1.585 [kcal/mol]        6.630 [kJ/mol]       0.00252523 [Eh]         554.224 [cm^-1]
  Total ZPE, Electronic energy at 0 [K]                               -199.53275813 [Eh]

  Thermal Energy, E (includes ZPE)
    Electronic E            0.000 [kcal/mol]        0.000 [kJ/mol]       0.00000000 [Eh]
    Translational E         0.889 [kcal/mol]        3.718 [kJ/mol]       0.00141628 [Eh]
    Rotational E            0.592 [kcal/mol]        2.479 [kJ/mol]       0.00094418 [Eh]
    Vibrational E           1.600 [kcal/mol]        6.693 [kJ/mol]       0.00254935 [Eh]
  Correction E              3.081 [kcal/mol]       12.891 [kJ/mol]       0.00490981 [Eh]
  Total E, Electronic energy at  298.15 [K]                           -199.53037355 [Eh]

  Enthalpy, H_trans = E_trans + k_B * T
    Electronic H            0.000 [kcal/mol]        0.000 [kJ/mol]       0.00000000 [Eh]
    Translational H         1.481 [kcal/mol]        6.197 [kJ/mol]       0.00236046 [Eh]
    Rotational H            0.592 [kcal/mol]        2.479 [kJ/mol]       0.00094418 [Eh]
    Vibrational H           1.600 [kcal/mol]        6.693 [kJ/mol]       0.00254935 [Eh]
  Correction H              3.673 [kcal/mol]       15.370 [kJ/mol]       0.00585399 [Eh]
  Total H, Enthalpy at  298.15 [K]                                    -199.52942937 [Eh]

  Gibbs free energy, G = H - T * S
    Electronic G            0.000 [kcal/mol]        0.000 [kJ/mol]       0.00000000 [Eh]
    Translational G        -9.501 [kcal/mol]      -39.751 [kJ/mol]      -0.01514035 [Eh]
    Rotational G           -2.790 [kcal/mol]      -11.672 [kJ/mol]      -0.00444581 [Eh]
    Vibrational G           1.582 [kcal/mol]        6.618 [kJ/mol]       0.00252073 [Eh]
  Correction G            -10.709 [kcal/mol]      -44.805 [kJ/mol]      -0.01706543 [Eh]
  Total G, Free enthalpy at  298.15 [K]                               -199.55234879 [Eh]

    Psi4 stopped on: Tuesday, 27 April 2021 04:36PM
    Psi4 wall time for execution: 0:00:42.20

*** Psi4 exiting successfully. Buy a developer a beer!
