
    -----------------------------------------------------------------------
          Psi4: An Open-Source Ab Initio Electronic Structure Package
                               Psi4 1.3.2 release

                         Git: Rev {HEAD} ecbda83 


    R. M. Parrish, L. A. Burns, D. G. A. Smith, A. C. Simmonett,
    A. E. DePrince III, E. G. Hohenstein, U. Bozkaya, A. Yu. Sokolov,
    R. Di Remigio, R. M. Richard, J. F. Gonthier, A. M. James,
    H. R. McAlexander, A. Kumar, M. Saitow, X. Wang, B. P. Pritchard,
    P. Verma, H. F. Schaefer III, K. Patkowski, R. A. King, E. F. Valeev,
    F. A. Evangelista, J. M. Turney, T. D. Crawford, and C. D. Sherrill,
    J. Chem. Theory Comput. 13(7) pp 3185--3197 (2017).
    (doi: 10.1021/acs.jctc.7b00174)


                         Additional Contributions by
    P. Kraus, H. Kruse, M. H. Lechner, M. C. Schieber, R. A. Shaw,
    A. Alenaizan, R. Galvelis, Z. L. Glick, S. Lehtola, and J. P. Misiewicz

    -----------------------------------------------------------------------


    Psi4 started on: Tuesday, 20 April 2021 11:05AM

    Process ID: 128785
    Host:       bp1-compute00154.data.bp.acrc.priv
    PSIDATADIR: /work/zw18965/.conda/envs/p4env/share/psi4
    Memory:     500.0 MiB
    Threads:    24
    
  ==> Input File <==

--------------------------------------------------------------------------
memory 144 GB

molecule {
0 1
O     0.013698323616   0.010141564828  -0.007165043560
H     0.268966483226   0.893269695541   0.262654076446
H     0.601535188188  -0.248811260993  -0.717989031489}

set basis aug-cc-pV(Q+d)Z
 
optimize("wB97X-V")
frequencies("wB97X-V")--------------------------------------------------------------------------

  Memory set to 134.110 GiB by Python driver.
gradient() will perform gradient computation by finite difference of analytic energies.

         ----------------------------------------------------------
                                   FINDIF
                     R. A. King and Jonathon Misiewicz
         ---------------------------------------------------------

  Using finite-differences of energies to determine gradients.
    Generating geometries for use with 3-point formula.
    Displacement size will be 5.00e-03.
    Number of atoms is 3.
    Number of symmetric SALCs is 2.
    Translations projected? 1. Rotations projected? 1.
    Number of geometries (including reference) is 5.

  //>>>>>>>>>>>>>>>>>>>>>>>>>>>>>>>>>>>//
  //    Loading displacement 1 of 5    //
  //<<<<<<<<<<<<<<<<<<<<<<<<<<<<<<<<<<<//

*** tstart() called on bp1-compute00154.data.bp.acrc.priv
*** at Tue Apr 20 11:05:06 2021

   => Loading Basis Set <=

    Name: AUG-CC-PV(Q+D)Z
    Role: ORBITAL
    Keyword: BASIS
    atoms 1   entry O          line   439 file /work/zw18965/.conda/envs/p4env/share/psi4/basis/aug-cc-pv_qpd_z.gbs 
    atoms 2-3 entry H          line    56 file /work/zw18965/.conda/envs/p4env/share/psi4/basis/aug-cc-pv_qpd_z.gbs 


         ---------------------------------------------------------
                                   SCF
               by Justin Turney, Rob Parrish, Andy Simmonett
                          and Daniel G. A. Smith
                              RKS Reference
                       24 Threads, 137329 MiB Core
         ---------------------------------------------------------

  ==> Geometry <==

    Molecular point group: c2v
    Full point group: C2v

    Geometry (in Angstrom), charge = 0, multiplicity = 1:

       Center              X                  Y                   Z               Mass       
    ------------   -----------------  -----------------  -----------------  -----------------
         O           -0.000000000000     0.000000000000    -0.063676174548    15.994914619570
         H            0.000000000000    -0.770813168014     0.505293549288     1.007825032230
         H           -0.000000000000     0.770813168014     0.505293549288     1.007825032230

  Running in c2v symmetry.

  Rotational constants: A =     29.09032  B =     14.07612  C =      9.48605 [cm^-1]
  Rotational constants: A = 872105.75298  B = 421991.60581  C = 284384.55935 [MHz]
  Nuclear repulsion =    9.180735794990369

  Charge       = 0
  Multiplicity = 1
  Electrons    = 10
  Nalpha       = 5
  Nbeta        = 5

  ==> Algorithm <==

  SCF Algorithm Type is DF.
  DIIS enabled.
  MOM disabled.
  Fractional occupation disabled.
  Guess Type is SAD.
  Energy threshold   = 1.00e-08
  Density threshold  = 1.00e-08
  Integral threshold = 0.00e+00

  ==> Primary Basis <==

  Basis Set: AUG-CC-PV(Q+D)Z
    Blend: AUG-CC-PV(Q+D)Z
    Number of shells: 48
    Number of basis function: 172
    Number of Cartesian functions: 215
    Spherical Harmonics?: true
    Max angular momentum: 4

  ==> DFT Potential <==

   => Composite Functional: WB97X-V <= 

    wB97X-V Hyb-GGA Exchange-Correlation Functional

    N. Mardirossian and M. Head-Gordon, Phys. Chem. Chem. Phys. 16, 9904 (2014)

    Deriv               =              1
    GGA                 =           TRUE
    Meta                =          FALSE

    Exchange Hybrid     =           TRUE
    MP2 Hybrid          =          FALSE

   => Exchange-Correlation Functionals <=

    1.0000   wB97X-V range-separated functional

   => Exact (HF) Exchange <=

    0.8330            HF,LR [omega = 0.3000]
    0.1670               HF 

   => VV10 Non-Local Parameters <=

    VV10 B              =     6.0000E+00
    VV10 C              =     1.0000E-02

   => Molecular Quadrature <=

    Radial Scheme          =       TREUTLER
    Pruning Scheme         =           FLAT
    Nuclear Scheme         =       TREUTLER

    BS radius alpha        =              1
    Pruning alpha          =              1
    Radial Points          =             75
    Spherical Points       =            302
    Total Points           =          67950
    Total Blocks           =            585
    Max Points             =            256
    Max Functions          =            172

   => Loading Basis Set <=

    Name: (AUG-CC-PV(Q+D)Z AUX)
    Role: JKFIT
    Keyword: DF_BASIS_SCF
    atoms 1   entry O          line   318 file /work/zw18965/.conda/envs/p4env/share/psi4/basis/aug-cc-pvqz-jkfit.gbs 
    atoms 2-3 entry H          line    70 file /work/zw18965/.conda/envs/p4env/share/psi4/basis/aug-cc-pvqz-jkfit.gbs 

  ==> Pre-Iterations <==

   -------------------------------------------------------
    Irrep   Nso     Nmo     Nalpha   Nbeta   Ndocc  Nsocc
   -------------------------------------------------------
     A1        61      61       0       0       0       0
     A2        27      27       0       0       0       0
     B1        35      35       0       0       0       0
     B2        49      49       0       0       0       0
   -------------------------------------------------------
    Total     172     172       5       5       5       0
   -------------------------------------------------------

  ==> Integral Setup <==

  ==> DiskDFJK: Density-Fitted J/K Matrices <==

    J tasked:                  Yes
    K tasked:                  Yes
    wK tasked:                 Yes
    Omega:               3.000E-01
    OpenMP threads:             24
    Integrals threads:          24
    Memory [MiB]:           102673
    Algorithm:                Core
    Integral Cache:           NONE
    Schwarz Cutoff:          1E-12
    Fitting Condition:       1E-10

   => Auxiliary Basis Set <=

  Basis Set: (AUG-CC-PV(Q+D)Z AUX)
    Blend: AUG-CC-PVQZ-JKFIT
    Number of shells: 70
    Number of basis function: 294
    Number of Cartesian functions: 400
    Spherical Harmonics?: true
    Max angular momentum: 5

  Cached 100.0% of DFT collocation blocks in 0.315 [GiB].

  Minimum eigenvalue in the overlap matrix is 8.5928907246E-05.
  Using Symmetric Orthogonalization.

  SCF Guess: Superposition of Atomic Densities via on-the-fly atomic UHF.

  ==> Iterations <==

                           Total Energy        Delta E     RMS |[F,P]|

   @DF-RKS iter SAD:   -75.95284959250880   -7.59528e+01   0.00000e+00 
   @DF-RKS iter   1:   -76.30586530362926   -3.53016e-01   6.88565e-03 DIIS
   @DF-RKS iter   2:   -76.28604345882387    1.98218e-02   7.64906e-03 DIIS
   @DF-RKS iter   3:   -76.43926301819013   -1.53220e-01   1.79793e-04 DIIS
   @DF-RKS iter   4:   -76.43943295478704   -1.69937e-04   5.43172e-05 DIIS
   @DF-RKS iter   5:   -76.43944531356904   -1.23588e-05   9.46149e-06 DIIS
   @DF-RKS iter   6:   -76.43944586887839   -5.55309e-07   1.52009e-06 DIIS
   @DF-RKS iter   7:   -76.43944589265594   -2.37775e-08   2.97009e-07 DIIS
   @DF-RKS iter   8:   -76.43944589367044   -1.01450e-09   4.46452e-08 DIIS
   @DF-RKS iter   9:   -76.43944589370246   -3.20171e-11   7.53682e-09 DIIS
  Energy and wave function converged.


  ==> Post-Iterations <==

    Orbital Energies [Eh]
    ---------------------

    Doubly Occupied:                                                      

       1A1   -19.216424     2A1    -1.144471     1B2    -0.652250  
       3A1    -0.501978     1B1    -0.430070  

    Virtual:                                                              

       4A1     0.026445     2B2     0.046715     5A1     0.110831  
       2B1     0.132501     6A1     0.141276     3B2     0.153679  
       4B2     0.181514     7A1     0.195162     1A2     0.207497  
       3B1     0.235573     8A1     0.251820     5B2     0.292638  
       9A1     0.327664     6B2     0.355035     7B2     0.444993  
      10A1     0.476602    11A1     0.515579     2A2     0.520505  
       4B1     0.526756    12A1     0.588911     5B1     0.611429  
       6B1     0.623630     8B2     0.642813     3A2     0.648916  
      13A1     0.667826    14A1     0.672152     9B2     0.698240  
      15A1     0.731342    10B2     0.745202    11B2     0.761535  
       7B1     0.763758    16A1     0.827547     4A2     0.842073  
      12B2     0.925449     5A2     1.076061    17A1     1.077112  
       8B1     1.148255    18A1     1.250882    13B2     1.363068  
      19A1     1.405003     9B1     1.435827    14B2     1.439275  
      20A1     1.449646     6A2     1.483029    10B1     1.527127  
      15B2     1.541634    21A1     1.544586    11B1     1.593417  
      22A1     1.607581     7A2     1.644700    16B2     1.648435  
      23A1     1.650618    12B1     1.695721    24A1     1.715315  
      17B2     1.727029    18B2     1.800181    25A1     1.801432  
       8A2     1.847106    19B2     1.850720    13B1     1.915110  
      20B2     1.957446    26A1     1.958377     9A2     1.969643  
      14B1     2.023668    10A2     2.113638    27A1     2.158885  
      21B2     2.258545    28A1     2.351761    15B1     2.467173  
      22B2     2.512721    11A2     2.760673    29A1     2.837773  
      16B1     2.861185    23B2     2.887379    30A1     2.908894  
      24B2     2.932873    12A2     3.140639    31A1     3.155323  
      17B1     3.161326    25B2     3.370751    32A1     3.407853  
      13A2     3.503787    26B2     3.536174    33A1     3.554337  
      27B2     3.610392    18B1     3.711797    34A1     3.864663  
      19B1     3.957394    28B2     3.967351    14A2     3.971742  
      35A1     3.981040    20B1     4.028976    36A1     4.086038  
      37A1     4.226980    29B2     4.377078    21B1     4.482432  
      38A1     4.537482    22B1     4.579848    30B2     4.623925  
      15A2     4.631764    16A2     4.654265    39A1     4.785772  
      40A1     5.013835    31B2     5.070346    23B1     5.271208  
      41A1     5.286956    32B2     5.589005    17A2     5.638307  
      33B2     5.833802    42A1     5.942508    18A2     6.652736  
      24B1     6.661041    34B2     6.671169    43A1     6.756216  
      35B2     7.473931    25B1     7.539405    19A2     7.579212  
      36B2     7.620817    20A2     7.636838    44A1     7.685972  
      37B2     7.720026    45A1     7.795520    26B1     8.002763  
      46A1     8.075822    38B2     8.254779    21A2     8.356715  
      47A1     8.401142    27B1     8.482486    48A1     8.489451  
      28B1     8.598711    22A2     8.724028    39B2     8.789607  
      49A1     8.895248    40B2     9.322883    41B2     9.528912  
      50A1     9.613666    29B1     9.637733    23A2     9.684480  
      42B2    10.075939    51A1    10.140580    52A1    10.241155  
      30B1    10.562438    53A1    10.646466    43B2    10.677476  
      31B1    10.738484    24A2    10.942452    54A1    10.992347  
      25A2    11.293780    44B2    11.337690    32B1    11.398560  
      55A1    11.524174    33B1    11.700071    45B2    11.766588  
      56A1    12.085371    57A1    12.287300    34B1    12.363334  
      26A2    12.417620    46B2    12.737128    58A1    13.528879  
      47B2    13.609670    35B1    14.019232    27A2    14.354027  
      59A1    14.402484    48B2    14.758371    60A1    16.404425  
      49B2    16.760430    61A1    44.074164  

    Final Occupation by Irrep:
             A1    A2    B1    B2 
    DOCC [     3,    0,    1,    1 ]

  @DF-RKS Final Energy:   -76.43944589370246

   => Energetics <=

    Nuclear Repulsion Energy =              9.1807357949903690
    One-Electron Energy =                -123.0021506162770066
    Two-Electron Energy =                  43.8733794258951022
    DFT Exchange-Correlation Energy =      -6.5339853986061449
    Empirical Dispersion Energy =           0.0000000000000000
    VV10 Nonlocal Energy =                  0.0425749002952181
    Total Energy =                        -76.4394458937024694

Computation Completed


Properties will be evaluated at   0.000000,   0.000000,   0.000000 [a0]

Properties computed using the SCF density matrix

  Nuclear Dipole Moment: [e a0]
     X:     0.0000      Y:     0.0000      Z:     0.9471

  Electronic Dipole Moment: [e a0]
     X:     0.0000      Y:     0.0000      Z:    -0.2260

  Dipole Moment: [e a0]
     X:     0.0000      Y:     0.0000      Z:     0.7211     Total:     0.7211

  Dipole Moment: [D]
     X:     0.0000      Y:     0.0000      Z:     1.8329     Total:     1.8329


*** tstop() called on bp1-compute00154.data.bp.acrc.priv at Tue Apr 20 11:05:10 2021
Module time:
	user time   =      83.74 seconds =       1.40 minutes
	system time =       4.21 seconds =       0.07 minutes
	total time  =          4 seconds =       0.07 minutes
Total time:
	user time   =      83.74 seconds =       1.40 minutes
	system time =       4.21 seconds =       0.07 minutes
	total time  =          4 seconds =       0.07 minutes

  //>>>>>>>>>>>>>>>>>>>>>>>>>>>>>>>>>>>//
  //    Loading displacement 2 of 5    //
  //<<<<<<<<<<<<<<<<<<<<<<<<<<<<<<<<<<<//

*** tstart() called on bp1-compute00154.data.bp.acrc.priv
*** at Tue Apr 20 11:05:10 2021

   => Loading Basis Set <=

    Name: AUG-CC-PV(Q+D)Z
    Role: ORBITAL
    Keyword: BASIS
    atoms 1   entry O          line   439 file /work/zw18965/.conda/envs/p4env/share/psi4/basis/aug-cc-pv_qpd_z.gbs 
    atoms 2-3 entry H          line    56 file /work/zw18965/.conda/envs/p4env/share/psi4/basis/aug-cc-pv_qpd_z.gbs 


         ---------------------------------------------------------
                                   SCF
               by Justin Turney, Rob Parrish, Andy Simmonett
                          and Daniel G. A. Smith
                              RKS Reference
                       24 Threads, 137329 MiB Core
         ---------------------------------------------------------

  ==> Geometry <==

    Molecular point group: c2v
    Full point group: C2v

    Geometry (in Angstrom), charge = 0, multiplicity = 1:

       Center              X                  Y                   Z               Mass       
    ------------   -----------------  -----------------  -----------------  -----------------
         O           -0.000000000000     0.000000000000    -0.063897496289    15.994914619570
         H            0.000000000000    -0.770813168014     0.507049817607     1.007825032230
         H           -0.000000000000     0.770813168014     0.507049817607     1.007825032230

  Running in c2v symmetry.

  Rotational constants: A =     28.88915  B =     14.07612  C =      9.46456 [cm^-1]
  Rotational constants: A = 866074.79089  B = 421991.60581  C = 283740.25803 [MHz]
  Nuclear repulsion =    9.169903435214334

  Charge       = 0
  Multiplicity = 1
  Electrons    = 10
  Nalpha       = 5
  Nbeta        = 5

  ==> Algorithm <==

  SCF Algorithm Type is DF.
  DIIS enabled.
  MOM disabled.
  Fractional occupation disabled.
  Guess Type is SAD.
  Energy threshold   = 1.00e-08
  Density threshold  = 1.00e-08
  Integral threshold = 0.00e+00

  ==> Primary Basis <==

  Basis Set: AUG-CC-PV(Q+D)Z
    Blend: AUG-CC-PV(Q+D)Z
    Number of shells: 48
    Number of basis function: 172
    Number of Cartesian functions: 215
    Spherical Harmonics?: true
    Max angular momentum: 4

  ==> DFT Potential <==

   => Composite Functional: WB97X-V <= 

    wB97X-V Hyb-GGA Exchange-Correlation Functional

    N. Mardirossian and M. Head-Gordon, Phys. Chem. Chem. Phys. 16, 9904 (2014)

    Deriv               =              1
    GGA                 =           TRUE
    Meta                =          FALSE

    Exchange Hybrid     =           TRUE
    MP2 Hybrid          =          FALSE

   => Exchange-Correlation Functionals <=

    1.0000   wB97X-V range-separated functional

   => Exact (HF) Exchange <=

    0.8330            HF,LR [omega = 0.3000]
    0.1670               HF 

   => VV10 Non-Local Parameters <=

    VV10 B              =     6.0000E+00
    VV10 C              =     1.0000E-02

   => Molecular Quadrature <=

    Radial Scheme          =       TREUTLER
    Pruning Scheme         =           FLAT
    Nuclear Scheme         =       TREUTLER

    BS radius alpha        =              1
    Pruning alpha          =              1
    Radial Points          =             75
    Spherical Points       =            302
    Total Points           =          67950
    Total Blocks           =            585
    Max Points             =            256
    Max Functions          =            172

   => Loading Basis Set <=

    Name: (AUG-CC-PV(Q+D)Z AUX)
    Role: JKFIT
    Keyword: DF_BASIS_SCF
    atoms 1   entry O          line   318 file /work/zw18965/.conda/envs/p4env/share/psi4/basis/aug-cc-pvqz-jkfit.gbs 
    atoms 2-3 entry H          line    70 file /work/zw18965/.conda/envs/p4env/share/psi4/basis/aug-cc-pvqz-jkfit.gbs 

  ==> Pre-Iterations <==

   -------------------------------------------------------
    Irrep   Nso     Nmo     Nalpha   Nbeta   Ndocc  Nsocc
   -------------------------------------------------------
     A1        61      61       0       0       0       0
     A2        27      27       0       0       0       0
     B1        35      35       0       0       0       0
     B2        49      49       0       0       0       0
   -------------------------------------------------------
    Total     172     172       5       5       5       0
   -------------------------------------------------------

  ==> Integral Setup <==

  ==> DiskDFJK: Density-Fitted J/K Matrices <==

    J tasked:                  Yes
    K tasked:                  Yes
    wK tasked:                 Yes
    Omega:               3.000E-01
    OpenMP threads:             24
    Integrals threads:          24
    Memory [MiB]:           102673
    Algorithm:                Core
    Integral Cache:           NONE
    Schwarz Cutoff:          1E-12
    Fitting Condition:       1E-10

   => Auxiliary Basis Set <=

  Basis Set: (AUG-CC-PV(Q+D)Z AUX)
    Blend: AUG-CC-PVQZ-JKFIT
    Number of shells: 70
    Number of basis function: 294
    Number of Cartesian functions: 400
    Spherical Harmonics?: true
    Max angular momentum: 5

  Cached 100.0% of DFT collocation blocks in 0.315 [GiB].

  Minimum eigenvalue in the overlap matrix is 8.6327069350E-05.
  Using Symmetric Orthogonalization.

  SCF Guess: Superposition of Atomic Densities via on-the-fly atomic UHF.

  ==> Iterations <==

                           Total Energy        Delta E     RMS |[F,P]|

   @DF-RKS iter SAD:   -75.95202529982868   -7.59520e+01   0.00000e+00 
   @DF-RKS iter   1:   -76.30589524389475   -3.53870e-01   6.88199e-03 DIIS
   @DF-RKS iter   2:   -76.28574086472216    2.01544e-02   7.65448e-03 DIIS
   @DF-RKS iter   3:   -76.43927959015747   -1.53539e-01   1.80037e-04 DIIS
   @DF-RKS iter   4:   -76.43944970871162   -1.70119e-04   5.44443e-05 DIIS
   @DF-RKS iter   5:   -76.43946212514533   -1.24164e-05   9.48757e-06 DIIS
   @DF-RKS iter   6:   -76.43946268273372   -5.57588e-07   1.52089e-06 DIIS
   @DF-RKS iter   7:   -76.43946270650629   -2.37726e-08   2.96859e-07 DIIS
   @DF-RKS iter   8:   -76.43946270752042   -1.01413e-09   4.47294e-08 DIIS
   @DF-RKS iter   9:   -76.43946270755251   -3.20881e-11   7.55392e-09 DIIS
  Energy and wave function converged.


  ==> Post-Iterations <==

    Orbital Energies [Eh]
    ---------------------

    Doubly Occupied:                                                      

       1A1   -19.216677     2A1    -1.144090     1B2    -0.651431  
       3A1    -0.502208     1B1    -0.430005  

    Virtual:                                                              

       4A1     0.026403     2B2     0.046718     5A1     0.110764  
       2B1     0.132577     6A1     0.141272     3B2     0.153669  
       4B2     0.181393     7A1     0.195132     1A2     0.207524  
       3B1     0.235355     8A1     0.251722     5B2     0.292643  
       9A1     0.327405     6B2     0.354649     7B2     0.444924  
      10A1     0.476655    11A1     0.515509     2A2     0.520517  
       4B1     0.526891    12A1     0.588815     5B1     0.611379  
       6B1     0.623487     8B2     0.642807     3A2     0.649010  
      13A1     0.667675    14A1     0.672153     9B2     0.698248  
      15A1     0.730969    10B2     0.744643    11B2     0.761311  
       7B1     0.763738    16A1     0.827464     4A2     0.842104  
      12B2     0.925620     5A2     1.075992    17A1     1.076491  
       8B1     1.147495    18A1     1.250838    13B2     1.363462  
      19A1     1.404655     9B1     1.435954    14B2     1.438332  
      20A1     1.449799     6A2     1.482882    10B1     1.527228  
      15B2     1.541520    21A1     1.544172    11B1     1.593722  
      22A1     1.607017     7A2     1.644976    16B2     1.648437  
      23A1     1.651362    12B1     1.695307    24A1     1.714819  
      17B2     1.726115    18B2     1.800425    25A1     1.801592  
       8A2     1.847405    19B2     1.851211    13B1     1.915762  
      20B2     1.957676    26A1     1.958936     9A2     1.969727  
      14B1     2.024189    10A2     2.113006    27A1     2.158516  
      21B2     2.258222    28A1     2.349019    15B1     2.465279  
      22B2     2.510811    11A2     2.759042    29A1     2.836043  
      16B1     2.859960    23B2     2.887558    30A1     2.907862  
      24B2     2.931707    12A2     3.140854    31A1     3.155884  
      17B1     3.158665    25B2     3.368644    32A1     3.407875  
      13A2     3.502596    26B2     3.535986    33A1     3.552530  
      27B2     3.610146    18B1     3.712135    34A1     3.865207  
      19B1     3.957913    28B2     3.967513    14A2     3.972087  
      35A1     3.980930    20B1     4.028663    36A1     4.085329  
      37A1     4.227493    29B2     4.376316    21B1     4.483357  
      38A1     4.535851    22B1     4.578927    30B2     4.621885  
      15A2     4.630483    16A2     4.651258    39A1     4.784864  
      40A1     5.011545    31B2     5.070028    23B1     5.267374  
      41A1     5.285235    32B2     5.585006    17A2     5.636407  
      33B2     5.831690    42A1     5.939459    18A2     6.652844  
      24B1     6.658620    34B2     6.670858    43A1     6.753254  
      35B2     7.470488    25B1     7.539457    19A2     7.576700  
      36B2     7.616806    20A2     7.630091    44A1     7.682175  
      37B2     7.719299    45A1     7.795283    26B1     8.000335  
      46A1     8.069211    38B2     8.252527    21A2     8.358642  
      47A1     8.397340    27B1     8.480366    48A1     8.484807  
      28B1     8.595827    22A2     8.725198    39B2     8.787149  
      49A1     8.895496    40B2     9.326108    41B2     9.526660  
      50A1     9.607361    29B1     9.632498    23A2     9.679202  
      42B2    10.067155    51A1    10.135434    52A1    10.248457  
      30B1    10.562558    53A1    10.646854    43B2    10.681865  
      31B1    10.739136    24A2    10.938832    54A1    10.990455  
      25A2    11.291613    44B2    11.336494    32B1    11.399256  
      55A1    11.520850    33B1    11.700724    45B2    11.760562  
      56A1    12.085509    57A1    12.280738    34B1    12.356453  
      26A2    12.413885    46B2    12.735614    58A1    13.522972  
      47B2    13.599174    35B1    14.011286    27A2    14.343156  
      59A1    14.393943    48B2    14.744654    60A1    16.392656  
      49B2    16.752898    61A1    44.062507  

    Final Occupation by Irrep:
             A1    A2    B1    B2 
    DOCC [     3,    0,    1,    1 ]

  @DF-RKS Final Energy:   -76.43946270755251

   => Energetics <=

    Nuclear Repulsion Energy =              9.1699034352143336
    One-Electron Energy =                -122.9826448523197797
    Two-Electron Energy =                  43.8638228354760642
    DFT Exchange-Correlation Energy =      -6.5331178913567101
    Empirical Dispersion Energy =           0.0000000000000000
    VV10 Nonlocal Energy =                  0.0425737654335856
    Total Energy =                        -76.4394627075525079

Computation Completed


Properties will be evaluated at   0.000000,   0.000000,   0.000000 [a0]

Properties computed using the SCF density matrix

  Nuclear Dipole Moment: [e a0]
     X:     0.0000      Y:     0.0000      Z:     0.9504

  Electronic Dipole Moment: [e a0]
     X:     0.0000      Y:     0.0000      Z:    -0.2279

  Dipole Moment: [e a0]
     X:     0.0000      Y:     0.0000      Z:     0.7225     Total:     0.7225

  Dipole Moment: [D]
     X:     0.0000      Y:     0.0000      Z:     1.8365     Total:     1.8365


*** tstop() called on bp1-compute00154.data.bp.acrc.priv at Tue Apr 20 11:05:14 2021
Module time:
	user time   =      91.86 seconds =       1.53 minutes
	system time =       4.34 seconds =       0.07 minutes
	total time  =          4 seconds =       0.07 minutes
Total time:
	user time   =     175.77 seconds =       2.93 minutes
	system time =       8.55 seconds =       0.14 minutes
	total time  =          8 seconds =       0.13 minutes

  //>>>>>>>>>>>>>>>>>>>>>>>>>>>>>>>>>>>//
  //    Loading displacement 3 of 5    //
  //<<<<<<<<<<<<<<<<<<<<<<<<<<<<<<<<<<<//

*** tstart() called on bp1-compute00154.data.bp.acrc.priv
*** at Tue Apr 20 11:05:14 2021

   => Loading Basis Set <=

    Name: AUG-CC-PV(Q+D)Z
    Role: ORBITAL
    Keyword: BASIS
    atoms 1   entry O          line   439 file /work/zw18965/.conda/envs/p4env/share/psi4/basis/aug-cc-pv_qpd_z.gbs 
    atoms 2-3 entry H          line    56 file /work/zw18965/.conda/envs/p4env/share/psi4/basis/aug-cc-pv_qpd_z.gbs 


         ---------------------------------------------------------
                                   SCF
               by Justin Turney, Rob Parrish, Andy Simmonett
                          and Daniel G. A. Smith
                              RKS Reference
                       24 Threads, 137329 MiB Core
         ---------------------------------------------------------

  ==> Geometry <==

    Molecular point group: c2v
    Full point group: C2v

    Geometry (in Angstrom), charge = 0, multiplicity = 1:

       Center              X                  Y                   Z               Mass       
    ------------   -----------------  -----------------  -----------------  -----------------
         O           -0.000000000000     0.000000000000    -0.063454852807    15.994914619570
         H            0.000000000000    -0.770813168014     0.503537280970     1.007825032230
         H           -0.000000000000     0.770813168014     0.503537280970     1.007825032230

  Running in c2v symmetry.

  Rotational constants: A =     29.29360  B =     14.07612  C =      9.50756 [cm^-1]
  Rotational constants: A = 878199.93054  B = 421991.60581  C = 285029.54261 [MHz]
  Nuclear repulsion =    9.191570341179631

  Charge       = 0
  Multiplicity = 1
  Electrons    = 10
  Nalpha       = 5
  Nbeta        = 5

  ==> Algorithm <==

  SCF Algorithm Type is DF.
  DIIS enabled.
  MOM disabled.
  Fractional occupation disabled.
  Guess Type is SAD.
  Energy threshold   = 1.00e-08
  Density threshold  = 1.00e-08
  Integral threshold = 0.00e+00

  ==> Primary Basis <==

  Basis Set: AUG-CC-PV(Q+D)Z
    Blend: AUG-CC-PV(Q+D)Z
    Number of shells: 48
    Number of basis function: 172
    Number of Cartesian functions: 215
    Spherical Harmonics?: true
    Max angular momentum: 4

  ==> DFT Potential <==

   => Composite Functional: WB97X-V <= 

    wB97X-V Hyb-GGA Exchange-Correlation Functional

    N. Mardirossian and M. Head-Gordon, Phys. Chem. Chem. Phys. 16, 9904 (2014)

    Deriv               =              1
    GGA                 =           TRUE
    Meta                =          FALSE

    Exchange Hybrid     =           TRUE
    MP2 Hybrid          =          FALSE

   => Exchange-Correlation Functionals <=

    1.0000   wB97X-V range-separated functional

   => Exact (HF) Exchange <=

    0.8330            HF,LR [omega = 0.3000]
    0.1670               HF 

   => VV10 Non-Local Parameters <=

    VV10 B              =     6.0000E+00
    VV10 C              =     1.0000E-02

   => Molecular Quadrature <=

    Radial Scheme          =       TREUTLER
    Pruning Scheme         =           FLAT
    Nuclear Scheme         =       TREUTLER

    BS radius alpha        =              1
    Pruning alpha          =              1
    Radial Points          =             75
    Spherical Points       =            302
    Total Points           =          67950
    Total Blocks           =            584
    Max Points             =            256
    Max Functions          =            172

   => Loading Basis Set <=

    Name: (AUG-CC-PV(Q+D)Z AUX)
    Role: JKFIT
    Keyword: DF_BASIS_SCF
    atoms 1   entry O          line   318 file /work/zw18965/.conda/envs/p4env/share/psi4/basis/aug-cc-pvqz-jkfit.gbs 
    atoms 2-3 entry H          line    70 file /work/zw18965/.conda/envs/p4env/share/psi4/basis/aug-cc-pvqz-jkfit.gbs 

  ==> Pre-Iterations <==

   -------------------------------------------------------
    Irrep   Nso     Nmo     Nalpha   Nbeta   Ndocc  Nsocc
   -------------------------------------------------------
     A1        61      61       0       0       0       0
     A2        27      27       0       0       0       0
     B1        35      35       0       0       0       0
     B2        49      49       0       0       0       0
   -------------------------------------------------------
    Total     172     172       5       5       5       0
   -------------------------------------------------------

  ==> Integral Setup <==

  ==> DiskDFJK: Density-Fitted J/K Matrices <==

    J tasked:                  Yes
    K tasked:                  Yes
    wK tasked:                 Yes
    Omega:               3.000E-01
    OpenMP threads:             24
    Integrals threads:          24
    Memory [MiB]:           102673
    Algorithm:                Core
    Integral Cache:           NONE
    Schwarz Cutoff:          1E-12
    Fitting Condition:       1E-10

   => Auxiliary Basis Set <=

  Basis Set: (AUG-CC-PV(Q+D)Z AUX)
    Blend: AUG-CC-PVQZ-JKFIT
    Number of shells: 70
    Number of basis function: 294
    Number of Cartesian functions: 400
    Spherical Harmonics?: true
    Max angular momentum: 5

  Cached 100.0% of DFT collocation blocks in 0.315 [GiB].

  Minimum eigenvalue in the overlap matrix is 8.5531348307E-05.
  Using Symmetric Orthogonalization.

  SCF Guess: Superposition of Atomic Densities via on-the-fly atomic UHF.

  ==> Iterations <==

                           Total Energy        Delta E     RMS |[F,P]|

   @DF-RKS iter SAD:   -75.95366843351373   -7.59537e+01   0.00000e+00 
   @DF-RKS iter   1:   -76.30582759408165   -3.52159e-01   6.88935e-03 DIIS
   @DF-RKS iter   2:   -76.28633577146553    1.94918e-02   7.64372e-03 DIIS
   @DF-RKS iter   3:   -76.43924016943504   -1.52904e-01   1.79552e-04 DIIS
   @DF-RKS iter   4:   -76.43940992780338   -1.69758e-04   5.41912e-05 DIIS
   @DF-RKS iter   5:   -76.43942222967219   -1.23019e-05   9.43556e-06 DIIS
   @DF-RKS iter   6:   -76.43942278273558   -5.53063e-07   1.51937e-06 DIIS
   @DF-RKS iter   7:   -76.43942280651993   -2.37844e-08   2.97159e-07 DIIS
   @DF-RKS iter   8:   -76.43942280753474   -1.01481e-09   4.45613e-08 DIIS
   @DF-RKS iter   9:   -76.43942280756679   -3.20455e-11   7.52006e-09 DIIS
  Energy and wave function converged.


  ==> Post-Iterations <==

    Orbital Energies [Eh]
    ---------------------

    Doubly Occupied:                                                      

       1A1   -19.216170     2A1    -1.144852     1B2    -0.653071  
       3A1    -0.501747     1B1    -0.430134  

    Virtual:                                                              

       4A1     0.026486     2B2     0.046712     5A1     0.110897  
       2B1     0.132425     6A1     0.141280     3B2     0.153688  
       4B2     0.181635     7A1     0.195192     1A2     0.207469  
       3B1     0.235792     8A1     0.251919     5B2     0.292633  
       9A1     0.327921     6B2     0.355419     7B2     0.445066  
      10A1     0.476548    11A1     0.515647     2A2     0.520494  
       4B1     0.526618    12A1     0.589008     5B1     0.611480  
       6B1     0.623777     8B2     0.642815     3A2     0.648819  
      13A1     0.667952    14A1     0.672178     9B2     0.698231  
      15A1     0.731715    10B2     0.745759    11B2     0.761765  
       7B1     0.763779    16A1     0.827631     4A2     0.842040  
      12B2     0.925281     5A2     1.076131    17A1     1.077727  
       8B1     1.149017    18A1     1.250928    13B2     1.362667  
      19A1     1.405346     9B1     1.435698    14B2     1.440214  
      20A1     1.449495     6A2     1.483176    10B1     1.527023  
      15B2     1.541752    21A1     1.545000    11B1     1.593120  
      22A1     1.608148     7A2     1.644425    16B2     1.648431  
      23A1     1.649869    12B1     1.696138    24A1     1.715823  
      17B2     1.727947    18B2     1.799939    25A1     1.801278  
       8A2     1.846804    19B2     1.850233    13B1     1.914459  
      20B2     1.957219    26A1     1.957819     9A2     1.969558  
      14B1     2.023142    10A2     2.114268    27A1     2.159251  
      21B2     2.258864    28A1     2.354514    15B1     2.469083  
      22B2     2.514619    11A2     2.762320    29A1     2.839484  
      16B1     2.862405    23B2     2.887205    30A1     2.909931  
      24B2     2.934041    12A2     3.140423    31A1     3.154762  
      17B1     3.163977    25B2     3.372867    32A1     3.407811  
      13A2     3.504981    26B2     3.536310    33A1     3.556149  
      27B2     3.610694    18B1     3.711456    34A1     3.864111  
      19B1     3.956871    28B2     3.967189    14A2     3.971391  
      35A1     3.981141    20B1     4.029288    36A1     4.086714  
      37A1     4.226485    29B2     4.377841    21B1     4.481465  
      38A1     4.539129    22B1     4.580805    30B2     4.625956  
      15A2     4.633033    16A2     4.657294    39A1     4.786672  
      40A1     5.016153    31B2     5.070657    23B1     5.275048  
      41A1     5.288707    32B2     5.593024    17A2     5.640209  
      33B2     5.835920    42A1     5.945555    18A2     6.652635  
      24B1     6.663466    34B2     6.671472    43A1     6.759168  
      35B2     7.477400    25B1     7.539344    19A2     7.581495  
      36B2     7.624809    20A2     7.643850    44A1     7.689739  
      37B2     7.720806    45A1     7.795751    26B1     8.005123  
      46A1     8.082279    38B2     8.257054    21A2     8.354806  
      47A1     8.404997    27B1     8.484651    48A1     8.494086  
      28B1     8.601597    22A2     8.722861    39B2     8.792083  
      49A1     8.895075    40B2     9.319617    41B2     9.531249  
      50A1     9.619962    29B1     9.642932    23A2     9.689746  
      42B2    10.084730    51A1    10.145654    52A1    10.233938  
      30B1    10.562339    53A1    10.646070    43B2    10.672997  
      31B1    10.737823    24A2    10.946036    54A1    10.994230  
      25A2    11.296029    44B2    11.338844    32B1    11.397824  
      55A1    11.527510    33B1    11.699417    45B2    11.772627  
      56A1    12.085208    57A1    12.293930    34B1    12.370233  
      26A2    12.421361    46B2    12.738530    58A1    13.534812  
      47B2    13.620108    35B1    14.027166    27A2    14.364887  
      59A1    14.411080    48B2    14.772105    60A1    16.416085  
      49B2    16.767922    61A1    44.085829  

    Final Occupation by Irrep:
             A1    A2    B1    B2 
    DOCC [     3,    0,    1,    1 ]

  @DF-RKS Final Energy:   -76.43942280756679

   => Energetics <=

    Nuclear Repulsion Energy =              9.1915703411796308
    One-Electron Energy =                -123.0216485650497305
    Two-Electron Energy =                  43.8829321607149865
    DFT Exchange-Correlation Energy =      -6.5348527785289203
    Empirical Dispersion Energy =           0.0000000000000000
    VV10 Nonlocal Energy =                  0.0425760341172600
    Total Energy =                        -76.4394228075667712

Computation Completed


Properties will be evaluated at   0.000000,   0.000000,   0.000000 [a0]

Properties computed using the SCF density matrix

  Nuclear Dipole Moment: [e a0]
     X:     0.0000      Y:     0.0000      Z:     0.9438

  Electronic Dipole Moment: [e a0]
     X:     0.0000      Y:     0.0000      Z:    -0.2241

  Dipole Moment: [e a0]
     X:     0.0000      Y:     0.0000      Z:     0.7197     Total:     0.7197

  Dipole Moment: [D]
     X:     0.0000      Y:     0.0000      Z:     1.8293     Total:     1.8293


*** tstop() called on bp1-compute00154.data.bp.acrc.priv at Tue Apr 20 11:05:18 2021
Module time:
	user time   =      86.38 seconds =       1.44 minutes
	system time =       2.93 seconds =       0.05 minutes
	total time  =          4 seconds =       0.07 minutes
Total time:
	user time   =     262.30 seconds =       4.37 minutes
	system time =      11.49 seconds =       0.19 minutes
	total time  =         12 seconds =       0.20 minutes

  //>>>>>>>>>>>>>>>>>>>>>>>>>>>>>>>>>>>//
  //    Loading displacement 4 of 5    //
  //<<<<<<<<<<<<<<<<<<<<<<<<<<<<<<<<<<<//

*** tstart() called on bp1-compute00154.data.bp.acrc.priv
*** at Tue Apr 20 11:05:18 2021

   => Loading Basis Set <=

    Name: AUG-CC-PV(Q+D)Z
    Role: ORBITAL
    Keyword: BASIS
    atoms 1   entry O          line   439 file /work/zw18965/.conda/envs/p4env/share/psi4/basis/aug-cc-pv_qpd_z.gbs 
    atoms 2-3 entry H          line    56 file /work/zw18965/.conda/envs/p4env/share/psi4/basis/aug-cc-pv_qpd_z.gbs 


         ---------------------------------------------------------
                                   SCF
               by Justin Turney, Rob Parrish, Andy Simmonett
                          and Daniel G. A. Smith
                              RKS Reference
                       24 Threads, 137329 MiB Core
         ---------------------------------------------------------

  ==> Geometry <==

    Molecular point group: c2v
    Full point group: C2v

    Geometry (in Angstrom), charge = 0, multiplicity = 1:

       Center              X                  Y                   Z               Mass       
    ------------   -----------------  -----------------  -----------------  -----------------
         O           -0.000000000000     0.000000000000    -0.063676174548    15.994914619570
         H            0.000000000000    -0.772676814646     0.505293549288     1.007825032230
         H           -0.000000000000     0.772676814646     0.505293549288     1.007825032230

  Running in c2v symmetry.

  Rotational constants: A =     29.09032  B =     14.00831  C =      9.45520 [cm^-1]
  Rotational constants: A = 872105.75298  B = 419958.42765  C = 283459.72767 [MHz]
  Nuclear repulsion =    9.166092564116710

  Charge       = 0
  Multiplicity = 1
  Electrons    = 10
  Nalpha       = 5
  Nbeta        = 5

  ==> Algorithm <==

  SCF Algorithm Type is DF.
  DIIS enabled.
  MOM disabled.
  Fractional occupation disabled.
  Guess Type is SAD.
  Energy threshold   = 1.00e-08
  Density threshold  = 1.00e-08
  Integral threshold = 0.00e+00

  ==> Primary Basis <==

  Basis Set: AUG-CC-PV(Q+D)Z
    Blend: AUG-CC-PV(Q+D)Z
    Number of shells: 48
    Number of basis function: 172
    Number of Cartesian functions: 215
    Spherical Harmonics?: true
    Max angular momentum: 4

  ==> DFT Potential <==

   => Composite Functional: WB97X-V <= 

    wB97X-V Hyb-GGA Exchange-Correlation Functional

    N. Mardirossian and M. Head-Gordon, Phys. Chem. Chem. Phys. 16, 9904 (2014)

    Deriv               =              1
    GGA                 =           TRUE
    Meta                =          FALSE

    Exchange Hybrid     =           TRUE
    MP2 Hybrid          =          FALSE

   => Exchange-Correlation Functionals <=

    1.0000   wB97X-V range-separated functional

   => Exact (HF) Exchange <=

    0.8330            HF,LR [omega = 0.3000]
    0.1670               HF 

   => VV10 Non-Local Parameters <=

    VV10 B              =     6.0000E+00
    VV10 C              =     1.0000E-02

   => Molecular Quadrature <=

    Radial Scheme          =       TREUTLER
    Pruning Scheme         =           FLAT
    Nuclear Scheme         =       TREUTLER

    BS radius alpha        =              1
    Pruning alpha          =              1
    Radial Points          =             75
    Spherical Points       =            302
    Total Points           =          67950
    Total Blocks           =            584
    Max Points             =            256
    Max Functions          =            172

   => Loading Basis Set <=

    Name: (AUG-CC-PV(Q+D)Z AUX)
    Role: JKFIT
    Keyword: DF_BASIS_SCF
    atoms 1   entry O          line   318 file /work/zw18965/.conda/envs/p4env/share/psi4/basis/aug-cc-pvqz-jkfit.gbs 
    atoms 2-3 entry H          line    70 file /work/zw18965/.conda/envs/p4env/share/psi4/basis/aug-cc-pvqz-jkfit.gbs 

  ==> Pre-Iterations <==

   -------------------------------------------------------
    Irrep   Nso     Nmo     Nalpha   Nbeta   Ndocc  Nsocc
   -------------------------------------------------------
     A1        61      61       0       0       0       0
     A2        27      27       0       0       0       0
     B1        35      35       0       0       0       0
     B2        49      49       0       0       0       0
   -------------------------------------------------------
    Total     172     172       5       5       5       0
   -------------------------------------------------------

  ==> Integral Setup <==

  ==> DiskDFJK: Density-Fitted J/K Matrices <==

    J tasked:                  Yes
    K tasked:                  Yes
    wK tasked:                 Yes
    Omega:               3.000E-01
    OpenMP threads:             24
    Integrals threads:          24
    Memory [MiB]:           102673
    Algorithm:                Core
    Integral Cache:           NONE
    Schwarz Cutoff:          1E-12
    Fitting Condition:       1E-10

   => Auxiliary Basis Set <=

  Basis Set: (AUG-CC-PV(Q+D)Z AUX)
    Blend: AUG-CC-PVQZ-JKFIT
    Number of shells: 70
    Number of basis function: 294
    Number of Cartesian functions: 400
    Spherical Harmonics?: true
    Max angular momentum: 5

  Cached 100.0% of DFT collocation blocks in 0.315 [GiB].

  Minimum eigenvalue in the overlap matrix is 8.6330121170E-05.
  Using Symmetric Orthogonalization.

  SCF Guess: Superposition of Atomic Densities via on-the-fly atomic UHF.

  ==> Iterations <==

                           Total Energy        Delta E     RMS |[F,P]|

   @DF-RKS iter SAD:   -75.95149355368585   -7.59515e+01   0.00000e+00 
   @DF-RKS iter   1:   -76.30586894498853   -3.54375e-01   6.88190e-03 DIIS
   @DF-RKS iter   2:   -76.28566887660310    2.02001e-02   7.65523e-03 DIIS
   @DF-RKS iter   3:   -76.43924610807402   -1.53577e-01   1.80104e-04 DIIS
   @DF-RKS iter   4:   -76.43941668499787   -1.70577e-04   5.45324e-05 DIIS
   @DF-RKS iter   5:   -76.43942916889823   -1.24839e-05   9.50820e-06 DIIS
   @DF-RKS iter   6:   -76.43942973291001   -5.64012e-07   1.53203e-06 DIIS
   @DF-RKS iter   7:   -76.43942975720992   -2.42999e-08   3.00193e-07 DIIS
   @DF-RKS iter   8:   -76.43942975825156   -1.04164e-09   4.51930e-08 DIIS
   @DF-RKS iter   9:   -76.43942975828456   -3.29976e-11   7.60714e-09 DIIS
  Energy and wave function converged.


  ==> Post-Iterations <==

    Orbital Energies [Eh]
    ---------------------

    Doubly Occupied:                                                      

       1A1   -19.216602     2A1    -1.143731     1B2    -0.651863  
       3A1    -0.501582     1B1    -0.429912  

    Virtual:                                                              

       4A1     0.026414     2B2     0.046697     5A1     0.110803  
       2B1     0.132540     6A1     0.141178     3B2     0.153593  
       4B2     0.181456     7A1     0.195099     1A2     0.207437  
       3B1     0.235600     8A1     0.251855     5B2     0.292537  
       9A1     0.327276     6B2     0.354642     7B2     0.445014  
      10A1     0.476427    11A1     0.515573     2A2     0.520351  
       4B1     0.526730    12A1     0.588699     5B1     0.611611  
       6B1     0.623590     8B2     0.642770     3A2     0.649035  
      13A1     0.667965    14A1     0.672181     9B2     0.697812  
      15A1     0.730729    10B2     0.744662    11B2     0.761469  
       7B1     0.763840    16A1     0.827669     4A2     0.842138  
      12B2     0.925664     5A2     1.075814    17A1     1.077750  
       8B1     1.147825    18A1     1.250617    13B2     1.361630  
      19A1     1.404298     9B1     1.435664    14B2     1.438671  
      20A1     1.449659     6A2     1.483022    10B1     1.527620  
      15B2     1.541304    21A1     1.543861    11B1     1.593384  
      22A1     1.607788     7A2     1.644869    16B2     1.648424  
      23A1     1.650392    12B1     1.696218    24A1     1.715628  
      17B2     1.727127    18B2     1.799250    25A1     1.801502  
       8A2     1.846341    19B2     1.850191    13B1     1.913512  
      20B2     1.957293    26A1     1.957904     9A2     1.969887  
      14B1     2.024470    10A2     2.114184    27A1     2.159156  
      21B2     2.257314    28A1     2.352708    15B1     2.465437  
      22B2     2.511062    11A2     2.758904    29A1     2.835473  
      16B1     2.860603    23B2     2.886054    30A1     2.907774  
      24B2     2.931662    12A2     3.136555    31A1     3.153847  
      17B1     3.161179    25B2     3.370982    32A1     3.407905  
      13A2     3.503261    26B2     3.536152    33A1     3.553441  
      27B2     3.606476    18B1     3.712148    34A1     3.864325  
      19B1     3.957430    28B2     3.967351    14A2     3.972556  
      35A1     3.981014    20B1     4.029989    36A1     4.086106  
      37A1     4.226329    29B2     4.374557    21B1     4.477221  
      38A1     4.536286    22B1     4.578809    30B2     4.623150  
      15A2     4.630596    16A2     4.654248    39A1     4.785408  
      40A1     5.013601    31B2     5.069870    23B1     5.267830  
      41A1     5.283157    32B2     5.585105    17A2     5.634475  
      33B2     5.831457    42A1     5.937350    18A2     6.648611  
      24B1     6.660305    34B2     6.668435    43A1     6.755782  
      35B2     7.468860    25B1     7.539149    19A2     7.577372  
      36B2     7.616025    20A2     7.635649    44A1     7.681160  
      37B2     7.720522    45A1     7.792525    26B1     7.996438  
      46A1     8.083892    38B2     8.252023    21A2     8.353947  
      47A1     8.403481    48A1     8.483660    27B1     8.484808  
      28B1     8.598689    22A2     8.725246    39B2     8.788260  
      49A1     8.887956    40B2     9.313822    41B2     9.520682  
      50A1     9.609861    29B1     9.631946    23A2     9.678586  
      42B2    10.073235    51A1    10.135103    52A1    10.249940  
      30B1    10.561516    53A1    10.642413    43B2    10.683752  
      31B1    10.737497    24A2    10.942056    54A1    10.990771  
      25A2    11.289356    44B2    11.336161    32B1    11.399659  
      55A1    11.521832    33B1    11.698371    45B2    11.759535  
      56A1    12.075643    57A1    12.279028    34B1    12.357342  
      26A2    12.411113    46B2    12.737436    58A1    13.522436  
      47B2    13.593038    35B1    14.006014    27A2    14.341672  
      59A1    14.388380    48B2    14.742725    60A1    16.395140  
      49B2    16.747058    61A1    44.056015  

    Final Occupation by Irrep:
             A1    A2    B1    B2 
    DOCC [     3,    0,    1,    1 ]

  @DF-RKS Final Energy:   -76.43942975828456

   => Energetics <=

    Nuclear Repulsion Energy =              9.1660925641167097
    One-Electron Energy =                -122.9765916553081695
    Two-Electron Energy =                  43.8613238645380719
    DFT Exchange-Correlation Energy =      -6.5328278247006111
    Empirical Dispersion Energy =           0.0000000000000000
    VV10 Nonlocal Energy =                  0.0425732930694484
    Total Energy =                        -76.4394297582845326

Computation Completed


Properties will be evaluated at   0.000000,   0.000000,   0.000000 [a0]

Properties computed using the SCF density matrix

  Nuclear Dipole Moment: [e a0]
     X:     0.0000      Y:     0.0000      Z:     0.9471

  Electronic Dipole Moment: [e a0]
     X:     0.0000      Y:     0.0000      Z:    -0.2265

  Dipole Moment: [e a0]
     X:     0.0000      Y:     0.0000      Z:     0.7206     Total:     0.7206

  Dipole Moment: [D]
     X:     0.0000      Y:     0.0000      Z:     1.8316     Total:     1.8316


*** tstop() called on bp1-compute00154.data.bp.acrc.priv at Tue Apr 20 11:05:22 2021
Module time:
	user time   =      85.07 seconds =       1.42 minutes
	system time =       2.43 seconds =       0.04 minutes
	total time  =          4 seconds =       0.07 minutes
Total time:
	user time   =     347.53 seconds =       5.79 minutes
	system time =      13.93 seconds =       0.23 minutes
	total time  =         16 seconds =       0.27 minutes

  //>>>>>>>>>>>>>>>>>>>>>>>>>>>>>>>>>>>//
  //    Loading displacement 5 of 5    //
  //<<<<<<<<<<<<<<<<<<<<<<<<<<<<<<<<<<<//

*** tstart() called on bp1-compute00154.data.bp.acrc.priv
*** at Tue Apr 20 11:05:22 2021

   => Loading Basis Set <=

    Name: AUG-CC-PV(Q+D)Z
    Role: ORBITAL
    Keyword: BASIS
    atoms 1   entry O          line   439 file /work/zw18965/.conda/envs/p4env/share/psi4/basis/aug-cc-pv_qpd_z.gbs 
    atoms 2-3 entry H          line    56 file /work/zw18965/.conda/envs/p4env/share/psi4/basis/aug-cc-pv_qpd_z.gbs 


         ---------------------------------------------------------
                                   SCF
               by Justin Turney, Rob Parrish, Andy Simmonett
                          and Daniel G. A. Smith
                              RKS Reference
                       24 Threads, 137329 MiB Core
         ---------------------------------------------------------

  ==> Geometry <==

    Molecular point group: c2v
    Full point group: C2v

    Geometry (in Angstrom), charge = 0, multiplicity = 1:

       Center              X                  Y                   Z               Mass       
    ------------   -----------------  -----------------  -----------------  -----------------
         O           -0.000000000000     0.000000000000    -0.063676174548    15.994914619570
         H            0.000000000000    -0.768949521383     0.505293549288     1.007825032230
         H           -0.000000000000     0.768949521383     0.505293549288     1.007825032230

  Running in c2v symmetry.

  Rotational constants: A =     29.09032  B =     14.14444  C =      9.51702 [cm^-1]
  Rotational constants: A = 872105.75298  B = 424039.58486  C = 285313.19031 [MHz]
  Nuclear repulsion =    9.195414537373003

  Charge       = 0
  Multiplicity = 1
  Electrons    = 10
  Nalpha       = 5
  Nbeta        = 5

  ==> Algorithm <==

  SCF Algorithm Type is DF.
  DIIS enabled.
  MOM disabled.
  Fractional occupation disabled.
  Guess Type is SAD.
  Energy threshold   = 1.00e-08
  Density threshold  = 1.00e-08
  Integral threshold = 0.00e+00

  ==> Primary Basis <==

  Basis Set: AUG-CC-PV(Q+D)Z
    Blend: AUG-CC-PV(Q+D)Z
    Number of shells: 48
    Number of basis function: 172
    Number of Cartesian functions: 215
    Spherical Harmonics?: true
    Max angular momentum: 4

  ==> DFT Potential <==

   => Composite Functional: WB97X-V <= 

    wB97X-V Hyb-GGA Exchange-Correlation Functional

    N. Mardirossian and M. Head-Gordon, Phys. Chem. Chem. Phys. 16, 9904 (2014)

    Deriv               =              1
    GGA                 =           TRUE
    Meta                =          FALSE

    Exchange Hybrid     =           TRUE
    MP2 Hybrid          =          FALSE

   => Exchange-Correlation Functionals <=

    1.0000   wB97X-V range-separated functional

   => Exact (HF) Exchange <=

    0.8330            HF,LR [omega = 0.3000]
    0.1670               HF 

   => VV10 Non-Local Parameters <=

    VV10 B              =     6.0000E+00
    VV10 C              =     1.0000E-02

   => Molecular Quadrature <=

    Radial Scheme          =       TREUTLER
    Pruning Scheme         =           FLAT
    Nuclear Scheme         =       TREUTLER

    BS radius alpha        =              1
    Pruning alpha          =              1
    Radial Points          =             75
    Spherical Points       =            302
    Total Points           =          67950
    Total Blocks           =            586
    Max Points             =            256
    Max Functions          =            172

   => Loading Basis Set <=

    Name: (AUG-CC-PV(Q+D)Z AUX)
    Role: JKFIT
    Keyword: DF_BASIS_SCF
    atoms 1   entry O          line   318 file /work/zw18965/.conda/envs/p4env/share/psi4/basis/aug-cc-pvqz-jkfit.gbs 
    atoms 2-3 entry H          line    70 file /work/zw18965/.conda/envs/p4env/share/psi4/basis/aug-cc-pvqz-jkfit.gbs 

  ==> Pre-Iterations <==

   -------------------------------------------------------
    Irrep   Nso     Nmo     Nalpha   Nbeta   Ndocc  Nsocc
   -------------------------------------------------------
     A1        61      61       0       0       0       0
     A2        27      27       0       0       0       0
     B1        35      35       0       0       0       0
     B2        49      49       0       0       0       0
   -------------------------------------------------------
    Total     172     172       5       5       5       0
   -------------------------------------------------------

  ==> Integral Setup <==

  ==> DiskDFJK: Density-Fitted J/K Matrices <==

    J tasked:                  Yes
    K tasked:                  Yes
    wK tasked:                 Yes
    Omega:               3.000E-01
    OpenMP threads:             24
    Integrals threads:          24
    Memory [MiB]:           102673
    Algorithm:                Core
    Integral Cache:           NONE
    Schwarz Cutoff:          1E-12
    Fitting Condition:       1E-10

   => Auxiliary Basis Set <=

  Basis Set: (AUG-CC-PV(Q+D)Z AUX)
    Blend: AUG-CC-PVQZ-JKFIT
    Number of shells: 70
    Number of basis function: 294
    Number of Cartesian functions: 400
    Spherical Harmonics?: true
    Max angular momentum: 5

  Cached 100.0% of DFT collocation blocks in 0.315 [GiB].

  Minimum eigenvalue in the overlap matrix is 8.5526642287E-05.
  Using Symmetric Orthogonalization.

  SCF Guess: Superposition of Atomic Densities via on-the-fly atomic UHF.

  ==> Iterations <==

                           Total Energy        Delta E     RMS |[F,P]|

   @DF-RKS iter SAD:   -75.95419992247187   -7.59542e+01   0.00000e+00 
   @DF-RKS iter   1:   -76.30584919708711   -3.51649e-01   6.88947e-03 DIIS
   @DF-RKS iter   2:   -76.28640378794285    1.94454e-02   7.64297e-03 DIIS
   @DF-RKS iter   3:   -76.43926960098501   -1.52866e-01   1.79483e-04 DIIS
   @DF-RKS iter   4:   -76.43943890471193   -1.69304e-04   5.41031e-05 DIIS
   @DF-RKS iter   5:   -76.43945113987799   -1.22352e-05   9.41511e-06 DIIS
   @DF-RKS iter   6:   -76.43945168663478   -5.46757e-07   1.50830e-06 DIIS
   @DF-RKS iter   7:   -76.43945170990281   -2.32680e-08   2.93867e-07 DIIS
   @DF-RKS iter   8:   -76.43945171089059   -9.87782e-10   4.40990e-08 DIIS
   @DF-RKS iter   9:   -76.43945171092216   -3.15623e-11   7.46644e-09 DIIS
  Energy and wave function converged.


  ==> Post-Iterations <==

    Orbital Energies [Eh]
    ---------------------

    Doubly Occupied:                                                      

       1A1   -19.216244     2A1    -1.145214     1B2    -0.652635  
       3A1    -0.502375     1B1    -0.430228  

    Virtual:                                                              

       4A1     0.026476     2B2     0.046733     5A1     0.110858  
       2B1     0.132463     6A1     0.141373     3B2     0.153765  
       4B2     0.181572     7A1     0.195226     1A2     0.207556  
       3B1     0.235547     8A1     0.251785     5B2     0.292741  
       9A1     0.328050     6B2     0.355429     7B2     0.444974  
      10A1     0.476778    11A1     0.515584     2A2     0.520661  
       4B1     0.526781    12A1     0.589121     5B1     0.611248  
       6B1     0.623670     8B2     0.642853     3A2     0.648795  
      13A1     0.667688    14A1     0.672122     9B2     0.698669  
      15A1     0.731959    10B2     0.745746    11B2     0.761603  
       7B1     0.763674    16A1     0.827427     4A2     0.842005  
      12B2     0.925236     5A2     1.076312    17A1     1.076472  
       8B1     1.148686    18A1     1.251147    13B2     1.364499  
      19A1     1.405704     9B1     1.435993    14B2     1.439874  
      20A1     1.449627     6A2     1.483033    10B1     1.526633  
      15B2     1.541966    21A1     1.545318    11B1     1.593447  
      22A1     1.607373     7A2     1.644539    16B2     1.648453  
      23A1     1.650834    12B1     1.695224    24A1     1.715025  
      17B2     1.726939    18B2     1.801124    25A1     1.801370  
       8A2     1.847867    19B2     1.851230    13B1     1.916714  
      20B2     1.957619    26A1     1.958858     9A2     1.969383  
      14B1     2.022863    10A2     2.113117    27A1     2.158566  
      21B2     2.259771    28A1     2.350853    15B1     2.468923  
      22B2     2.514364    11A2     2.762436    29A1     2.840062  
      16B1     2.861767    23B2     2.888684    30A1     2.910012  
      24B2     2.934088    12A2     3.144743    31A1     3.156804  
      17B1     3.161457    25B2     3.370526    32A1     3.407810  
      13A2     3.504319    26B2     3.536179    33A1     3.555193  
      27B2     3.614338    18B1     3.711429    34A1     3.865003  
      19B1     3.957337    28B2     3.967363    14A2     3.970925  
      35A1     3.981068    20B1     4.027964    36A1     4.085944  
      37A1     4.227683    29B2     4.379601    21B1     4.487658  
      38A1     4.538669    22B1     4.580896    30B2     4.624694  
      15A2     4.632704    16A2     4.654504    39A1     4.786103  
      40A1     5.014041    31B2     5.070800    23B1     5.274601  
      41A1     5.290866    32B2     5.592882    17A2     5.642145  
      33B2     5.836160    42A1     5.947656    18A2     6.656922  
      24B1     6.661742    34B2     6.673915    43A1     6.756599  
      35B2     7.478920    25B1     7.539656    19A2     7.580965  
      36B2     7.625651    20A2     7.638144    44A1     7.690736  
      37B2     7.719663    45A1     7.798507    26B1     8.008884  
      46A1     8.067718    38B2     8.257521    21A2     8.359521  
      47A1     8.398807    27B1     8.480042    48A1     8.495289  
      28B1     8.598914    22A2     8.722834    39B2     8.790986  
      49A1     8.902526    40B2     9.331743    41B2     9.537417  
      50A1     9.617477    29B1     9.643451    23A2     9.690359  
      42B2    10.078609    51A1    10.145765    52A1    10.232546  
      30B1    10.563357    53A1    10.650606    43B2    10.671163  
      31B1    10.739549    24A2    10.942845    54A1    10.993926  
      25A2    11.298182    44B2    11.339164    32B1    11.397476  
      55A1    11.526505    33B1    11.701781    45B2    11.773708  
      56A1    12.095178    57A1    12.295657    34B1    12.369368  
      26A2    12.424185    46B2    12.736687    58A1    13.535398  
      47B2    13.626373    35B1    14.032468    27A2    14.366388  
      59A1    14.416581    48B2    14.774034    60A1    16.413567  
      49B2    16.773816    61A1    44.092367  

    Final Occupation by Irrep:
             A1    A2    B1    B2 
    DOCC [     3,    0,    1,    1 ]

  @DF-RKS Final Energy:   -76.43945171092216

   => Energetics <=

    Nuclear Repulsion Energy =              9.1954145373730025
    One-Electron Energy =                -123.0277550221479430
    Two-Electron Energy =                  43.8854579634054929
    DFT Exchange-Correlation Energy =      -6.5351457003092381
    Empirical Dispersion Energy =           0.0000000000000000
    VV10 Nonlocal Energy =                  0.0425765107565457
    Total Energy =                        -76.4394517109221425

Computation Completed


Properties will be evaluated at   0.000000,   0.000000,   0.000000 [a0]

Properties computed using the SCF density matrix

  Nuclear Dipole Moment: [e a0]
     X:     0.0000      Y:     0.0000      Z:     0.9471

  Electronic Dipole Moment: [e a0]
     X:     0.0000      Y:     0.0000      Z:    -0.2255

  Dipole Moment: [e a0]
     X:     0.0000      Y:     0.0000      Z:     0.7216     Total:     0.7216

  Dipole Moment: [D]
     X:     0.0000      Y:     0.0000      Z:     1.8342     Total:     1.8342


*** tstop() called on bp1-compute00154.data.bp.acrc.priv at Tue Apr 20 11:05:26 2021
Module time:
	user time   =      84.31 seconds =       1.41 minutes
	system time =       2.54 seconds =       0.04 minutes
	total time  =          4 seconds =       0.07 minutes
Total time:
	user time   =     431.97 seconds =       7.20 minutes
	system time =      16.48 seconds =       0.27 minutes
	total time  =         20 seconds =       0.33 minutes

         ----------------------------------------------------------
                                   FINDIF
                     R. A. King and Jonathon Misiewicz
         ---------------------------------------------------------

  Computing gradient from energies.
    Using 3-point formula.
    Energy without displacement:  -76.4394458937
    Check energies below for precision!
    Forces are for mass-weighted, symmetry-adapted cartesians (in au).

     Coord      Energy(-1)        Energy(+1)            Force
        0    -76.4394627076    -76.4394228076      0.0039899986
        1    -76.4394297583    -76.4394517109     -0.0021952638


-------------------------------------------------------------
  ## New Matrix (Symmetry 0) ##
  Irrep: 1 Size: 3 x 3

                 1                   2                   3

    1     0.00000000000000     0.00000000000000     0.00533835691865
    2     0.00000000000000    -0.00155834739968    -0.00266917845932
    3     0.00000000000000     0.00155834739968    -0.00266917845932




			-----------------------------------------
			 OPTKING 2.0: for geometry optimizations 
			  - R.A. King,  Bethel University        
			-----------------------------------------

	Internal coordinates to be generated automatically.
	Detected frag 1 with atoms:  1 2 3
	---Fragment 1 Bond Connectivity---
	 1 : 2 3
	 2 : 1
	 3 : 1

	---Fragment 1 Geometry and Gradient---
	 O          -0.0000000000        0.0000000000       -0.1203305306
	 H           0.0000000000       -1.4566257814        0.9548664211
	 H          -0.0000000000        1.4566257814        0.9548664211
	             0.0000000000        0.0000000000        0.0053383569
	             0.0000000000       -0.0015583474       -0.0026691785
	             0.0000000000        0.0015583474       -0.0026691785

	Previous optimization step data not found.  Starting new optimization.

	---Fragment 1 Intrafragment Coordinates---
	 - Coordinate -           - BOHR/RAD -       - ANG/DEG -
	 R(1,2)           =         1.810472	       0.958060
	 R(1,3)           =         1.810472	       0.958060
	 B(2,1,3)         =         1.869855	     107.134801

	Current energy   :       -76.4394458937

	Generating empirical Hessian (Schlegel '84) for each fragment.
	Taking RFO optimization step.
	Going to follow RFO solution 1.
	Using RFO vector 1.
	Norm of target step-size    0.03474
	Projected energy change by RFO approximation:        -0.0001884680

	Back-transformation to cartesian coordinates...
	Successfully converged to displaced geometry.

	--- Internal Coordinate Step in ANG or DEG, aJ/ANG or AJ/DEG ---
	 ---------------------------------------------------------------------------
	   Coordinate                Previous        Force       Change         New 
	   ----------                --------       ------       ------       ------
	    1 R(1,2)          =      0.958060     0.002730     0.000314     0.958374
	    2 R(1,3)          =      0.958060     0.002730     0.000314     0.958374
	    3 B(2,1,3)        =    107.134801    -0.000423    -1.989883   105.144918
	 ---------------------------------------------------------------------------
	Successfully symmetrized geometry.

  ==> Convergence Check <==

  Measures of convergence in internal coordinates in au.
  Criteria marked as inactive (o), active & met (*), and active & unmet ( ).
  --------------------------------------------------------------------------------------------- ~
   Step     Total Energy     Delta E     MAX Force     RMS Force      MAX Disp      RMS Disp    ~
  --------------------------------------------------------------------------------------------- ~
    Convergence Criteria    1.00e-06 *    3.00e-04 *             o    1.20e-03 *             o  ~
  --------------------------------------------------------------------------------------------- ~
      1     -76.43944589   -7.64e+01      5.56e-03      3.22e-03 o    3.47e-02      2.01e-02 o  ~
  ---------------------------------------------------------------------------------------------

	Writing optimization data to binary file.
	Structure for next step:
	Cartesian Geometry (in Angstrom)
	    O    -0.0000000000   0.0000000000  -0.0726690624
	    H     0.0000000000  -0.7610663549   0.5097899914
	    H    -0.0000000000   0.7610663549   0.5097899914
			--------------------------
			 OPTKING Finished Execution 
			--------------------------

    Structure for next step:
    Molecular point group: c2v
    Full point group: C2v

    Geometry (in Angstrom), charge = 0, multiplicity = 1:

    O           -0.000000000000     0.000000000000    -0.065185831460
    H            0.000000000000    -0.761066357904     0.517273224652
    H           -0.000000000000     0.761066357904     0.517273224652

gradient() will perform gradient computation by finite difference of analytic energies.

         ----------------------------------------------------------
                                   FINDIF
                     R. A. King and Jonathon Misiewicz
         ---------------------------------------------------------

  Using finite-differences of energies to determine gradients.
    Generating geometries for use with 3-point formula.
    Displacement size will be 5.00e-03.
    Number of atoms is 3.
    Number of symmetric SALCs is 2.
    Translations projected? 1. Rotations projected? 1.
    Number of geometries (including reference) is 5.

  //>>>>>>>>>>>>>>>>>>>>>>>>>>>>>>>>>>>//
  //    Loading displacement 1 of 5    //
  //<<<<<<<<<<<<<<<<<<<<<<<<<<<<<<<<<<<//

*** tstart() called on bp1-compute00154.data.bp.acrc.priv
*** at Tue Apr 20 11:05:26 2021

   => Loading Basis Set <=

    Name: AUG-CC-PV(Q+D)Z
    Role: ORBITAL
    Keyword: BASIS
    atoms 1   entry O          line   439 file /work/zw18965/.conda/envs/p4env/share/psi4/basis/aug-cc-pv_qpd_z.gbs 
    atoms 2-3 entry H          line    56 file /work/zw18965/.conda/envs/p4env/share/psi4/basis/aug-cc-pv_qpd_z.gbs 


         ---------------------------------------------------------
                                   SCF
               by Justin Turney, Rob Parrish, Andy Simmonett
                          and Daniel G. A. Smith
                              RKS Reference
                       24 Threads, 137329 MiB Core
         ---------------------------------------------------------

  ==> Geometry <==

    Molecular point group: c2v
    Full point group: C2v

    Geometry (in Angstrom), charge = 0, multiplicity = 1:

       Center              X                  Y                   Z               Mass       
    ------------   -----------------  -----------------  -----------------  -----------------
         O           -0.000000000000     0.000000000000    -0.065185831460    15.994914619570
         H            0.000000000000    -0.761066357904     0.517273224652     1.007825032230
         H           -0.000000000000     0.761066357904     0.517273224652     1.007825032230

  Running in c2v symmetry.

  Rotational constants: A =     27.75850  B =     14.43897  C =      9.49830 [cm^-1]
  Rotational constants: A = 832178.82649  B = 432869.52628  C = 284751.84653 [MHz]
  Nuclear repulsion =    9.182239681008484

  Charge       = 0
  Multiplicity = 1
  Electrons    = 10
  Nalpha       = 5
  Nbeta        = 5

  ==> Algorithm <==

  SCF Algorithm Type is DF.
  DIIS enabled.
  MOM disabled.
  Fractional occupation disabled.
  Guess Type is READ.
  Energy threshold   = 1.00e-08
  Density threshold  = 1.00e-08
  Integral threshold = 0.00e+00

  ==> Primary Basis <==

  Basis Set: AUG-CC-PV(Q+D)Z
    Blend: AUG-CC-PV(Q+D)Z
    Number of shells: 48
    Number of basis function: 172
    Number of Cartesian functions: 215
    Spherical Harmonics?: true
    Max angular momentum: 4

  ==> DFT Potential <==

   => Composite Functional: WB97X-V <= 

    wB97X-V Hyb-GGA Exchange-Correlation Functional

    N. Mardirossian and M. Head-Gordon, Phys. Chem. Chem. Phys. 16, 9904 (2014)

    Deriv               =              1
    GGA                 =           TRUE
    Meta                =          FALSE

    Exchange Hybrid     =           TRUE
    MP2 Hybrid          =          FALSE

   => Exchange-Correlation Functionals <=

    1.0000   wB97X-V range-separated functional

   => Exact (HF) Exchange <=

    0.8330            HF,LR [omega = 0.3000]
    0.1670               HF 

   => VV10 Non-Local Parameters <=

    VV10 B              =     6.0000E+00
    VV10 C              =     1.0000E-02

   => Molecular Quadrature <=

    Radial Scheme          =       TREUTLER
    Pruning Scheme         =           FLAT
    Nuclear Scheme         =       TREUTLER

    BS radius alpha        =              1
    Pruning alpha          =              1
    Radial Points          =             75
    Spherical Points       =            302
    Total Points           =          67950
    Total Blocks           =            584
    Max Points             =            254
    Max Functions          =            172

   => Loading Basis Set <=

    Name: (AUG-CC-PV(Q+D)Z AUX)
    Role: JKFIT
    Keyword: DF_BASIS_SCF
    atoms 1   entry O          line   318 file /work/zw18965/.conda/envs/p4env/share/psi4/basis/aug-cc-pvqz-jkfit.gbs 
    atoms 2-3 entry H          line    70 file /work/zw18965/.conda/envs/p4env/share/psi4/basis/aug-cc-pvqz-jkfit.gbs 

   => Loading Basis Set <=

    Name: AUG-CC-PV(Q+D)Z
    Role: ORBITAL
    Keyword: BASIS
    atoms 1   entry O          line   439 file /work/zw18965/.conda/envs/p4env/share/psi4/basis/aug-cc-pv_qpd_z.gbs 
    atoms 2-3 entry H          line    56 file /work/zw18965/.conda/envs/p4env/share/psi4/basis/aug-cc-pv_qpd_z.gbs 

  Reading orbitals from file 180, no projection.

  ==> Pre-Iterations <==

   -------------------------------------------------------
    Irrep   Nso     Nmo     Nalpha   Nbeta   Ndocc  Nsocc
   -------------------------------------------------------
     A1        61      61       0       0       0       0
     A2        27      27       0       0       0       0
     B1        35      35       0       0       0       0
     B2        49      49       0       0       0       0
   -------------------------------------------------------
    Total     172     172       5       5       5       0
   -------------------------------------------------------

  ==> Integral Setup <==

  ==> DiskDFJK: Density-Fitted J/K Matrices <==

    J tasked:                  Yes
    K tasked:                  Yes
    wK tasked:                 Yes
    Omega:               3.000E-01
    OpenMP threads:             24
    Integrals threads:          24
    Memory [MiB]:           102673
    Algorithm:                Core
    Integral Cache:           NONE
    Schwarz Cutoff:          1E-12
    Fitting Condition:       1E-10

   => Auxiliary Basis Set <=

  Basis Set: (AUG-CC-PV(Q+D)Z AUX)
    Blend: AUG-CC-PVQZ-JKFIT
    Number of shells: 70
    Number of basis function: 294
    Number of Cartesian functions: 400
    Spherical Harmonics?: true
    Max angular momentum: 5

  Cached 100.0% of DFT collocation blocks in 0.316 [GiB].

  Minimum eigenvalue in the overlap matrix is 8.6526850956E-05.
  Using Symmetric Orthogonalization.

  SCF Guess: Orbitals guess was supplied from a previous computation.

  ==> Iterations <==

                           Total Energy        Delta E     RMS |[F,P]|

   @DF-RKS iter   0:   -76.44124714395687   -7.64412e+01   2.31756e-04 
   @DF-RKS iter   1:   -76.43954178467197    1.70536e-03   4.19641e-05 DIIS
   @DF-RKS iter   2:   -76.43954333505425   -1.55038e-06   4.09825e-05 DIIS
   @DF-RKS iter   3:   -76.43954740518234   -4.07013e-06   3.06472e-06 DIIS
   @DF-RKS iter   4:   -76.43954746932098   -6.41386e-08   5.74683e-07 DIIS
   @DF-RKS iter   5:   -76.43954747342876   -4.10778e-09   8.16800e-08 DIIS
   @DF-RKS iter   6:   -76.43954747353126   -1.02503e-10   2.45164e-08 DIIS
   @DF-RKS iter   7:   -76.43954747353840   -7.13385e-12   3.74742e-09 DIIS
  Energy and wave function converged.


  ==> Post-Iterations <==

    Orbital Energies [Eh]
    ---------------------

    Doubly Occupied:                                                      

       1A1   -19.217231     2A1    -1.145701     1B2    -0.648568  
       3A1    -0.505621     1B1    -0.430444  

    Virtual:                                                              

       4A1     0.026313     2B2     0.046828     5A1     0.110509  
       2B1     0.132821     6A1     0.141735     3B2     0.154062  
       4B2     0.180984     7A1     0.195285     1A2     0.208000  
       3B1     0.233954     8A1     0.250989     5B2     0.293201  
       9A1     0.327823     6B2     0.354419     7B2     0.444448  
      10A1     0.477887    11A1     0.515034     2A2     0.521409  
       4B1     0.527738    12A1     0.589459     5B1     0.610148  
       6B1     0.622951     8B2     0.642941     3A2     0.648857  
      13A1     0.665757    14A1     0.672379     9B2     0.700506  
      15A1     0.731873    10B2     0.744042    11B2     0.760603  
       7B1     0.763223    16A1     0.826431     4A2     0.841792  
      12B2     0.925594    17A1     1.069472     5A2     1.077108  
       8B1     1.145264    18A1     1.251904    13B2     1.372869  
      19A1     1.406373    14B2     1.436042     9B1     1.437499  
      20A1     1.450671     6A2     1.482083    10B1     1.525101  
      15B2     1.542455    21A1     1.545358    11B1     1.595841  
      22A1     1.602802     7A2     1.645653    16B2     1.648487  
      23A1     1.656540    12B1     1.690404    24A1     1.711144  
      17B2     1.720548    25A1     1.802102    18B2     1.807002  
       8A2     1.853111    19B2     1.856909    13B1     1.927993  
      20B2     1.959970    26A1     1.965014     9A2     1.968053  
      14B1     2.023182    10A2     2.107278    27A1     2.153915  
      21B2     2.262502    28A1     2.329183    15B1     2.463275  
      22B2     2.507515    11A2     2.759012    29A1     2.836890  
      16B1     2.855729    23B2     2.895481    30A1     2.907206  
      24B2     2.931301    17B1     3.143528    12A2     3.164012  
      31A1     3.167617    25B2     3.355411    32A1     3.407632  
      13A2     3.498423    26B2     3.533849    33A1     3.546789  
      27B2     3.631334    18B1     3.712360    34A1     3.869546  
      19B1     3.960565    28B2     3.968802    14A2     3.969762  
      35A1     3.980222    20B1     4.021515    36A1     4.081072  
      37A1     4.233304    29B2     4.384866    21B1     4.513971  
      38A1     4.532699    22B1     4.580757    30B2     4.613949  
      15A2     4.620015    16A2     4.642860    39A1     4.780216  
      40A1     4.999580    31B2     5.069857    23B1     5.262549  
      41A1     5.296408    32B2     5.580669    17A2     5.644761  
      33B2     5.832222    42A1     5.947601    24B1     6.646783  
      18A2     6.676537    34B2     6.682965    43A1     6.735854  
      35B2     7.477591    25B1     7.541292    19A2     7.570327  
      20A2     7.599660    36B2     7.617980    44A1     7.683998  
      37B2     7.716124    45A1     7.808596    46A1     7.986625  
      26B1     8.010988    38B2     8.254215    47A1     8.368940  
      21A2     8.386056    27B1     8.454324    48A1     8.487232  
      28B1     8.582629    22A2     8.725804    39B2     8.780803  
      49A1     8.932552    40B2     9.381052    41B2     9.569224  
      50A1     9.590676    29B1     9.632132    23A2     9.678701  
      42B2    10.030147    51A1    10.124580    52A1    10.253224  
      30B1    10.567699    53A1    10.671412    43B2    10.673707  
      31B1    10.748735    24A2    10.919447    54A1    10.987074  
      25A2    11.301423    44B2    11.337307    32B1    11.397482  
      55A1    11.513755    33B1    11.713158    45B2    11.761515  
      56A1    12.135759    57A1    12.284860    34B1    12.347429  
      26A2    12.425409    46B2    12.721657    58A1    13.521570  
      47B2    13.617662    35B1    14.032579    27A2    14.343315  
      59A1    14.419757    48B2    14.747363    60A1    16.372005  
      49B2    16.778106    61A1    44.086342  

    Final Occupation by Irrep:
             A1    A2    B1    B2 
    DOCC [     3,    0,    1,    1 ]

  @DF-RKS Final Energy:   -76.43954747353840

   => Energetics <=

    Nuclear Repulsion Energy =              9.1822396810084843
    One-Electron Energy =                -123.0005633212593636
    Two-Electron Energy =                  43.8702111184002774
    DFT Exchange-Correlation Energy =      -6.5340102962505382
    Empirical Dispersion Energy =           0.0000000000000000
    VV10 Nonlocal Energy =                  0.0425753445627345
    Total Energy =                        -76.4395474735384113

Computation Completed


Properties will be evaluated at   0.000000,   0.000000,   0.000000 [a0]

Properties computed using the SCF density matrix

  Nuclear Dipole Moment: [e a0]
     X:     0.0000      Y:     0.0000      Z:     0.9695

  Electronic Dipole Moment: [e a0]
     X:     0.0000      Y:     0.0000      Z:    -0.2363

[...]

*** tstart() called on bp1-compute00154.data.bp.acrc.priv
*** at Tue Apr 20 11:06:41 2021

   => Loading Basis Set <=

    Name: AUG-CC-PV(Q+D)Z
    Role: ORBITAL
    Keyword: BASIS
    atoms 1   entry O          line   439 file /work/zw18965/.conda/envs/p4env/share/psi4/basis/aug-cc-pv_qpd_z.gbs 
    atoms 2-3 entry H          line    56 file /work/zw18965/.conda/envs/p4env/share/psi4/basis/aug-cc-pv_qpd_z.gbs 


         ---------------------------------------------------------
                                   SCF
               by Justin Turney, Rob Parrish, Andy Simmonett
                          and Daniel G. A. Smith
                              RKS Reference
                       24 Threads, 137329 MiB Core
         ---------------------------------------------------------

  ==> Geometry <==

    Molecular point group: cs
    Full point group: Cs

    Geometry (in Angstrom), charge = 0, multiplicity = 1:

       Center              X                  Y                   Z               Mass       
    ------------   -----------------  -----------------  -----------------  -----------------
         O            0.000000000000    -0.000179376146    -0.065342075309    15.994914619570
         H            0.000000000000    -0.759858293890     0.517421406731     1.007825032230
         H            0.000000000000     0.762705123489     0.519604745840     1.007825032230

  Running in cs symmetry.

  Rotational constants: A =     27.62671  B =     14.43050  C =      9.47916 [cm^-1]
  Rotational constants: A = 828227.86949  B = 432615.50857  C = 284178.21532 [MHz]
  Nuclear repulsion =    9.172784181493229

  Charge       = 0
  Multiplicity = 1
  Electrons    = 10
  Nalpha       = 5
  Nbeta        = 5

  ==> Algorithm <==

  SCF Algorithm Type is DF.
  DIIS enabled.
  MOM disabled.
  Fractional occupation disabled.
  Guess Type is SAD.
  Energy threshold   = 1.00e-10
  Density threshold  = 1.00e-10
  Integral threshold = 0.00e+00

  ==> Primary Basis <==

  Basis Set: AUG-CC-PV(Q+D)Z
    Blend: AUG-CC-PV(Q+D)Z
    Number of shells: 48
    Number of basis function: 172
    Number of Cartesian functions: 215
    Spherical Harmonics?: true
    Max angular momentum: 4

  ==> DFT Potential <==

   => Composite Functional: WB97X-V <= 

    wB97X-V Hyb-GGA Exchange-Correlation Functional

    N. Mardirossian and M. Head-Gordon, Phys. Chem. Chem. Phys. 16, 9904 (2014)

    Deriv               =              1
    GGA                 =           TRUE
    Meta                =          FALSE

    Exchange Hybrid     =           TRUE
    MP2 Hybrid          =          FALSE

   => Exchange-Correlation Functionals <=

    1.0000   wB97X-V range-separated functional

   => Exact (HF) Exchange <=

    0.8330            HF,LR [omega = 0.3000]
    0.1670               HF 

   => VV10 Non-Local Parameters <=

    VV10 B              =     6.0000E+00
    VV10 C              =     1.0000E-02

   => Molecular Quadrature <=

    Radial Scheme          =       TREUTLER
    Pruning Scheme         =           FLAT
    Nuclear Scheme         =       TREUTLER

    BS radius alpha        =              1
    Pruning alpha          =              1
    Radial Points          =             75
    Spherical Points       =            302
    Total Points           =          67950
    Total Blocks           =            574
    Max Points             =            256
    Max Functions          =            172

   => Loading Basis Set <=

    Name: (AUG-CC-PV(Q+D)Z AUX)
    Role: JKFIT
    Keyword: DF_BASIS_SCF
    atoms 1   entry O          line   318 file /work/zw18965/.conda/envs/p4env/share/psi4/basis/aug-cc-pvqz-jkfit.gbs 
    atoms 2-3 entry H          line    70 file /work/zw18965/.conda/envs/p4env/share/psi4/basis/aug-cc-pvqz-jkfit.gbs 

  ==> Pre-Iterations <==

   -------------------------------------------------------
    Irrep   Nso     Nmo     Nalpha   Nbeta   Ndocc  Nsocc
   -------------------------------------------------------
     A'       110     110       0       0       0       0
     A"        62      62       0       0       0       0
   -------------------------------------------------------
    Total     172     172       5       5       5       0
   -------------------------------------------------------

  ==> Integral Setup <==

  ==> DiskDFJK: Density-Fitted J/K Matrices <==

    J tasked:                  Yes
    K tasked:                  Yes
    wK tasked:                 Yes
    Omega:               3.000E-01
    OpenMP threads:             24
    Integrals threads:          24
    Memory [MiB]:           102673
    Algorithm:                Core
    Integral Cache:           NONE
    Schwarz Cutoff:          1E-12
    Fitting Condition:       1E-10

   => Auxiliary Basis Set <=

  Basis Set: (AUG-CC-PV(Q+D)Z AUX)
    Blend: AUG-CC-PVQZ-JKFIT
    Number of shells: 70
    Number of basis function: 294
    Number of Cartesian functions: 400
    Spherical Harmonics?: true
    Max angular momentum: 5

  Cached 100.0% of DFT collocation blocks in 0.316 [GiB].

  Minimum eigenvalue in the overlap matrix is 8.6845265135E-05.
  Using Symmetric Orthogonalization.

  SCF Guess: Superposition of Atomic Densities via on-the-fly atomic UHF.

  ==> Iterations <==

                           Total Energy        Delta E     RMS |[F,P]|

   @DF-RKS iter SAD:   -75.95348195127559   -7.59535e+01   0.00000e+00 
   @DF-RKS iter   1:   -76.30594293325647   -3.52461e-01   4.89462e-03 DIIS
   @DF-RKS iter   2:   -76.28548271401584    2.04602e-02   5.45168e-03 DIIS
   @DF-RKS iter   3:   -76.43936140766650   -1.53879e-01   1.28159e-04 DIIS
   @DF-RKS iter   4:   -76.43952956290691   -1.68155e-04   3.85791e-05 DIIS
   @DF-RKS iter   5:   -76.43954174169582   -1.21788e-05   6.71282e-06 DIIS
   @DF-RKS iter   6:   -76.43954227288870   -5.31193e-07   1.04647e-06 DIIS
   @DF-RKS iter   7:   -76.43954229423714   -2.13484e-08   1.99488e-07 DIIS
   @DF-RKS iter   8:   -76.43954229512177   -8.84626e-10   3.02342e-08 DIIS
   @DF-RKS iter   9:   -76.43954229515036   -2.85922e-11   5.22904e-09 DIIS
   @DF-RKS iter  10:   -76.43954229515124   -8.81073e-13   5.66411e-10 DIIS
   @DF-RKS iter  11:   -76.43954229515118    5.68434e-14   1.26876e-10 DIIS
   @DF-RKS iter  12:   -76.43954229515126   -7.10543e-14   1.80078e-11 DIIS
  Energy and wave function converged.


  ==> Post-Iterations <==

    Orbital Energies [Eh]
    ---------------------

    Doubly Occupied:                                                      

       1Ap   -19.217432     2Ap    -1.145340     3Ap    -0.647942  
       4Ap    -0.505733     1App   -0.430380  

    Virtual:                                                              

       5Ap     0.026279     6Ap     0.046828     7Ap     0.110456  
       2App    0.132877     8Ap     0.141717     9Ap     0.154045  
      10Ap     0.180891    11Ap     0.195254     3App    0.208014  
       4App    0.233806    12Ap     0.250928    13Ap     0.293190  
      14Ap     0.327576    15Ap     0.354100    16Ap     0.444414  
      17Ap     0.477900    18Ap     0.514972     5App    0.521400  
       6App    0.527816    19Ap     0.589379     7App    0.610137  
       8App    0.622866    20Ap     0.642919     9App    0.648928  
      21Ap     0.665601    22Ap     0.672460    23Ap     0.700455  
      24Ap     0.731470    25Ap     0.743627    26Ap     0.760467  
      10App    0.763222    27Ap     0.826390    11App    0.841808  
      28Ap     0.925753    29Ap     1.069092    12App    1.077038  
      13App    1.144683    30Ap     1.251841    31Ap     1.372933  
      32Ap     1.406013    33Ap     1.435323    14App    1.437552  
      34Ap     1.450806    15App    1.481985    16App    1.525215  
      35Ap     1.542179    36Ap     1.545122    17App    1.596090  
      37Ap     1.602451    18App    1.645857    38Ap     1.648472  
      39Ap     1.657005    19App    1.690185    40Ap     1.710888  
      41Ap     1.719943    42Ap     1.802211    43Ap     1.807078  
      20App    1.853225    44Ap     1.857257    21App    1.928265  
      45Ap     1.960093    46Ap     1.965367    22App    1.968097  
      23App    2.023642    24App    2.106886    47Ap     2.153689  
      48Ap     2.262111    49Ap     2.327390    25App    2.461784  
      50Ap     2.505922    26App    2.757726    51Ap     2.835265  
      27App    2.854768    52Ap     2.895512    53Ap     2.906311  
      54Ap     2.930370    28App    3.141568    29App    3.163738  
      55Ap     3.167891    56Ap     3.353990    57Ap     3.407550  
      30App    3.497519    58Ap     3.533509    59Ap     3.545416  
      60Ap     3.631046    31App    3.712658    61Ap     3.869823  
      32App    3.960889    62Ap     3.968906    33App    3.970117  
      63Ap     3.980100    34App    4.021426    64Ap     4.080557  
      65Ap     4.233463    66Ap     4.384054    35App    4.513552  
      67Ap     4.531448    36App    4.580233    68Ap     4.612438  
      37App    4.618598    38App    4.641280    69Ap     4.779458  
      70Ap     4.998102    71Ap     5.069561    39App    5.259415  
      72Ap     5.294709    73Ap     5.577388    40App    5.642969  
      74Ap     5.830512    75Ap     5.944851    41App    6.644872  
      42App    6.676229    76Ap     6.682268    77Ap     6.733682  
      78Ap     7.474871    43App    7.541289    44App    7.566788  
      45App    7.596433    79Ap     7.613761    80Ap     7.681333  
      81Ap     7.715783    82Ap     7.807994    83Ap     7.982435  
      46App    8.008138    84Ap     8.252340    85Ap     8.367088  
      47App    8.387191    48App    8.453393    86Ap     8.483180  
      49App    8.580519    50App    8.726766    87Ap     8.778994  
      88Ap     8.931954    89Ap     9.381409    90Ap     9.567481  
      91Ap     9.585856    51App    9.626455    52App    9.675492  
      92Ap    10.023505    93Ap    10.120728    94Ap    10.259209  
      53App   10.567756    95Ap    10.670214    96Ap    10.678324  
      54App   10.748925    55App   10.916741    97Ap    10.985453  
      56App   11.299545    98Ap    11.336231    57App   11.398037  
      99Ap    11.511149    58App   11.713391   100Ap    11.756315  
     101Ap    12.134342   102Ap    12.279435    59App   12.341075  
      60App   12.422705   103Ap    12.720362   104Ap    13.516450  
     105Ap    13.607172    61App   14.024439    62App   14.334925  
     106Ap    14.412764   107Ap    14.736072   108Ap    16.362075  
     109Ap    16.771371   110Ap    44.075759  

    Final Occupation by Irrep:
             Ap   App 
    DOCC [     4,    1 ]

  @DF-RKS Final Energy:   -76.43954229515126

   => Energetics <=

    Nuclear Repulsion Energy =              9.1727841814932294
    One-Electron Energy =                -122.9836095967548744
    Two-Electron Energy =                  43.8619618337455961
    DFT Exchange-Correlation Energy =      -6.5332530528259731
    Empirical Dispersion Energy =           0.0000000000000000
    VV10 Nonlocal Energy =                  0.0425743391907684
    Total Energy =                        -76.4395422951512558

Computation Completed


Properties will be evaluated at   0.000000,   0.000000,   0.000000 [a0]

Properties computed using the SCF density matrix

  Nuclear Dipole Moment: [e a0]
     X:     0.0000      Y:     0.0027      Z:     0.9719

  Electronic Dipole Moment: [e a0]
     X:     0.0000      Y:    -0.0014      Z:    -0.2377

  Dipole Moment: [e a0]
     X:     0.0000      Y:     0.0013      Z:     0.7341     Total:     0.7341

  Dipole Moment: [D]
     X:     0.0000      Y:     0.0033      Z:     1.8660     Total:     1.8660


*** tstop() called on bp1-compute00154.data.bp.acrc.priv at Tue Apr 20 11:06:45 2021
Module time:
	user time   =      95.62 seconds =       1.59 minutes
	system time =       2.56 seconds =       0.04 minutes
	total time  =          4 seconds =       0.07 minutes
Total time:
	user time   =    2211.07 seconds =      36.85 minutes
	system time =      67.87 seconds =       1.13 minutes
	total time  =         99 seconds =       1.65 minutes

         ----------------------------------------------------------
                                   FINDIF
                     R. A. King and Jonathon Misiewicz
         ---------------------------------------------------------

  Computing second-derivative from energies using projected, 
  symmetry-adapted, cartesian coordinates.

  8 energies passed in, including the reference geometry.
    Using 3-point formula.
    Energy without displacement:  -76.4395497095
    Check energies below for precision!
    0: -1        :       -76.4395466301
    0: 1         :       -76.4395463545
    1: -1        :       -76.4395448263
    1: 1         :       -76.4395444247
    0: 1, 1: 1   :       -76.4395355399
    0: -1, 1: -1 :       -76.4395363491
    2: -1        :       -76.4395422952

-------------------------------------------------------------


  ==> Harmonic Vibrational Analysis <==

  non-mass-weighted Hessian:       Symmetric? True   Hermitian? True   Lin Dep Dim?  6 (0)
  projection of translations (True) and rotations (True) removed 6 degrees of freedom (6)
  total projector:                 Symmetric? True   Hermitian? True   Lin Dep Dim?  6 (6)
  mass-weighted Hessian:           Symmetric? True   Hermitian? True   Lin Dep Dim?  6 (0)
  pre-proj  low-frequency mode:    0.0000i [cm^-1]
  pre-proj  low-frequency mode:    0.0000i [cm^-1]
  pre-proj  low-frequency mode:    0.0000i [cm^-1]
  pre-proj  low-frequency mode:    0.0000  [cm^-1]
  pre-proj  low-frequency mode:    0.0000  [cm^-1]
  pre-proj  low-frequency mode:    0.0000  [cm^-1]
  pre-proj  all modes:['0.0000i' '0.0000i' '0.0000i' '0.0000' '0.0000' '0.0000' '1634.4311'
 '3857.1051' '3959.0158']
  projected mass-weighted Hessian: Symmetric? True   Hermitian? True   Lin Dep Dim?  6 (6)
  post-proj low-frequency mode:    0.0000i [cm^-1] (TR)
  post-proj low-frequency mode:    0.0000i [cm^-1] (TR)
  post-proj low-frequency mode:    0.0000i [cm^-1] (TR)
  post-proj low-frequency mode:    0.0000  [cm^-1] (TR)
  post-proj low-frequency mode:    0.0001  [cm^-1] (TR)
  post-proj low-frequency mode:    0.0001  [cm^-1] (TR)
  post-proj  all modes:['0.0000i' '0.0000i' '0.0000i' '0.0000' '0.0001' '0.0001' '1634.4311'
 '3857.1051' '3959.0158']

  Vibration                       7                   8                   9           
  Freq [cm^-1]                1634.4311           3857.1051           3959.0158       
  Irrep                           A1                  A1                  B2          
  Reduced mass [u]              1.0830              1.0449              1.0824        
  Force const [mDyne/A]         1.7045              9.1590              9.9955        
  Turning point v=0 [a0]        0.2608              0.1728              0.1676        
  RMS dev v=0 [a0 u^1/2]        0.1919              0.1249              0.1233        
  Char temp [K]               2351.5824           5549.5155           5696.1423       
  ----------------------------------------------------------------------------------
      1   O               -0.00 -0.00 -0.07   -0.00  0.00  0.05    0.00 -0.07  0.00   
      2   H               -0.00  0.43  0.56   -0.00  0.59 -0.39   -0.00  0.56 -0.43   
      3   H                0.00 -0.43  0.56    0.00 -0.59 -0.39   -0.00  0.56  0.43   

  ==> Thermochemistry Components <==

  Entropy, S
    Electronic S            0.000 [cal/(mol K)]        0.000 [J/(mol K)]       0.00000000 [mEh/K] (multiplicity = 1)
    Translational S        34.608 [cal/(mol K)]      144.801 [J/(mol K)]       0.05515177 [mEh/K] (mol. weight = 18.0106 [u], P = 101325.00 [Pa])
    Rotational S           10.455 [cal/(mol K)]       43.745 [J/(mol K)]       0.01666158 [mEh/K] (symmetry no. = 2)
    Vibrational S           0.007 [cal/(mol K)]        0.028 [J/(mol K)]       0.00001057 [mEh/K]
  Total S                  45.070 [cal/(mol K)]      188.574 [J/(mol K)]       0.07182393 [mEh/K]
  Correction S              0.000 [cal/(mol K)]        0.000 [J/(mol K)]       0.00000000 [mEh/K]

  Constant volume heat capacity, Cv
    Electronic Cv           0.000 [cal/(mol K)]        0.000 [J/(mol K)]       0.00000000 [mEh/K]
    Translational Cv        2.981 [cal/(mol K)]       12.472 [J/(mol K)]       0.00475022 [mEh/K]
    Rotational Cv           2.981 [cal/(mol K)]       12.472 [J/(mol K)]       0.00475022 [mEh/K]
    Vibrational Cv          0.046 [cal/(mol K)]        0.194 [J/(mol K)]       0.00007405 [mEh/K]
  Total Cv                  6.008 [cal/(mol K)]       25.138 [J/(mol K)]       0.00957448 [mEh/K]
  Correction Cv             0.000 [cal/(mol K)]        0.000 [J/(mol K)]       0.00000000 [mEh/K]

  Constant pressure heat capacity, Cp
    Electronic Cp           0.000 [cal/(mol K)]        0.000 [J/(mol K)]       0.00000000 [mEh/K]
    Translational Cp        4.968 [cal/(mol K)]       20.786 [J/(mol K)]       0.00791703 [mEh/K]
    Rotational Cp           2.981 [cal/(mol K)]       12.472 [J/(mol K)]       0.00475022 [mEh/K]
    Vibrational Cp          0.046 [cal/(mol K)]        0.194 [J/(mol K)]       0.00007405 [mEh/K]
  Total Cp                  7.995 [cal/(mol K)]       33.452 [J/(mol K)]       0.01274129 [mEh/K]
  Correction Cp             0.000 [cal/(mol K)]        0.000 [J/(mol K)]       0.00000000 [mEh/K]

  ==> Thermochemistry Energy Analysis <==

  Raw electronic energy, E0
  Total E0, Electronic energy at well bottom at 0 [K]                  -76.43954971 [Eh]

  Zero-point energy, ZPE_vib = Sum_i nu_i / 2
    Electronic ZPE          0.000 [kcal/mol]        0.000 [kJ/mol]       0.00000000 [Eh]
    Translational ZPE       0.000 [kcal/mol]        0.000 [kJ/mol]       0.00000000 [Eh]
    Rotational ZPE          0.000 [kcal/mol]        0.000 [kJ/mol]       0.00000000 [Eh]
    Vibrational ZPE        13.510 [kcal/mol]       56.527 [kJ/mol]       0.02152994 [Eh]        4725.276 [cm^-1]
  Correction ZPE           13.510 [kcal/mol]       56.527 [kJ/mol]       0.02152994 [Eh]        4725.276 [cm^-1]
  Total ZPE, Electronic energy at 0 [K]                                -76.41801977 [Eh]

  Thermal Energy, E (includes ZPE)
    Electronic E            0.000 [kcal/mol]        0.000 [kJ/mol]       0.00000000 [Eh]
    Translational E         0.889 [kcal/mol]        3.718 [kJ/mol]       0.00141628 [Eh]
    Rotational E            0.889 [kcal/mol]        3.718 [kJ/mol]       0.00141628 [Eh]
    Vibrational E          13.512 [kcal/mol]       56.534 [kJ/mol]       0.02153274 [Eh]
  Correction E             15.289 [kcal/mol]       63.971 [kJ/mol]       0.02436529 [Eh]
  Total E, Electronic energy at  298.15 [K]                            -76.41518442 [Eh]

  Enthalpy, H_trans = E_trans + k_B * T
    Electronic H            0.000 [kcal/mol]        0.000 [kJ/mol]       0.00000000 [Eh]
    Translational H         1.481 [kcal/mol]        6.197 [kJ/mol]       0.00236046 [Eh]
    Rotational H            0.889 [kcal/mol]        3.718 [kJ/mol]       0.00141628 [Eh]
    Vibrational H          13.512 [kcal/mol]       56.534 [kJ/mol]       0.02153274 [Eh]
  Correction H             15.882 [kcal/mol]       66.450 [kJ/mol]       0.02530948 [Eh]
  Total H, Enthalpy at  298.15 [K]                                     -76.41424023 [Eh]

  Gibbs free energy, G = H - T * S
    Electronic G            0.000 [kcal/mol]        0.000 [kJ/mol]       0.00000000 [Eh]
    Translational G        -8.837 [kcal/mol]      -36.975 [kJ/mol]      -0.01408304 [Eh]
    Rotational G           -2.229 [kcal/mol]       -9.324 [kJ/mol]      -0.00355137 [Eh]
    Vibrational G          13.510 [kcal/mol]       56.526 [kJ/mol]       0.02152959 [Eh]
  Correction G              2.444 [kcal/mol]       10.227 [kJ/mol]       0.00389517 [Eh]
  Total G, Free enthalpy at  298.15 [K]                                -76.43565454 [Eh]

    Psi4 stopped on: Tuesday, 20 April 2021 11:06AM
    Psi4 wall time for execution: 0:01:39.79

*** Psi4 exiting successfully. Buy a developer a beer!
