
    -----------------------------------------------------------------------
          Psi4: An Open-Source Ab Initio Electronic Structure Package
                               Psi4 1.3.2 release

                         Git: Rev {HEAD} ecbda83 


    R. M. Parrish, L. A. Burns, D. G. A. Smith, A. C. Simmonett,
    A. E. DePrince III, E. G. Hohenstein, U. Bozkaya, A. Yu. Sokolov,
    R. Di Remigio, R. M. Richard, J. F. Gonthier, A. M. James,
    H. R. McAlexander, A. Kumar, M. Saitow, X. Wang, B. P. Pritchard,
    P. Verma, H. F. Schaefer III, K. Patkowski, R. A. King, E. F. Valeev,
    F. A. Evangelista, J. M. Turney, T. D. Crawford, and C. D. Sherrill,
    J. Chem. Theory Comput. 13(7) pp 3185--3197 (2017).
    (doi: 10.1021/acs.jctc.7b00174)


                         Additional Contributions by
    P. Kraus, H. Kruse, M. H. Lechner, M. C. Schieber, R. A. Shaw,
    A. Alenaizan, R. Galvelis, Z. L. Glick, S. Lehtola, and J. P. Misiewicz

    -----------------------------------------------------------------------


    Psi4 started on: Tuesday, 27 April 2021 04:36PM

    Process ID: 249925
    Host:       bp1-compute00068.data.bp.acrc.priv
    PSIDATADIR: /work/zw18965/.conda/envs/p4env/share/psi4
    Memory:     500.0 MiB
    Threads:    24
    
  ==> Input File <==

--------------------------------------------------------------------------
memory 144 GB

molecule {
0 1
O 0.0000000000 0.0000000000 0.0000000000
H 0.0000000000 0.0000000000 0.9579000000
H 0.9289588892 0.0000000000 -0.2336831018
}

set dynamic_level 1
set basis aug-cc-pV(Q+d)Z
 
optimize("wB97X-V")
frequencies("wB97X-V")
--------------------------------------------------------------------------

  Memory set to 134.110 GiB by Python driver.
gradient() will perform gradient computation by finite difference of analytic energies.

         ----------------------------------------------------------
                                   FINDIF
                     R. A. King and Jonathon Misiewicz
         ---------------------------------------------------------

  Using finite-differences of energies to determine gradients.
    Generating geometries for use with 3-point formula.
    Displacement size will be 5.00e-03.
    Number of atoms is 3.
    Number of symmetric SALCs is 2.
    Translations projected? 1. Rotations projected? 1.
    Number of geometries (including reference) is 5.

  //>>>>>>>>>>>>>>>>>>>>>>>>>>>>>>>>>>>//
  //    Loading displacement 1 of 5    //
  //<<<<<<<<<<<<<<<<<<<<<<<<<<<<<<<<<<<//

*** tstart() called on bp1-compute00068.data.bp.acrc.priv
*** at Tue Apr 27 16:36:24 2021

   => Loading Basis Set <=

    Name: AUG-CC-PV(Q+D)Z
    Role: ORBITAL
    Keyword: BASIS
    atoms 1   entry O          line   439 file /work/zw18965/.conda/envs/p4env/share/psi4/basis/aug-cc-pv_qpd_z.gbs 
    atoms 2-3 entry H          line    56 file /work/zw18965/.conda/envs/p4env/share/psi4/basis/aug-cc-pv_qpd_z.gbs 


         ---------------------------------------------------------
                                   SCF
               by Justin Turney, Rob Parrish, Andy Simmonett
                          and Daniel G. A. Smith
                              RKS Reference
                       24 Threads, 137329 MiB Core
         ---------------------------------------------------------

  ==> Geometry <==

    Molecular point group: c2v
    Full point group: C2v

    Geometry (in Angstrom), charge = 0, multiplicity = 1:

       Center              X                  Y                   Z               Mass       
    ------------   -----------------  -----------------  -----------------  -----------------
         O            0.000000000000     0.000000000000    -0.065912414824    15.994914619570
         H           -0.000000000000     0.755452663361     0.523038927279     1.007825032230
         H            0.000000000000    -0.755452663361     0.523038927279     1.007825032230

  Running in c2v symmetry.

  Rotational constants: A =     27.14988  B =     14.65436  C =      9.51731 [cm^-1]
  Rotational constants: A = 813932.95770  B = 439326.65046  C = 285321.92187 [MHz]
  Nuclear repulsion =    9.189193889971767

  Charge       = 0
  Multiplicity = 1
  Electrons    = 10
  Nalpha       = 5
  Nbeta        = 5

  ==> Algorithm <==

  SCF Algorithm Type is DF.
  DIIS enabled.
  MOM disabled.
  Fractional occupation disabled.
  Guess Type is SAD.
  Energy threshold   = 1.00e-08
  Density threshold  = 1.00e-08
  Integral threshold = 0.00e+00

  ==> Primary Basis <==

  Basis Set: AUG-CC-PV(Q+D)Z
    Blend: AUG-CC-PV(Q+D)Z
    Number of shells: 48
    Number of basis function: 172
    Number of Cartesian functions: 215
    Spherical Harmonics?: true
    Max angular momentum: 4

  ==> DFT Potential <==

   => Composite Functional: WB97X-V <= 

    wB97X-V Hyb-GGA Exchange-Correlation Functional

    N. Mardirossian and M. Head-Gordon, Phys. Chem. Chem. Phys. 16, 9904 (2014)

    Deriv               =              1
    GGA                 =           TRUE
    Meta                =          FALSE

    Exchange Hybrid     =           TRUE
    MP2 Hybrid          =          FALSE

   => Exchange-Correlation Functionals <=

    1.0000   wB97X-V range-separated functional

   => Exact (HF) Exchange <=

    0.8330            HF,LR [omega = 0.3000]
    0.1670               HF 

   => VV10 Non-Local Parameters <=

    VV10 B              =     6.0000E+00
    VV10 C              =     1.0000E-02

   => Molecular Quadrature <=

    Radial Scheme          =       TREUTLER
    Pruning Scheme         =           FLAT
    Nuclear Scheme         =       TREUTLER

    BS radius alpha        =              1
    Pruning alpha          =              1
    Radial Points          =             75
    Spherical Points       =            302
    Total Points           =          67950
    Total Blocks           =            583
    Max Points             =            256
    Max Functions          =            172

   => Loading Basis Set <=

    Name: (AUG-CC-PV(Q+D)Z AUX)
    Role: JKFIT
    Keyword: DF_BASIS_SCF
    atoms 1   entry O          line   318 file /work/zw18965/.conda/envs/p4env/share/psi4/basis/aug-cc-pvqz-jkfit.gbs 
    atoms 2-3 entry H          line    70 file /work/zw18965/.conda/envs/p4env/share/psi4/basis/aug-cc-pvqz-jkfit.gbs 

  ==> Pre-Iterations <==

   -------------------------------------------------------
    Irrep   Nso     Nmo     Nalpha   Nbeta   Ndocc  Nsocc
   -------------------------------------------------------
     A1        61      61       0       0       0       0
     A2        27      27       0       0       0       0
     B1        35      35       0       0       0       0
     B2        49      49       0       0       0       0
   -------------------------------------------------------
    Total     172     172       5       5       5       0
   -------------------------------------------------------

  ==> Integral Setup <==

  ==> DiskDFJK: Density-Fitted J/K Matrices <==

    J tasked:                  Yes
    K tasked:                  Yes
    wK tasked:                 Yes
    Omega:               3.000E-01
    OpenMP threads:             24
    Integrals threads:          24
    Memory [MiB]:           102673
    Algorithm:                Core
    Integral Cache:           NONE
    Schwarz Cutoff:          1E-12
    Fitting Condition:       1E-10

   => Auxiliary Basis Set <=

  Basis Set: (AUG-CC-PV(Q+D)Z AUX)
    Blend: AUG-CC-PVQZ-JKFIT
    Number of shells: 70
    Number of basis function: 294
    Number of Cartesian functions: 400
    Spherical Harmonics?: true
    Max angular momentum: 5

  Cached 100.0% of DFT collocation blocks in 0.316 [GiB].

  Minimum eigenvalue in the overlap matrix is 8.6603937352E-05.
  Using Symmetric Orthogonalization.

  SCF Guess: Superposition of Atomic Densities via on-the-fly atomic UHF.

  ==> Iterations <==

                           Total Energy        Delta E     RMS |[F,P]|

   @DF-RKS iter SAD:   -75.95551068632483   -7.59555e+01   0.00000e+00 
   @DF-RKS iter   1:   -76.30588460046741   -3.50374e-01   6.87951e-03 DIIS
   @DF-RKS iter   2:   -76.28568306506661    2.02015e-02   7.65626e-03 DIIS
   @DF-RKS iter   3:   -76.43934315508210   -1.53660e-01   1.79753e-04 DIIS
   @DF-RKS iter   4:   -76.43950990752164   -1.66752e-04   5.38946e-05 DIIS
   @DF-RKS iter   5:   -76.43952187250775   -1.19650e-05   9.36779e-06 DIIS
   @DF-RKS iter   6:   -76.43952238621678   -5.13709e-07   1.44092e-06 DIIS
   @DF-RKS iter   7:   -76.43952240625823   -2.00415e-08   2.70856e-07 DIIS
   @DF-RKS iter   8:   -76.43952240706922   -8.10985e-10   4.09425e-08 DIIS
   @DF-RKS iter   9:   -76.43952240709530   -2.60769e-11   7.11409e-09 DIIS
  Energy and wave function converged.


  ==> Post-Iterations <==

    Orbital Energies [Eh]
    ---------------------

    Doubly Occupied:                                                      

       1A1   -19.217542     2A1    -1.146628     1B2    -0.646891  
       3A1    -0.507575     1B1    -0.430692  

    Virtual:                                                              

       4A1     0.026258     2B2     0.046892     5A1     0.110354  
       2B1     0.132958     6A1     0.141983     3B2     0.154288  
       4B2     0.180751     7A1     0.195372     1A2     0.208275  
       3B1     0.233169     8A1     0.250585     5B2     0.293520  
       9A1     0.328000     6B2     0.354286     7B2     0.444205  
      10A1     0.478601    11A1     0.514698     2A2     0.521931  
       4B1     0.528160    12A1     0.589907     5B1     0.609453  
       6B1     0.622715     8B2     0.642979     3A2     0.648702  
      13A1     0.664562    14A1     0.672650     9B2     0.701780  
      15A1     0.732319    10B2     0.743606    11B2     0.760397  
       7B1     0.762950    16A1     0.825906     4A2     0.841499  
      12B2     0.925644    17A1     1.065450     5A2     1.077928  
       8B1     1.143987    18A1     1.252470    13B2     1.377945  
      19A1     1.407432    14B2     1.434834     9B1     1.438346  
      20A1     1.451197     6A2     1.481653    10B1     1.523778  
      15B2     1.542908    21A1     1.545927    11B1     1.597163  
      22A1     1.600538     7A2     1.645993    16B2     1.648499  
      23A1     1.659104    12B1     1.687693    24A1     1.709787  
      17B2     1.717627    25A1     1.802339    18B2     1.810961  
       8A2     1.856348    19B2     1.860213    13B1     1.935029  
      20B2     1.961378     9A2     1.966402    26A1     1.968723  
      14B1     2.022675    10A2     2.104683    27A1     2.150409  
      21B2     2.264787    28A1     2.318921    15B1     2.462205  
      22B2     2.505183    11A2     2.759256    29A1     2.836678  
      16B1     2.853269    23B2     2.899918    30A1     2.906516  
      24B2     2.931189    17B1     3.134700    31A1     3.174901  
      12A2     3.177737    25B2     3.348138    32A1     3.407427  
      13A2     3.496108    26B2     3.532246    33A1     3.543696  
      27B2     3.644664    18B1     3.712536    34A1     3.871560  
      19B1     3.961934    14A2     3.968348    28B2     3.969815  
      35A1     3.979667    20B1     4.017412    36A1     4.078843  
      37A1     4.236151    29B2     4.389665    21B1     4.528792  
      38A1     4.531046    22B1     4.584343    15A2     4.609236  
      30B2     4.609463    16A2     4.643018    39A1     4.776849  
      40A1     4.993017    31B2     5.069203    23B1     5.259906  
      41A1     5.303703    32B2     5.577431    17A2     5.649256  
      33B2     5.832945    42A1     5.951532    24B1     6.638765  
      34B2     6.689662    18A2     6.691142    43A1     6.724261  
      35B2     7.482165    25B1     7.542496    19A2     7.563646  
      20A2     7.586912    36B2     7.618398    44A1     7.683859  
      37B2     7.717761    45A1     7.814786    46A1     7.941326  
      26B1     8.010207    38B2     8.255659    47A1     8.356305  
      21A2     8.402894    27B1     8.439591    48A1     8.488296  
      28B1     8.577535    22A2     8.726206    39B2     8.778066  
      49A1     8.951918    40B2     9.402144    50A1     9.581654  
      41B2     9.604781    29B1     9.632107    23A2     9.678358  
      42B2    10.009670    51A1    10.114008    52A1    10.259179  
      30B1    10.570367    43B2    10.668016    53A1    10.686199  
      31B1    10.754700    24A2    10.908303    54A1    10.984813  
      25A2    11.306673    44B2    11.337670    32B1    11.396338  
      55A1    11.509935    33B1    11.719978    45B2    11.761829  
      56A1    12.162815    57A1    12.287564    34B1    12.342510  
      26A2    12.431700    46B2    12.711118    58A1    13.520593  
      47B2    13.623567    35B1    14.044243    27A2    14.343215  
      59A1    14.436517    48B2    14.750361    60A1    16.360470  
      49B2    16.792471    61A1    44.098410  

    Final Occupation by Irrep:
             A1    A2    B1    B2 
    DOCC [     3,    0,    1,    1 ]

  @DF-RKS Final Energy:   -76.43952240709530

   => Energetics <=

    Nuclear Repulsion Energy =              9.1891938899717669
    One-Electron Energy =                -123.0105618204142104
    Two-Electron Energy =                  43.8737688354287982
    DFT Exchange-Correlation Energy =      -6.5344994782164179
    Empirical Dispersion Energy =           0.0000000000000000
    VV10 Nonlocal Energy =                  0.0425761661347671
    Total Energy =                        -76.4395224070953105

Computation Completed


Properties will be evaluated at   0.000000,   0.000000,   0.000000 [a0]

Properties computed using the SCF density matrix

  Nuclear Dipole Moment: [e a0]
     X:     0.0000      Y:     0.0000      Z:     0.9803

  Electronic Dipole Moment: [e a0]
     X:     0.0000      Y:     0.0000      Z:    -0.2411

  Dipole Moment: [e a0]
     X:     0.0000      Y:     0.0000      Z:     0.7392     Total:     0.7392

  Dipole Moment: [D]
     X:     0.0000      Y:     0.0000      Z:     1.8789     Total:     1.8789


*** tstop() called on bp1-compute00068.data.bp.acrc.priv at Tue Apr 27 16:36:28 2021
Module time:
	user time   =      84.67 seconds =       1.41 minutes
	system time =       5.41 seconds =       0.09 minutes
	total time  =          4 seconds =       0.07 minutes
Total time:
	user time   =      84.67 seconds =       1.41 minutes
	system time =       5.41 seconds =       0.09 minutes
	total time  =          4 seconds =       0.07 minutes

  //>>>>>>>>>>>>>>>>>>>>>>>>>>>>>>>>>>>//
  //    Loading displacement 2 of 5    //
  //<<<<<<<<<<<<<<<<<<<<<<<<<<<<<<<<<<<//

*** tstart() called on bp1-compute00068.data.bp.acrc.priv
*** at Tue Apr 27 16:36:28 2021

   => Loading Basis Set <=

    Name: AUG-CC-PV(Q+D)Z
    Role: ORBITAL
    Keyword: BASIS
    atoms 1   entry O          line   439 file /work/zw18965/.conda/envs/p4env/share/psi4/basis/aug-cc-pv_qpd_z.gbs 
    atoms 2-3 entry H          line    56 file /work/zw18965/.conda/envs/p4env/share/psi4/basis/aug-cc-pv_qpd_z.gbs 


         ---------------------------------------------------------
                                   SCF
               by Justin Turney, Rob Parrish, Andy Simmonett
                          and Daniel G. A. Smith
                              RKS Reference
                       24 Threads, 137329 MiB Core
         ---------------------------------------------------------

  ==> Geometry <==

    Molecular point group: c2v
    Full point group: C2v

    Geometry (in Angstrom), charge = 0, multiplicity = 1:

       Center              X                  Y                   Z               Mass       
    ------------   -----------------  -----------------  -----------------  -----------------
         O            0.000000000000     0.000000000000    -0.066133736565    15.994914619570
         H           -0.000000000000     0.755452663361     0.524795195598     1.007825032230
         H            0.000000000000    -0.755452663361     0.524795195598     1.007825032230

  Running in c2v symmetry.

  Rotational constants: A =     26.96847  B =     14.65436  C =      9.49492 [cm^-1]
  Rotational constants: A = 808494.29234  B = 439326.65046  C = 284650.68760 [MHz]
  Nuclear repulsion =    9.177976870071999

  Charge       = 0
  Multiplicity = 1
  Electrons    = 10
  Nalpha       = 5
  Nbeta        = 5

  ==> Algorithm <==

  SCF Algorithm Type is DF.
  DIIS enabled.
  MOM disabled.
  Fractional occupation disabled.
  Guess Type is SAD.
  Energy threshold   = 1.00e-08
  Density threshold  = 1.00e-08
  Integral threshold = 0.00e+00

  ==> Primary Basis <==

  Basis Set: AUG-CC-PV(Q+D)Z
    Blend: AUG-CC-PV(Q+D)Z
    Number of shells: 48
    Number of basis function: 172
    Number of Cartesian functions: 215
    Spherical Harmonics?: true
    Max angular momentum: 4

  ==> DFT Potential <==

   => Composite Functional: WB97X-V <= 

    wB97X-V Hyb-GGA Exchange-Correlation Functional

    N. Mardirossian and M. Head-Gordon, Phys. Chem. Chem. Phys. 16, 9904 (2014)

    Deriv               =              1
    GGA                 =           TRUE
    Meta                =          FALSE

    Exchange Hybrid     =           TRUE
    MP2 Hybrid          =          FALSE

   => Exchange-Correlation Functionals <=

    1.0000   wB97X-V range-separated functional

   => Exact (HF) Exchange <=

    0.8330            HF,LR [omega = 0.3000]
    0.1670               HF 

   => VV10 Non-Local Parameters <=

    VV10 B              =     6.0000E+00
    VV10 C              =     1.0000E-02

   => Molecular Quadrature <=

    Radial Scheme          =       TREUTLER
    Pruning Scheme         =           FLAT
    Nuclear Scheme         =       TREUTLER

    BS radius alpha        =              1
    Pruning alpha          =              1
    Radial Points          =             75
    Spherical Points       =            302
    Total Points           =          67950
    Total Blocks           =            584
    Max Points             =            256
    Max Functions          =            172

   => Loading Basis Set <=

    Name: (AUG-CC-PV(Q+D)Z AUX)
    Role: JKFIT
    Keyword: DF_BASIS_SCF
    atoms 1   entry O          line   318 file /work/zw18965/.conda/envs/p4env/share/psi4/basis/aug-cc-pvqz-jkfit.gbs 
    atoms 2-3 entry H          line    70 file /work/zw18965/.conda/envs/p4env/share/psi4/basis/aug-cc-pvqz-jkfit.gbs 

  ==> Pre-Iterations <==

   -------------------------------------------------------
    Irrep   Nso     Nmo     Nalpha   Nbeta   Ndocc  Nsocc
   -------------------------------------------------------
     A1        61      61       0       0       0       0
     A2        27      27       0       0       0       0
     B1        35      35       0       0       0       0
     B2        49      49       0       0       0       0
   -------------------------------------------------------
    Total     172     172       5       5       5       0
   -------------------------------------------------------

  ==> Integral Setup <==

  ==> DiskDFJK: Density-Fitted J/K Matrices <==

    J tasked:                  Yes
    K tasked:                  Yes
    wK tasked:                 Yes
    Omega:               3.000E-01
    OpenMP threads:             24
    Integrals threads:          24
    Memory [MiB]:           102673
    Algorithm:                Core
    Integral Cache:           NONE
    Schwarz Cutoff:          1E-12
    Fitting Condition:       1E-10

   => Auxiliary Basis Set <=

  Basis Set: (AUG-CC-PV(Q+D)Z AUX)
    Blend: AUG-CC-PVQZ-JKFIT
    Number of shells: 70
    Number of basis function: 294
    Number of Cartesian functions: 400
    Spherical Harmonics?: true
    Max angular momentum: 5

  Cached 100.0% of DFT collocation blocks in 0.315 [GiB].

  Minimum eigenvalue in the overlap matrix is 8.7006352536E-05.
  Using Symmetric Orthogonalization.

  SCF Guess: Superposition of Atomic Densities via on-the-fly atomic UHF.

  ==> Iterations <==

                           Total Energy        Delta E     RMS |[F,P]|

   @DF-RKS iter SAD:   -75.95465837358988   -7.59547e+01   0.00000e+00 
   @DF-RKS iter   1:   -76.30589166193121   -3.51233e-01   6.87583e-03 DIIS
   @DF-RKS iter   2:   -76.28533633953737    2.05553e-02   7.66215e-03 DIIS
   @DF-RKS iter   3:   -76.43934023574803   -1.54004e-01   1.80013e-04 DIIS
   @DF-RKS iter   4:   -76.43950718984765   -1.66954e-04   5.40302e-05 DIIS
   @DF-RKS iter   5:   -76.43951921680375   -1.20270e-05   9.39637e-06 DIIS
   @DF-RKS iter   6:   -76.43951973317462   -5.16371e-07   1.44282e-06 DIIS
   @DF-RKS iter   7:   -76.43951975324150   -2.00669e-08   2.70729e-07 DIIS
   @DF-RKS iter   8:   -76.43951975405231   -8.10815e-10   4.10165e-08 DIIS
   @DF-RKS iter   9:   -76.43951975407845   -2.61338e-11   7.13090e-09 DIIS
  Energy and wave function converged.


  ==> Post-Iterations <==

    Orbital Energies [Eh]
    ---------------------

    Doubly Occupied:                                                      

       1A1   -19.217801     2A1    -1.146225     1B2    -0.646058  
       3A1    -0.507798     1B1    -0.430625  

    Virtual:                                                              

       4A1     0.026214     2B2     0.046894     5A1     0.110284  
       2B1     0.133032     6A1     0.141974     3B2     0.154276  
       4B2     0.180627     7A1     0.195339     1A2     0.208305  
       3B1     0.232956     8A1     0.250496     5B2     0.293520  
       9A1     0.327720     6B2     0.353874     7B2     0.444157  
      10A1     0.478646    11A1     0.514599     2A2     0.521945  
       4B1     0.528261    12A1     0.589845     5B1     0.609408  
       6B1     0.622616     8B2     0.642949     3A2     0.648771  
      13A1     0.664307    14A1     0.672780     9B2     0.701773  
      15A1     0.731905    10B2     0.743001    11B2     0.760242  
       7B1     0.762944    16A1     0.825838     4A2     0.841495  
      12B2     0.925845    17A1     1.064801     5A2     1.077899  
       8B1     1.143222    18A1     1.252418    13B2     1.378222  
      19A1     1.407083    14B2     1.433905     9B1     1.438437  
      20A1     1.451399     6A2     1.481521    10B1     1.523841  
      15B2     1.542781    21A1     1.545443    11B1     1.597555  
      22A1     1.600035     7A2     1.646231    16B2     1.648456  
      23A1     1.659741    12B1     1.687318    24A1     1.709494  
      17B2     1.716786    25A1     1.802490    18B2     1.811225  
       8A2     1.856632    19B2     1.860802    13B1     1.935681  
      20B2     1.961584     9A2     1.966328    26A1     1.969331  
      14B1     2.023214    10A2     2.104140    27A1     2.149952  
      21B2     2.264398    28A1     2.316353    15B1     2.460332  
      22B2     2.503118    11A2     2.757780    29A1     2.834666  
      16B1     2.851977    23B2     2.900143    30A1     2.905400  
      24B2     2.930045    17B1     3.131965    31A1     3.175611  
      12A2     3.177992    25B2     3.346127    32A1     3.407248  
      13A2     3.494919    26B2     3.531729    33A1     3.542110  
      27B2     3.644936    18B1     3.712937    34A1     3.871918  
      19B1     3.962471    14A2     3.968650    28B2     3.970008  
      35A1     3.979461    20B1     4.017093    36A1     4.078088  
      37A1     4.236409    29B2     4.388852    21B1     4.528599  
      38A1     4.529590    22B1     4.584341    15A2     4.606735  
      30B2     4.607376    16A2     4.641285    39A1     4.775727  
      40A1     4.991052    31B2     5.068757    23B1     5.256010  
      41A1     5.301994    32B2     5.573358    17A2     5.647207  
      33B2     5.830873    42A1     5.948252    24B1     6.636123  
      34B2     6.689159    18A2     6.691365    43A1     6.720902  
      35B2     7.479387    25B1     7.542560    19A2     7.557208  
      20A2     7.584521    36B2     7.614050    44A1     7.679707  
      37B2     7.717610    45A1     7.814131    46A1     7.934311  
      26B1     8.006179    38B2     8.253681    47A1     8.353769  
      21A2     8.405127    27B1     8.438047    48A1     8.483270  
      28B1     8.574742    22A2     8.727344    39B2     8.775823  
      49A1     8.951987    40B2     9.402579    50A1     9.575322  
      41B2     9.605502    29B1     9.626858    23A2     9.672940  
      42B2    10.001120    51A1    10.108994    52A1    10.266602  
      30B1    10.570549    43B2    10.671840    53A1    10.686440  
      31B1    10.755129    24A2    10.904465    54A1    10.982721  
      25A2    11.304855    44B2    11.336395    32B1    11.396719  
      55A1    11.506743    33B1    11.720503    45B2    11.755455  
      56A1    12.161557    57A1    12.281497    34B1    12.335521  
      26A2    12.427612    46B2    12.708702    58A1    13.514391  
      47B2    13.610836    35B1    14.035827    27A2    14.331968  
      59A1    14.428625    48B2    14.736876    60A1    16.348463  
      49B2    16.784458    61A1    44.085821  

    Final Occupation by Irrep:
             A1    A2    B1    B2 
    DOCC [     3,    0,    1,    1 ]

  @DF-RKS Final Energy:   -76.43951975407845

   => Energetics <=

    Nuclear Repulsion Energy =              9.1779768700719995
    One-Electron Energy =                -122.9903501853259371
    Two-Electron Energy =                  43.8638748799706093
    DFT Exchange-Correlation Energy =      -6.5335962831195804
    Empirical Dispersion Energy =           0.0000000000000000
    VV10 Nonlocal Energy =                  0.0425749643244507
    Total Energy =                        -76.4395197540784608

Computation Completed


Properties will be evaluated at   0.000000,   0.000000,   0.000000 [a0]

Properties computed using the SCF density matrix

  Nuclear Dipole Moment: [e a0]
     X:     0.0000      Y:     0.0000      Z:     0.9836

  Electronic Dipole Moment: [e a0]
     X:     0.0000      Y:     0.0000      Z:    -0.2431

  Dipole Moment: [e a0]
     X:     0.0000      Y:     0.0000      Z:     0.7406     Total:     0.7406

  Dipole Moment: [D]
     X:     0.0000      Y:     0.0000      Z:     1.8824     Total:     1.8824


*** tstop() called on bp1-compute00068.data.bp.acrc.priv at Tue Apr 27 16:36:32 2021
Module time:
	user time   =      91.80 seconds =       1.53 minutes
	system time =       3.77 seconds =       0.06 minutes
	total time  =          4 seconds =       0.07 minutes
Total time:
	user time   =     176.64 seconds =       2.94 minutes
	system time =       9.19 seconds =       0.15 minutes
	total time  =          8 seconds =       0.13 minutes

  //>>>>>>>>>>>>>>>>>>>>>>>>>>>>>>>>>>>//
  //    Loading displacement 3 of 5    //
  //<<<<<<<<<<<<<<<<<<<<<<<<<<<<<<<<<<<//

*** tstart() called on bp1-compute00068.data.bp.acrc.priv
*** at Tue Apr 27 16:36:32 2021

   => Loading Basis Set <=

    Name: AUG-CC-PV(Q+D)Z
    Role: ORBITAL
    Keyword: BASIS
    atoms 1   entry O          line   439 file /work/zw18965/.conda/envs/p4env/share/psi4/basis/aug-cc-pv_qpd_z.gbs 
    atoms 2-3 entry H          line    56 file /work/zw18965/.conda/envs/p4env/share/psi4/basis/aug-cc-pv_qpd_z.gbs 


         ---------------------------------------------------------
                                   SCF
               by Justin Turney, Rob Parrish, Andy Simmonett
                          and Daniel G. A. Smith
                              RKS Reference
                       24 Threads, 137329 MiB Core
         ---------------------------------------------------------

  ==> Geometry <==

    Molecular point group: c2v
    Full point group: C2v

    Geometry (in Angstrom), charge = 0, multiplicity = 1:

       Center              X                  Y                   Z               Mass       
    ------------   -----------------  -----------------  -----------------  -----------------
         O            0.000000000000     0.000000000000    -0.065691093083    15.994914619570
         H           -0.000000000000     0.755452663361     0.521282658961     1.007825032230
         H            0.000000000000    -0.755452663361     0.521282658961     1.007825032230

  Running in c2v symmetry.

  Rotational constants: A =     27.33313  B =     14.65436  C =      9.53974 [cm^-1]
  Rotational constants: A = 819426.68630  B = 439326.65046  C = 285994.06324 [MHz]
  Nuclear repulsion =    9.200415960578663

  Charge       = 0
  Multiplicity = 1
  Electrons    = 10
  Nalpha       = 5
  Nbeta        = 5

  ==> Algorithm <==

  SCF Algorithm Type is DF.
  DIIS enabled.
  MOM disabled.
  Fractional occupation disabled.
  Guess Type is SAD.
  Energy threshold   = 1.00e-08
  Density threshold  = 1.00e-08
  Integral threshold = 0.00e+00

  ==> Primary Basis <==

  Basis Set: AUG-CC-PV(Q+D)Z
    Blend: AUG-CC-PV(Q+D)Z
    Number of shells: 48
    Number of basis function: 172
    Number of Cartesian functions: 215
    Spherical Harmonics?: true
    Max angular momentum: 4

  ==> DFT Potential <==

   => Composite Functional: WB97X-V <= 

    wB97X-V Hyb-GGA Exchange-Correlation Functional

    N. Mardirossian and M. Head-Gordon, Phys. Chem. Chem. Phys. 16, 9904 (2014)

    Deriv               =              1
    GGA                 =           TRUE
    Meta                =          FALSE

    Exchange Hybrid     =           TRUE
    MP2 Hybrid          =          FALSE

   => Exchange-Correlation Functionals <=

    1.0000   wB97X-V range-separated functional

   => Exact (HF) Exchange <=

    0.8330            HF,LR [omega = 0.3000]
    0.1670               HF 

   => VV10 Non-Local Parameters <=

    VV10 B              =     6.0000E+00
    VV10 C              =     1.0000E-02

   => Molecular Quadrature <=

    Radial Scheme          =       TREUTLER
    Pruning Scheme         =           FLAT
    Nuclear Scheme         =       TREUTLER

    BS radius alpha        =              1
    Pruning alpha          =              1
    Radial Points          =             75
    Spherical Points       =            302
    Total Points           =          67950
    Total Blocks           =            584
    Max Points             =            255
    Max Functions          =            172

   => Loading Basis Set <=

    Name: (AUG-CC-PV(Q+D)Z AUX)
    Role: JKFIT
    Keyword: DF_BASIS_SCF
    atoms 1   entry O          line   318 file /work/zw18965/.conda/envs/p4env/share/psi4/basis/aug-cc-pvqz-jkfit.gbs 
    atoms 2-3 entry H          line    70 file /work/zw18965/.conda/envs/p4env/share/psi4/basis/aug-cc-pvqz-jkfit.gbs 

  ==> Pre-Iterations <==

   -------------------------------------------------------
    Irrep   Nso     Nmo     Nalpha   Nbeta   Ndocc  Nsocc
   -------------------------------------------------------
     A1        61      61       0       0       0       0
     A2        27      27       0       0       0       0
     B1        35      35       0       0       0       0
     B2        49      49       0       0       0       0
   -------------------------------------------------------
    Total     172     172       5       5       5       0
   -------------------------------------------------------

  ==> Integral Setup <==

  ==> DiskDFJK: Density-Fitted J/K Matrices <==

    J tasked:                  Yes
    K tasked:                  Yes
    wK tasked:                 Yes
    Omega:               3.000E-01
    OpenMP threads:             24
    Integrals threads:          24
    Memory [MiB]:           102673
    Algorithm:                Core
    Integral Cache:           NONE
    Schwarz Cutoff:          1E-12
    Fitting Condition:       1E-10

   => Auxiliary Basis Set <=

  Basis Set: (AUG-CC-PV(Q+D)Z AUX)
    Blend: AUG-CC-PVQZ-JKFIT
    Number of shells: 70
    Number of basis function: 294
    Number of Cartesian functions: 400
    Spherical Harmonics?: true
    Max angular momentum: 5

  Cached 100.0% of DFT collocation blocks in 0.316 [GiB].

  Minimum eigenvalue in the overlap matrix is 8.6202428865E-05.
  Using Symmetric Orthogonalization.

  SCF Guess: Superposition of Atomic Densities via on-the-fly atomic UHF.

  ==> Iterations <==

                           Total Energy        Delta E     RMS |[F,P]|

   @DF-RKS iter SAD:   -75.95635736470801   -7.59564e+01   0.00000e+00 
   @DF-RKS iter   1:   -76.30586937108943   -3.49512e-01   6.88323e-03 DIIS
   @DF-RKS iter   2:   -76.28601899915741    1.98504e-02   7.65045e-03 DIIS
   @DF-RKS iter   3:   -76.43933951119141   -1.53321e-01   1.79494e-04 DIIS
   @DF-RKS iter   4:   -76.43950606602515   -1.66555e-04   5.37600e-05 DIIS
   @DF-RKS iter   5:   -76.43951796985857   -1.19038e-05   9.33939e-06 DIIS
   @DF-RKS iter   6:   -76.43951848094858   -5.11090e-07   1.43912e-06 DIIS
   @DF-RKS iter   7:   -76.43951850097048   -2.00219e-08   2.70988e-07 DIIS
   @DF-RKS iter   8:   -76.43951850178185   -8.11369e-10   4.08685e-08 DIIS
   @DF-RKS iter   9:   -76.43951850180791   -2.60627e-11   7.09737e-09 DIIS
  Energy and wave function converged.


  ==> Post-Iterations <==

    Orbital Energies [Eh]
    ---------------------

    Doubly Occupied:                                                      

       1A1   -19.217283     2A1    -1.147031     1B2    -0.647725  
       3A1    -0.507352     1B1    -0.430760  

    Virtual:                                                              

       4A1     0.026301     2B2     0.046889     5A1     0.110424  
       2B1     0.132883     6A1     0.141992     3B2     0.154299  
       4B2     0.180875     7A1     0.195406     1A2     0.208246  
       3B1     0.233382     8A1     0.250675     5B2     0.293519  
       9A1     0.328279     6B2     0.354694     7B2     0.444255  
      10A1     0.478556    11A1     0.514795     2A2     0.521917  
       4B1     0.528055    12A1     0.589969     5B1     0.609498  
       6B1     0.622818     8B2     0.643005     3A2     0.648630  
      13A1     0.664813    14A1     0.672525     9B2     0.701786  
      15A1     0.732734    10B2     0.744213    11B2     0.760555  
       7B1     0.762956    16A1     0.825974     4A2     0.841502  
      12B2     0.925445    17A1     1.066097     5A2     1.077958  
       8B1     1.144754    18A1     1.252523    13B2     1.377659  
      19A1     1.407775    14B2     1.435761     9B1     1.438251  
      20A1     1.450998     6A2     1.481784    10B1     1.523713  
      15B2     1.543038    21A1     1.546414    11B1     1.596776  
      22A1     1.601045     7A2     1.645755    16B2     1.648539  
      23A1     1.658455    12B1     1.688071    24A1     1.710096  
      17B2     1.718476    25A1     1.802194    18B2     1.810698  
       8A2     1.856059    19B2     1.859625    13B1     1.934379  
      20B2     1.961175     9A2     1.966475    26A1     1.968114  
      14B1     2.022130    10A2     2.105224    27A1     2.150861  
      21B2     2.265172    28A1     2.321501    15B1     2.464095  
      22B2     2.507245    11A2     2.760747    29A1     2.838676  
      16B1     2.854555    23B2     2.899687    30A1     2.907637  
      24B2     2.932339    17B1     3.137430    31A1     3.174191  
      12A2     3.177479    25B2     3.350160    32A1     3.407577  
      13A2     3.497301    26B2     3.532736    33A1     3.545292  
      27B2     3.644421    18B1     3.712131    34A1     3.871196  
      19B1     3.961393    14A2     3.968038    28B2     3.969621  
      35A1     3.979867    20B1     4.017734    36A1     4.079566  
      37A1     4.235901    29B2     4.390477    21B1     4.528893  
      38A1     4.532528    22B1     4.584429    30B2     4.611541  
      15A2     4.611710    16A2     4.644788    39A1     4.777963  
      40A1     4.995014    31B2     5.069643    23B1     5.263808  
      41A1     5.305436    32B2     5.581537    17A2     5.651307  
      33B2     5.835009    42A1     5.954809    24B1     6.641410  
      34B2     6.690156    18A2     6.690920    43A1     6.727616  
      35B2     7.484970    25B1     7.542423    19A2     7.569368  
      20A2     7.590064    36B2     7.622746    44A1     7.687969  
      37B2     7.717954    45A1     7.815400    46A1     7.948315  
      26B1     8.014154    38B2     8.257659    47A1     8.358848  
      21A2     8.400668    27B1     8.441208    48A1     8.493315  
      28B1     8.580331    22A2     8.725074    39B2     8.780332  
      49A1     8.951899    40B2     9.401542    50A1     9.587985  
      41B2     9.604251    29B1     9.637313    23A2     9.683766  
      42B2    10.018236    51A1    10.118935    52A1    10.251851  
      30B1    10.570211    43B2    10.664115    53A1    10.685946  
      31B1    10.754260    24A2    10.912120    54A1    10.986895  
      25A2    11.308561    44B2    11.338904    32B1    11.395913  
      55A1    11.513150    33B1    11.719448    45B2    11.768227  
      56A1    12.163883    57A1    12.293872    34B1    12.349522  
      26A2    12.435795    46B2    12.713431    58A1    13.526824  
      47B2    13.636241    35B1    14.052651    27A2    14.354449  
      59A1    14.444444    48B2    14.763876    60A1    16.372368  
      49B2    16.800442    61A1    44.110999  

    Final Occupation by Irrep:
             A1    A2    B1    B2 
    DOCC [     3,    0,    1,    1 ]

  @DF-RKS Final Energy:   -76.43951850180791

   => Energetics <=

    Nuclear Repulsion Energy =              9.2004159605786633
    One-Electron Energy =                -123.0307701689613396
    Two-Electron Energy =                  43.8836611500794334
    DFT Exchange-Correlation Energy =      -6.5354028108240403
    Empirical Dispersion Energy =           0.0000000000000000
    VV10 Nonlocal Energy =                  0.0425773673193542
    Total Energy =                        -76.4395185018079246

Computation Completed


Properties will be evaluated at   0.000000,   0.000000,   0.000000 [a0]

Properties computed using the SCF density matrix

  Nuclear Dipole Moment: [e a0]
     X:     0.0000      Y:     0.0000      Z:     0.9771

  Electronic Dipole Moment: [e a0]
     X:     0.0000      Y:     0.0000      Z:    -0.2392

  Dipole Moment: [e a0]
     X:     0.0000      Y:     0.0000      Z:     0.7379     Total:     0.7379

  Dipole Moment: [D]
     X:     0.0000      Y:     0.0000      Z:     1.8754     Total:     1.8754


*** tstop() called on bp1-compute00068.data.bp.acrc.priv at Tue Apr 27 16:36:36 2021
Module time:
	user time   =      86.26 seconds =       1.44 minutes
	system time =       2.99 seconds =       0.05 minutes
	total time  =          4 seconds =       0.07 minutes
Total time:
	user time   =     263.05 seconds =       4.38 minutes
	system time =      12.18 seconds =       0.20 minutes
	total time  =         12 seconds =       0.20 minutes

  //>>>>>>>>>>>>>>>>>>>>>>>>>>>>>>>>>>>//
  //    Loading displacement 4 of 5    //
  //<<<<<<<<<<<<<<<<<<<<<<<<<<<<<<<<<<<//

*** tstart() called on bp1-compute00068.data.bp.acrc.priv
*** at Tue Apr 27 16:36:36 2021

   => Loading Basis Set <=

    Name: AUG-CC-PV(Q+D)Z
    Role: ORBITAL
    Keyword: BASIS
    atoms 1   entry O          line   439 file /work/zw18965/.conda/envs/p4env/share/psi4/basis/aug-cc-pv_qpd_z.gbs 
    atoms 2-3 entry H          line    56 file /work/zw18965/.conda/envs/p4env/share/psi4/basis/aug-cc-pv_qpd_z.gbs 


         ---------------------------------------------------------
                                   SCF
               by Justin Turney, Rob Parrish, Andy Simmonett
                          and Daniel G. A. Smith
                              RKS Reference
                       24 Threads, 137329 MiB Core
         ---------------------------------------------------------

  ==> Geometry <==

    Molecular point group: c2v
    Full point group: C2v

    Geometry (in Angstrom), charge = 0, multiplicity = 1:

       Center              X                  Y                   Z               Mass       
    ------------   -----------------  -----------------  -----------------  -----------------
         O            0.000000000000     0.000000000000    -0.065912414824    15.994914619570
         H           -0.000000000000     0.753589016730     0.523038927279     1.007825032230
         H            0.000000000000    -0.753589016730     0.523038927279     1.007825032230

  Running in c2v symmetry.

  Rotational constants: A =     27.14988  B =     14.72693  C =      9.54787 [cm^-1]
  Rotational constants: A = 813932.95770  B = 441502.27142  C = 286237.98446 [MHz]
  Nuclear repulsion =    9.203636767920623

  Charge       = 0
  Multiplicity = 1
  Electrons    = 10
  Nalpha       = 5
  Nbeta        = 5

  ==> Algorithm <==

  SCF Algorithm Type is DF.
  DIIS enabled.
  MOM disabled.
  Fractional occupation disabled.
  Guess Type is SAD.
  Energy threshold   = 1.00e-08
  Density threshold  = 1.00e-08
  Integral threshold = 0.00e+00

  ==> Primary Basis <==

  Basis Set: AUG-CC-PV(Q+D)Z
    Blend: AUG-CC-PV(Q+D)Z
    Number of shells: 48
    Number of basis function: 172
    Number of Cartesian functions: 215
    Spherical Harmonics?: true
    Max angular momentum: 4

  ==> DFT Potential <==

   => Composite Functional: WB97X-V <= 

    wB97X-V Hyb-GGA Exchange-Correlation Functional

    N. Mardirossian and M. Head-Gordon, Phys. Chem. Chem. Phys. 16, 9904 (2014)

    Deriv               =              1
    GGA                 =           TRUE
    Meta                =          FALSE

    Exchange Hybrid     =           TRUE
    MP2 Hybrid          =          FALSE

   => Exchange-Correlation Functionals <=

    1.0000   wB97X-V range-separated functional

   => Exact (HF) Exchange <=

    0.8330            HF,LR [omega = 0.3000]
    0.1670               HF 

   => VV10 Non-Local Parameters <=

    VV10 B              =     6.0000E+00
    VV10 C              =     1.0000E-02

   => Molecular Quadrature <=

    Radial Scheme          =       TREUTLER
    Pruning Scheme         =           FLAT
    Nuclear Scheme         =       TREUTLER

    BS radius alpha        =              1
    Pruning alpha          =              1
    Radial Points          =             75
    Spherical Points       =            302
    Total Points           =          67950
    Total Blocks           =            582
    Max Points             =            256
    Max Functions          =            172

   => Loading Basis Set <=

    Name: (AUG-CC-PV(Q+D)Z AUX)
    Role: JKFIT
    Keyword: DF_BASIS_SCF
    atoms 1   entry O          line   318 file /work/zw18965/.conda/envs/p4env/share/psi4/basis/aug-cc-pvqz-jkfit.gbs 
    atoms 2-3 entry H          line    70 file /work/zw18965/.conda/envs/p4env/share/psi4/basis/aug-cc-pvqz-jkfit.gbs 

  ==> Pre-Iterations <==

   -------------------------------------------------------
    Irrep   Nso     Nmo     Nalpha   Nbeta   Ndocc  Nsocc
   -------------------------------------------------------
     A1        61      61       0       0       0       0
     A2        27      27       0       0       0       0
     B1        35      35       0       0       0       0
     B2        49      49       0       0       0       0
   -------------------------------------------------------
    Total     172     172       5       5       5       0
   -------------------------------------------------------

  ==> Integral Setup <==

  ==> DiskDFJK: Density-Fitted J/K Matrices <==

    J tasked:                  Yes
    K tasked:                  Yes
    wK tasked:                 Yes
    Omega:               3.000E-01
    OpenMP threads:             24
    Integrals threads:          24
    Memory [MiB]:           102673
    Algorithm:                Core
    Integral Cache:           NONE
    Schwarz Cutoff:          1E-12
    Fitting Condition:       1E-10

   => Auxiliary Basis Set <=

  Basis Set: (AUG-CC-PV(Q+D)Z AUX)
    Blend: AUG-CC-PVQZ-JKFIT
    Number of shells: 70
    Number of basis function: 294
    Number of Cartesian functions: 400
    Spherical Harmonics?: true
    Max angular momentum: 5

  Cached 100.0% of DFT collocation blocks in 0.316 [GiB].

  Minimum eigenvalue in the overlap matrix is 8.6190370015E-05.
  Using Symmetric Orthogonalization.

  SCF Guess: Superposition of Atomic Densities via on-the-fly atomic UHF.

  ==> Iterations <==

                           Total Energy        Delta E     RMS |[F,P]|

   @DF-RKS iter SAD:   -75.95684893139205   -7.59568e+01   0.00000e+00 
   @DF-RKS iter   1:   -76.30583753830206   -3.48989e-01   6.88332e-03 DIIS
   @DF-RKS iter   2:   -76.28600375127289    1.98338e-02   7.65041e-03 DIIS
   @DF-RKS iter   3:   -76.43932085886365   -1.53317e-01   1.79438e-04 DIIS
   @DF-RKS iter   4:   -76.43948701333288   -1.66154e-04   5.36866e-05 DIIS
   @DF-RKS iter   5:   -76.43949886209661   -1.18488e-05   9.32494e-06 DIIS
   @DF-RKS iter   6:   -76.43949936836822   -5.06272e-07   1.43046e-06 DIIS
   @DF-RKS iter   7:   -76.43949938800289   -1.96347e-08   2.68058e-07 DIIS
   @DF-RKS iter   8:   -76.43949938879270   -7.89811e-10   4.03989e-08 DIIS
   @DF-RKS iter   9:   -76.43949938881815   -2.54516e-11   7.03907e-09 DIIS
  Energy and wave function converged.


  ==> Post-Iterations <==

    Orbital Energies [Eh]
    ---------------------

    Doubly Occupied:                                                      

       1A1   -19.217363     2A1    -1.147373     1B2    -0.647231  
       3A1    -0.507982     1B1    -0.430847  

    Virtual:                                                              

       4A1     0.026286     2B2     0.046910     5A1     0.110377  
       2B1     0.132922     6A1     0.142073     3B2     0.154375  
       4B2     0.180809     7A1     0.195438     1A2     0.208335  
       3B1     0.233141     8A1     0.250550     5B2     0.293624  
       9A1     0.328352     6B2     0.354684     7B2     0.444181  
      10A1     0.478791    11A1     0.514685     2A2     0.522090  
       4B1     0.528180    12A1     0.590129     5B1     0.609272  
       6B1     0.622754     8B2     0.643016     3A2     0.648565  
      13A1     0.664437    14A1     0.672609     9B2     0.702207  
      15A1     0.732908    10B2     0.744107    11B2     0.760523  
       7B1     0.762867    16A1     0.825815     4A2     0.841391  
      12B2     0.925452    17A1     1.064822     5A2     1.078256  
       8B1     1.144392    18A1     1.252707    13B2     1.379280  
      19A1     1.408163    14B2     1.435448     9B1     1.438522  
      20A1     1.451154     6A2     1.481654    10B1     1.523260  
      15B2     1.543188    21A1     1.546633    11B1     1.597190  
      22A1     1.600353     7A2     1.645847    16B2     1.648548  
      23A1     1.659190    12B1     1.687214    24A1     1.709775  
      17B2     1.717610    25A1     1.802254    18B2     1.812014  
       8A2     1.857104    19B2     1.860667    13B1     1.936660  
      20B2     1.961643     9A2     1.965847    26A1     1.969321  
      14B1     2.021926    10A2     2.104508    27A1     2.149597  
      21B2     2.265939    28A1     2.318481    15B1     2.463903  
      22B2     2.506591    11A2     2.760968    29A1     2.838685  
      16B1     2.853845    23B2     2.901109    30A1     2.907460  
      24B2     2.932410    17B1     3.134707    31A1     3.176617  
      12A2     3.182068    25B2     3.347952    32A1     3.407536  
      13A2     3.496641    26B2     3.532248    33A1     3.544396  
      27B2     3.648914    18B1     3.712155    34A1     3.871783  
      19B1     3.961778    14A2     3.967537    28B2     3.969984  
      35A1     3.979686    20B1     4.016403    36A1     4.078918  
      37A1     4.236784    29B2     4.392117    38A1     4.532098  
      21B1     4.533304    22B1     4.586116    15A2     4.608186  
      30B2     4.610236    16A2     4.645156    39A1     4.776875  
      40A1     4.993014    31B2     5.069389    23B1     5.263270  
      41A1     5.308110    32B2     5.580691    17A2     5.652932  
      33B2     5.835457    42A1     5.956261    24B1     6.638773  
      34B2     6.692401    18A2     6.695871    43A1     6.723846  
      35B2     7.486660    25B1     7.542839    19A2     7.567354  
      20A2     7.586581    36B2     7.623203    44A1     7.688002  
      37B2     7.719096    45A1     7.817146    46A1     7.934671  
      26B1     8.013216    38B2     8.258341    47A1     8.355216  
      21A2     8.406199    27B1     8.436575    48A1     8.494053  
      28B1     8.579202    22A2     8.725134    39B2     8.779728  
      49A1     8.958050    40B2     9.407243    50A1     9.585591  
      41B2     9.617262    29B1     9.637731    23A2     9.684090  
      42B2    10.012250    51A1    10.115318    52A1    10.253541  
      30B1    10.571034    43B2    10.661820    53A1    10.690931  
      31B1    10.756307    24A2    10.908751    54A1    10.986288  
      25A2    11.310357    44B2    11.339105    32B1    11.395515  
      55A1    11.512167    33B1    11.721621    45B2    11.768849  
      56A1    12.172743    57A1    12.295330    34B1    12.348508  
      26A2    12.438197    46B2    12.709822    58A1    13.527006  
      47B2    13.638750    35B1    14.057154    27A2    14.355312  
      59A1    14.450857    48B2    14.766125    60A1    16.369549  
      49B2    16.805869    61A1    44.115858  

    Final Occupation by Irrep:
             A1    A2    B1    B2 
    DOCC [     3,    0,    1,    1 ]

  @DF-RKS Final Energy:   -76.43949938881815

   => Energetics <=

    Nuclear Repulsion Energy =              9.2036367679206226
    One-Electron Energy =                -123.0357234285923056
    Two-Electron Energy =                  43.8856467432978050
    DFT Exchange-Correlation Energy =      -6.5356372009451889
    Empirical Dispersion Energy =           0.0000000000000000
    VV10 Nonlocal Energy =                  0.0425777295009155
    Total Energy =                        -76.4394993888181489

Computation Completed


Properties will be evaluated at   0.000000,   0.000000,   0.000000 [a0]

Properties computed using the SCF density matrix

  Nuclear Dipole Moment: [e a0]
     X:     0.0000      Y:     0.0000      Z:     0.9803

  Electronic Dipole Moment: [e a0]
     X:     0.0000      Y:     0.0000      Z:    -0.2406

  Dipole Moment: [e a0]
     X:     0.0000      Y:     0.0000      Z:     0.7397     Total:     0.7397

  Dipole Moment: [D]
     X:     0.0000      Y:     0.0000      Z:     1.8802     Total:     1.8802


*** tstop() called on bp1-compute00068.data.bp.acrc.priv at Tue Apr 27 16:36:40 2021
Module time:
	user time   =      85.74 seconds =       1.43 minutes
	system time =       2.52 seconds =       0.04 minutes
	total time  =          4 seconds =       0.07 minutes
Total time:
	user time   =     348.95 seconds =       5.82 minutes
	system time =      14.71 seconds =       0.25 minutes
	total time  =         16 seconds =       0.27 minutes

  //>>>>>>>>>>>>>>>>>>>>>>>>>>>>>>>>>>>//
  //    Loading displacement 5 of 5    //
  //<<<<<<<<<<<<<<<<<<<<<<<<<<<<<<<<<<<//

*** tstart() called on bp1-compute00068.data.bp.acrc.priv
*** at Tue Apr 27 16:36:40 2021

   => Loading Basis Set <=

    Name: AUG-CC-PV(Q+D)Z
    Role: ORBITAL
    Keyword: BASIS
    atoms 1   entry O          line   439 file /work/zw18965/.conda/envs/p4env/share/psi4/basis/aug-cc-pv_qpd_z.gbs 
    atoms 2-3 entry H          line    56 file /work/zw18965/.conda/envs/p4env/share/psi4/basis/aug-cc-pv_qpd_z.gbs 


         ---------------------------------------------------------
                                   SCF
               by Justin Turney, Rob Parrish, Andy Simmonett
                          and Daniel G. A. Smith
                              RKS Reference
                       24 Threads, 137329 MiB Core
         ---------------------------------------------------------

  ==> Geometry <==

    Molecular point group: c2v
    Full point group: C2v

    Geometry (in Angstrom), charge = 0, multiplicity = 1:

       Center              X                  Y                   Z               Mass       
    ------------   -----------------  -----------------  -----------------  -----------------
         O           -0.000000000000     0.000000000000    -0.065912414824    15.994914619570
         H           -0.000000000000     0.757316309993     0.523038927279     1.007825032230
         H            0.000000000000    -0.757316309993     0.523038927279     1.007825032230

  Running in c2v symmetry.

  Rotational constants: A =     27.14988  B =     14.58232  C =      9.48688 [cm^-1]
  Rotational constants: A = 813932.95770  B = 437167.07141  C = 284409.46300 [MHz]
  Nuclear repulsion =    9.174784246374898

  Charge       = 0
  Multiplicity = 1
  Electrons    = 10
  Nalpha       = 5
  Nbeta        = 5

  ==> Algorithm <==

  SCF Algorithm Type is DF.
  DIIS enabled.
  MOM disabled.
  Fractional occupation disabled.
  Guess Type is SAD.
  Energy threshold   = 1.00e-08
  Density threshold  = 1.00e-08
  Integral threshold = 0.00e+00

  ==> Primary Basis <==

  Basis Set: AUG-CC-PV(Q+D)Z
    Blend: AUG-CC-PV(Q+D)Z
    Number of shells: 48
    Number of basis function: 172
    Number of Cartesian functions: 215
    Spherical Harmonics?: true
    Max angular momentum: 4

  ==> DFT Potential <==

   => Composite Functional: WB97X-V <= 

    wB97X-V Hyb-GGA Exchange-Correlation Functional

    N. Mardirossian and M. Head-Gordon, Phys. Chem. Chem. Phys. 16, 9904 (2014)

    Deriv               =              1
    GGA                 =           TRUE
    Meta                =          FALSE

    Exchange Hybrid     =           TRUE
    MP2 Hybrid          =          FALSE

   => Exchange-Correlation Functionals <=

    1.0000   wB97X-V range-separated functional

   => Exact (HF) Exchange <=

    0.8330            HF,LR [omega = 0.3000]
    0.1670               HF 

   => VV10 Non-Local Parameters <=

    VV10 B              =     6.0000E+00
    VV10 C              =     1.0000E-02

   => Molecular Quadrature <=

    Radial Scheme          =       TREUTLER
    Pruning Scheme         =           FLAT
    Nuclear Scheme         =       TREUTLER

    BS radius alpha        =              1
    Pruning alpha          =              1
    Radial Points          =             75
    Spherical Points       =            302
    Total Points           =          67950
    Total Blocks           =            584
    Max Points             =            256
    Max Functions          =            172

   => Loading Basis Set <=

    Name: (AUG-CC-PV(Q+D)Z AUX)
    Role: JKFIT
    Keyword: DF_BASIS_SCF
    atoms 1   entry O          line   318 file /work/zw18965/.conda/envs/p4env/share/psi4/basis/aug-cc-pvqz-jkfit.gbs 
    atoms 2-3 entry H          line    70 file /work/zw18965/.conda/envs/p4env/share/psi4/basis/aug-cc-pvqz-jkfit.gbs 

  ==> Pre-Iterations <==

   -------------------------------------------------------
    Irrep   Nso     Nmo     Nalpha   Nbeta   Ndocc  Nsocc
   -------------------------------------------------------
     A1        61      61       0       0       0       0
     A2        27      27       0       0       0       0
     B1        35      35       0       0       0       0
     B2        49      49       0       0       0       0
   -------------------------------------------------------
    Total     172     172       5       5       5       0
   -------------------------------------------------------

  ==> Integral Setup <==

  ==> DiskDFJK: Density-Fitted J/K Matrices <==

    J tasked:                  Yes
    K tasked:                  Yes
    wK tasked:                 Yes
    Omega:               3.000E-01
    OpenMP threads:             24
    Integrals threads:          24
    Memory [MiB]:           102673
    Algorithm:                Core
    Integral Cache:           NONE
    Schwarz Cutoff:          1E-12
    Fitting Condition:       1E-10

   => Auxiliary Basis Set <=

  Basis Set: (AUG-CC-PV(Q+D)Z AUX)
    Blend: AUG-CC-PVQZ-JKFIT
    Number of shells: 70
    Number of basis function: 294
    Number of Cartesian functions: 400
    Spherical Harmonics?: true
    Max angular momentum: 5

  Cached 100.0% of DFT collocation blocks in 0.316 [GiB].

  Minimum eigenvalue in the overlap matrix is 8.7016811364E-05.
  Using Symmetric Orthogonalization.

  SCF Guess: Superposition of Atomic Densities via on-the-fly atomic UHF.

  ==> Iterations <==

                           Total Energy        Delta E     RMS |[F,P]|

   @DF-RKS iter SAD:   -75.95416685030456   -7.59542e+01   0.00000e+00 
   @DF-RKS iter   1:   -76.30591938505948   -3.51753e-01   6.87576e-03 DIIS
   @DF-RKS iter   2:   -76.28534836393600    2.05710e-02   7.66219e-03 DIIS
   @DF-RKS iter   3:   -76.43935521544095   -1.54007e-01   1.80068e-04 DIIS
   @DF-RKS iter   4:   -76.43952257283516   -1.67357e-04   5.41035e-05 DIIS
   @DF-RKS iter   5:   -76.43953465541691   -1.20826e-05   9.41092e-06 DIIS
   @DF-RKS iter   6:   -76.43953517669209   -5.21275e-07   1.45151e-06 DIIS
   @DF-RKS iter   7:   -76.43953519715053   -2.04584e-08   2.73696e-07 DIIS
   @DF-RKS iter   8:   -76.43953519798360   -8.33069e-10   4.14885e-08 DIIS
   @DF-RKS iter   9:   -76.43953519801046   -2.68585e-11   7.18881e-09 DIIS
  Energy and wave function converged.


  ==> Post-Iterations <==

    Orbital Energies [Eh]
    ---------------------

    Doubly Occupied:                                                      

       1A1   -19.217719     2A1    -1.145886     1B2    -0.646549  
       3A1    -0.507170     1B1    -0.430538  

    Virtual:                                                              

       4A1     0.026229     2B2     0.046873     5A1     0.110330  
       2B1     0.132993     6A1     0.141893     3B2     0.154200  
       4B2     0.180694     7A1     0.195307     1A2     0.208216  
       3B1     0.233197     8A1     0.250620     5B2     0.293415  
       9A1     0.327645     6B2     0.353887     7B2     0.444230  
      10A1     0.478413    11A1     0.514710     2A2     0.521772  
       4B1     0.528139    12A1     0.589681     5B1     0.609634  
       6B1     0.622675     8B2     0.642940     3A2     0.648837  
      13A1     0.664688    14A1     0.672690     9B2     0.701353  
      15A1     0.731734    10B2     0.743106    11B2     0.760275  
       7B1     0.763030    16A1     0.826000     4A2     0.841605  
      12B2     0.925838    17A1     1.066079     5A2     1.077604  
       8B1     1.143582    18A1     1.252231    13B2     1.376603  
      19A1     1.406695    14B2     1.434215     9B1     1.438171  
      20A1     1.451233     6A2     1.481649    10B1     1.524296  
      15B2     1.542629    21A1     1.545231    11B1     1.597132  
      22A1     1.600723     7A2     1.646147    16B2     1.648456  
      23A1     1.659004    12B1     1.688172    24A1     1.709825  
      17B2     1.717651    25A1     1.802431    18B2     1.809920  
       8A2     1.855587    19B2     1.859742    13B1     1.933403  
      20B2     1.961132     9A2     1.966946    26A1     1.968130  
      14B1     2.023419    10A2     2.104884    27A1     2.151166  
      21B2     2.263629    28A1     2.319416    15B1     2.460522  
      22B2     2.503761    11A2     2.757538    29A1     2.834651  
      16B1     2.852695    23B2     2.898702    30A1     2.905571  
      24B2     2.929973    17B1     3.134679    31A1     3.173193  
      12A2     3.173422    25B2     3.348331    32A1     3.407330  
      13A2     3.495580    26B2     3.532239    33A1     3.542955  
      27B2     3.640432    18B1     3.712900    34A1     3.871340  
      19B1     3.962070    14A2     3.969156    28B2     3.969661  
      35A1     3.979650    20B1     4.018426    36A1     4.078748  
      37A1     4.235564    29B2     4.387210    21B1     4.524195  
      38A1     4.529982    22B1     4.582672    30B2     4.608684  
      15A2     4.610275    16A2     4.640888    39A1     4.776817  
      40A1     4.992993    31B2     5.068992    23B1     5.256557  
      41A1     5.299385    32B2     5.574151    17A2     5.645585  
      33B2     5.830440    42A1     5.946774    24B1     6.638703  
      18A2     6.686462    34B2     6.686938    43A1     6.724632  
      35B2     7.477527    25B1     7.542151    19A2     7.559983  
      20A2     7.587240    36B2     7.613609    44A1     7.679607  
      37B2     7.716668    45A1     7.812336    46A1     7.948217  
      26B1     8.006906    38B2     8.252963    47A1     8.357397  
      21A2     8.399618    27B1     8.442600    48A1     8.482565  
      28B1     8.576018    22A2     8.727305    39B2     8.776440  
      49A1     8.945764    40B2     9.396856    50A1     9.577732  
      41B2     9.592514    29B1     9.626412    23A2     9.672613  
      42B2    10.007070    51A1    10.112145    52A1    10.265231  
      30B1    10.569696    43B2    10.674194    53A1    10.681535  
      31B1    10.753179    24A2    10.907854    54A1    10.983342  
      25A2    11.302960    44B2    11.336181    32B1    11.397177  
      55A1    11.507703    33B1    11.718337    45B2    11.754878  
      56A1    12.152963    57A1    12.279856    34B1    12.336556  
      26A2    12.425255    46B2    12.712286    58A1    13.514251  
      47B2    13.608438    35B1    14.031345    27A2    14.331122  
      59A1    14.422182    48B2    14.734609    60A1    16.351259  
      49B2    16.779082    61A1    44.081011  

    Final Occupation by Irrep:
             A1    A2    B1    B2 
    DOCC [     3,    0,    1,    1 ]

  @DF-RKS Final Energy:   -76.43953519801046

   => Energetics <=

    Nuclear Repulsion Energy =              9.1747842463748981
    One-Electron Energy =                -122.9854417094512655
    Two-Electron Energy =                  43.8619119036945193
    DFT Exchange-Correlation Energy =      -6.5333642442572941
    Empirical Dispersion Energy =           0.0000000000000000
    VV10 Nonlocal Energy =                  0.0425746056286881
    Total Energy =                        -76.4395351980104607

Computation Completed


Properties will be evaluated at   0.000000,   0.000000,   0.000000 [a0]

Properties computed using the SCF density matrix

  Nuclear Dipole Moment: [e a0]
     X:     0.0000      Y:     0.0000      Z:     0.9803

  Electronic Dipole Moment: [e a0]
     X:     0.0000      Y:     0.0000      Z:    -0.2416

  Dipole Moment: [e a0]
     X:     0.0000      Y:     0.0000      Z:     0.7387     Total:     0.7387

  Dipole Moment: [D]
     X:     0.0000      Y:     0.0000      Z:     1.8776     Total:     1.8776


*** tstop() called on bp1-compute00068.data.bp.acrc.priv at Tue Apr 27 16:36:44 2021
Module time:
	user time   =      86.51 seconds =       1.44 minutes
	system time =       2.84 seconds =       0.05 minutes
	total time  =          4 seconds =       0.07 minutes
Total time:
	user time   =     435.60 seconds =       7.26 minutes
	system time =      17.55 seconds =       0.29 minutes
	total time  =         20 seconds =       0.33 minutes

         ----------------------------------------------------------
                                   FINDIF
                     R. A. King and Jonathon Misiewicz
         ---------------------------------------------------------

  Computing gradient from energies.
    Using 3-point formula.
    Energy without displacement:  -76.4395224071
    Check energies below for precision!
    Forces are for mass-weighted, symmetry-adapted cartesians (in au).

     Coord      Energy(-1)        Energy(+1)            Force
        0    -76.4395197541    -76.4395185018      0.0001252271
        1    -76.4394993888    -76.4395351980     -0.0035809192


-------------------------------------------------------------
  ## New Matrix (Symmetry 0) ##
  Irrep: 1 Size: 3 x 3

                 1                   2                   3

    1     0.00000000000000     0.00000000000000     0.00016754560082
    2     0.00000000000000    -0.00254197981817    -0.00008377280041
    3     0.00000000000000     0.00254197981817    -0.00008377280041




			-----------------------------------------
			 OPTKING 2.0: for geometry optimizations 
			  - R.A. King,  Bethel University        
			-----------------------------------------
	At level 1: Red. Int., RFO, no backsteps, dynamic trust

	Internal coordinates to be generated automatically.
	Detected frag 1 with atoms:  1 2 3
	---Fragment 1 Bond Connectivity---
	 1 : 2 3
	 2 : 1
	 3 : 1

	---Fragment 1 Geometry and Gradient---
	 O           0.0000000000        0.0000000000       -0.1245564123
	 H          -0.0000000000        1.4275986345        0.9884003255
	 H           0.0000000000       -1.4275986345        0.9884003255
	             0.0000000000        0.0000000000        0.0001675456
	             0.0000000000       -0.0025419798       -0.0000837728
	             0.0000000000        0.0025419798       -0.0000837728

	Previous optimization step data not found.  Starting new optimization.

	---Fragment 1 Intrafragment Coordinates---
	 - Coordinate -           - BOHR/RAD -       - ANG/DEG -
	 R(1,2)           =         1.810169	       0.957900
	 R(1,3)           =         1.810169	       0.957900
	 B(2,1,3)         =         1.817237	     104.120000

	Current energy   :       -76.4395224071

	Generating empirical Hessian (Schlegel '84) for each fragment.
	Taking RFO optimization step.
	Going to follow RFO solution 1.
	Using RFO vector 1.
	Norm of target step-size    0.01771
	Projected energy change by RFO approximation:        -0.0000730400

	Back-transformation to cartesian coordinates...
	Successfully converged to displaced geometry.

	--- Internal Coordinate Step in ANG or DEG, aJ/ANG or AJ/DEG ---
	 ---------------------------------------------------------------------------
	   Coordinate                Previous        Force       Change         New 
	   ----------                --------       ------       ------       ------
	    1 R(1,2)          =      0.957900     0.016941     0.001945     0.959845
	    2 R(1,3)          =      0.957900     0.016941     0.001945     0.959845
	    3 B(2,1,3)        =    104.120000     0.000206     0.969906   105.089906
	 ---------------------------------------------------------------------------
	Successfully symmetrized geometry.

  ==> Convergence Check <==

  Measures of convergence in internal coordinates in au.
  Criteria marked as inactive (o), active & met (*), and active & unmet ( ).
  --------------------------------------------------------------------------------------------- ~
   Step     Total Energy     Delta E     MAX Force     RMS Force      MAX Disp      RMS Disp    ~
  --------------------------------------------------------------------------------------------- ~
    Convergence Criteria    1.00e-06 *    3.00e-04 *             o    1.20e-03 *             o  ~
  --------------------------------------------------------------------------------------------- ~
      1     -76.43952241   -7.64e+01      2.71e-03      2.29e-03 o    1.69e-02      1.02e-02 o  ~
  ---------------------------------------------------------------------------------------------

	Writing optimization data to binary file.
	Structure for next step:
	Cartesian Geometry (in Angstrom)
	    O    -0.0000000000   0.0000000000  -0.0624243295
	    H    -0.0000000000   0.7619547400   0.5212948827
	    H     0.0000000000  -0.7619547400   0.5212948827
			--------------------------
			 OPTKING Finished Execution 
			--------------------------

    Structure for next step:
    Molecular point group: c2v
    Full point group: C2v

    Geometry (in Angstrom), charge = 0, multiplicity = 1:

    O            0.000000000000     0.000000000000    -0.065326861918
    H           -0.000000000000     0.761954743005     0.518392352507
    H            0.000000000000    -0.761954743005     0.518392352507

gradient() will perform gradient computation by finite difference of analytic energies.

         ----------------------------------------------------------
                                   FINDIF
                     R. A. King and Jonathon Misiewicz
         ---------------------------------------------------------

  Using finite-differences of energies to determine gradients.
    Generating geometries for use with 3-point formula.
    Displacement size will be 5.00e-03.
    Number of atoms is 3.
    Number of symmetric SALCs is 2.
    Translations projected? 1. Rotations projected? 1.
    Number of geometries (including reference) is 5.

  //>>>>>>>>>>>>>>>>>>>>>>>>>>>>>>>>>>>//
  //    Loading displacement 1 of 5    //
  //<<<<<<<<<<<<<<<<<<<<<<<<<<<<<<<<<<<//

*** tstart() called on bp1-compute00068.data.bp.acrc.priv
*** at Tue Apr 27 16:36:44 2021

   => Loading Basis Set <=

    Name: AUG-CC-PV(Q+D)Z
    Role: ORBITAL
    Keyword: BASIS
    atoms 1   entry O          line   439 file /work/zw18965/.conda/envs/p4env/share/psi4/basis/aug-cc-pv_qpd_z.gbs 
    atoms 2-3 entry H          line    56 file /work/zw18965/.conda/envs/p4env/share/psi4/basis/aug-cc-pv_qpd_z.gbs 


         ---------------------------------------------------------
                                   SCF
               by Justin Turney, Rob Parrish, Andy Simmonett
                          and Daniel G. A. Smith
                              RKS Reference
                       24 Threads, 137329 MiB Core
         ---------------------------------------------------------

  ==> Geometry <==

    Molecular point group: c2v
    Full point group: C2v

    Geometry (in Angstrom), charge = 0, multiplicity = 1:

       Center              X                  Y                   Z               Mass       
    ------------   -----------------  -----------------  -----------------  -----------------
         O            0.000000000000     0.000000000000    -0.065326861918    15.994914619570
         H           -0.000000000000     0.761954743005     0.518392352507     1.007825032230
         H            0.000000000000    -0.761954743005     0.518392352507     1.007825032230

  Running in c2v symmetry.

  Rotational constants: A =     27.63877  B =     14.40532  C =      9.46971 [cm^-1]
  Rotational constants: A = 828589.61759  B = 431860.72448  C = 283894.81172 [MHz]
  Nuclear repulsion =    9.168290690345795

  Charge       = 0
  Multiplicity = 1
  Electrons    = 10
  Nalpha       = 5
  Nbeta        = 5

  ==> Algorithm <==

  SCF Algorithm Type is DF.
  DIIS enabled.
  MOM disabled.
  Fractional occupation disabled.
  Guess Type is READ.
  Energy threshold   = 1.00e-08
  Density threshold  = 1.00e-08
  Integral threshold = 0.00e+00

  ==> Primary Basis <==

  Basis Set: AUG-CC-PV(Q+D)Z
    Blend: AUG-CC-PV(Q+D)Z
    Number of shells: 48
    Number of basis function: 172
    Number of Cartesian functions: 215
    Spherical Harmonics?: true
    Max angular momentum: 4

  ==> DFT Potential <==

   => Composite Functional: WB97X-V <= 

    wB97X-V Hyb-GGA Exchange-Correlation Functional

    N. Mardirossian and M. Head-Gordon, Phys. Chem. Chem. Phys. 16, 9904 (2014)

    Deriv               =              1
    GGA                 =           TRUE
    Meta                =          FALSE

    Exchange Hybrid     =           TRUE
    MP2 Hybrid          =          FALSE

   => Exchange-Correlation Functionals <=

    1.0000   wB97X-V range-separated functional

   => Exact (HF) Exchange <=

    0.8330            HF,LR [omega = 0.3000]
    0.1670               HF 

   => VV10 Non-Local Parameters <=

    VV10 B              =     6.0000E+00
    VV10 C              =     1.0000E-02

   => Molecular Quadrature <=

    Radial Scheme          =       TREUTLER
    Pruning Scheme         =           FLAT
    Nuclear Scheme         =       TREUTLER

    BS radius alpha        =              1
    Pruning alpha          =              1
    Radial Points          =             75
    Spherical Points       =            302
    Total Points           =          67950
    Total Blocks           =            584
    Max Points             =            254
    Max Functions          =            172

   => Loading Basis Set <=

    Name: (AUG-CC-PV(Q+D)Z AUX)
    Role: JKFIT
    Keyword: DF_BASIS_SCF
    atoms 1   entry O          line   318 file /work/zw18965/.conda/envs/p4env/share/psi4/basis/aug-cc-pvqz-jkfit.gbs 
    atoms 2-3 entry H          line    70 file /work/zw18965/.conda/envs/p4env/share/psi4/basis/aug-cc-pvqz-jkfit.gbs 

   => Loading Basis Set <=

    Name: AUG-CC-PV(Q+D)Z
    Role: ORBITAL
    Keyword: BASIS
    atoms 1   entry O          line   439 file /work/zw18965/.conda/envs/p4env/share/psi4/basis/aug-cc-pv_qpd_z.gbs 
    atoms 2-3 entry H          line    56 file /work/zw18965/.conda/envs/p4env/share/psi4/basis/aug-cc-pv_qpd_z.gbs 

  Reading orbitals from file 180, no projection.

  ==> Pre-Iterations <==

   -------------------------------------------------------
    Irrep   Nso     Nmo     Nalpha   Nbeta   Ndocc  Nsocc
   -------------------------------------------------------
     A1        61      61       0       0       0       0
     A2        27      27       0       0       0       0
     B1        35      35       0       0       0       0
     B2        49      49       0       0       0       0
   -------------------------------------------------------
    Total     172     172       5       5       5       0
   -------------------------------------------------------

  ==> Integral Setup <==

  ==> DiskDFJK: Density-Fitted J/K Matrices <==

    J tasked:                  Yes
    K tasked:                  Yes
    wK tasked:                 Yes
    Omega:               3.000E-01
    OpenMP threads:             24
    Integrals threads:          24
    Memory [MiB]:           102673
    Algorithm:                Core
    Integral Cache:           NONE
    Schwarz Cutoff:          1E-12
    Fitting Condition:       1E-10

   => Auxiliary Basis Set <=

  Basis Set: (AUG-CC-PV(Q+D)Z AUX)
    Blend: AUG-CC-PVQZ-JKFIT
    Number of shells: 70
    Number of basis function: 294
    Number of Cartesian functions: 400
    Spherical Harmonics?: true
    Max angular momentum: 5

  Cached 100.0% of DFT collocation blocks in 0.316 [GiB].

  Minimum eigenvalue in the overlap matrix is 8.6977418562E-05.
  Using Symmetric Orthogonalization.

  SCF Guess: Orbitals guess was supplied from a previous computation.

  ==> Iterations <==

                           Total Energy        Delta E     RMS |[F,P]|

   @DF-RKS iter   0:   -76.43547361954236   -7.64355e+01   1.52028e-04 
   @DF-RKS iter   1:   -76.43954753993971   -4.07392e-03   2.30884e-05 DIIS
   @DF-RKS iter   2:   -76.43954804084009   -5.00900e-07   2.22236e-05 DIIS
   @DF-RKS iter   3:   -76.43954921246768   -1.17163e-06   1.77292e-06 DIIS
   @DF-RKS iter   4:   -76.43954922518854   -1.27209e-08   4.35006e-07 DIIS
   @DF-RKS iter   5:   -76.43954922612933   -9.40787e-10   7.41053e-08 DIIS
   @DF-RKS iter   6:   -76.43954922617600   -4.66684e-11   8.79932e-09 DIIS
  Energy and wave function converged.


  ==> Post-Iterations <==

    Orbital Energies [Eh]
    ---------------------

    Doubly Occupied:                                                      

       1A1   -19.217480     2A1    -1.145097     1B2    -0.647871  
       3A1    -0.505573     1B1    -0.430328  

    Virtual:                                                              

       4A1     0.026271     2B2     0.046821     5A1     0.110453  
       2B1     0.132886     6A1     0.141686     3B2     0.154013  
       4B2     0.180879     7A1     0.195233     1A2     0.207990  
       3B1     0.233830     8A1     0.250947     5B2     0.293153  
       9A1     0.327475     6B2     0.353973     7B2     0.444425  
      10A1     0.477830    11A1     0.514981     2A2     0.521343  
       4B1     0.527800    12A1     0.589305     5B1     0.610205  
       6B1     0.622859     8B2     0.642907     3A2     0.648969  
      13A1     0.665666    14A1     0.672465     9B2     0.700300  
      15A1     0.731337    10B2     0.743421    11B2     0.760442  
       7B1     0.763253    16A1     0.826435     4A2     0.841842  
      12B2     0.925812    17A1     1.069365     5A2     1.076936  
       8B1     1.144581    18A1     1.251756    13B2     1.372418  
      19A1     1.405800    14B2     1.435151     9B1     1.437484  
      20A1     1.450801     6A2     1.481993    10B1     1.525391  
      15B2     1.542238    21A1     1.544732    11B1     1.596057  
      22A1     1.602559     7A2     1.645891    16B2     1.648455  
      23A1     1.656907    12B1     1.690388    24A1     1.710970  
      17B2     1.720016    25A1     1.802244    18B2     1.806688  
       8A2     1.852930    19B2     1.857028    13B1     1.927638  
      20B2     1.960007    26A1     1.965124     9A2     1.968263  
      14B1     2.023880    10A2     2.107056    27A1     2.153927  
      21B2     2.261706    28A1     2.327818    15B1     2.461273  
      22B2     2.505517    11A2     2.757211    29A1     2.834658  
      16B1     2.854648    23B2     2.895020    30A1     2.906042  
      24B2     2.929988    17B1     3.141770    12A2     3.162142  
      31A1     3.167254    25B2     3.354207    32A1     3.407544  
      13A2     3.497414    26B2     3.533566    33A1     3.545339  
      27B2     3.629440    18B1     3.712769    34A1     3.869696  
      19B1     3.960950    28B2     3.968868    14A2     3.970349  
      35A1     3.980101    20B1     4.021796    36A1     4.080568  
      37A1     4.233259    29B2     4.383179    21B1     4.511835  
      38A1     4.531198    22B1     4.579833    30B2     4.612256  
      15A2     4.618984    16A2     4.640650    39A1     4.779497  
      40A1     4.998207    31B2     5.069458    23B1     5.258484  
      41A1     5.293351    32B2     5.576439    17A2     5.641721  
      33B2     5.829729    42A1     5.943235    24B1     6.645019  
      18A2     6.674507    34B2     6.681394    43A1     6.733867  
      35B2     7.473346    25B1     7.541176    19A2     7.566010  
      20A2     7.596713    36B2     7.612987    44A1     7.679302  
      37B2     7.715683    45A1     7.807030    46A1     7.985687  
      26B1     8.006735    38B2     8.251598    47A1     8.367751  
      21A2     8.385926    27B1     8.454568    48A1     8.481376  
      28B1     8.580328    22A2     8.727083    39B2     8.778595  
      49A1     8.929578    40B2     9.379009    41B2     9.563641  
      50A1     9.584794    29B1     9.626043    23A2     9.672518  
      42B2    10.023383    51A1    10.119803    52A1    10.261318  
      30B1    10.567447    53A1    10.669470    43B2    10.679214  
      31B1    10.748427    24A2    10.916830    54A1    10.985073  
      25A2    11.298332    44B2    11.335777    32B1    11.398233  
      55A1    11.510611    33B1    11.712732    45B2    11.754225  
      56A1    12.130742    57A1    12.277025    34B1    12.340170  
      26A2    12.419819    46B2    12.720719    58A1    13.514674  
      47B2    13.602669    35B1    14.021134    27A2    14.330440  
      59A1    14.407798    48B2    14.731220    60A1    16.359961  
      49B2    16.766728    61A1    44.070167  

    Final Occupation by Irrep:
             A1    A2    B1    B2 
    DOCC [     3,    0,    1,    1 ]

  @DF-RKS Final Energy:   -76.43954922617600

   => Energetics <=

    Nuclear Repulsion Energy =              9.1682906903457955
    One-Electron Energy =                -122.9758262897724848
    Two-Electron Energy =                  43.8583122341571112
    DFT Exchange-Correlation Energy =      -6.5328997060516771
    Empirical Dispersion Energy =           0.0000000000000000
    VV10 Nonlocal Energy =                  0.0425738451452615
    Total Energy =                        -76.4395492261759983

Computation Completed


Properties will be evaluated at   0.000000,   0.000000,   0.000000 [a0]

Properties computed using the SCF density matrix

  Nuclear Dipole Moment: [e a0]
     X:     0.0000      Y:     0.0000      Z:     0.9716

  Electronic Dipole Moment: [e a0]
     X:     0.0000      Y:     0.0000      Z:    -0.2378

  Dipole Moment: [e a0]
[...]

*** tstart() called on bp1-compute00068.data.bp.acrc.priv
*** at Tue Apr 27 16:38:00 2021

   => Loading Basis Set <=

    Name: AUG-CC-PV(Q+D)Z
    Role: ORBITAL
    Keyword: BASIS
    atoms 1   entry O          line   439 file /work/zw18965/.conda/envs/p4env/share/psi4/basis/aug-cc-pv_qpd_z.gbs 
    atoms 2-3 entry H          line    56 file /work/zw18965/.conda/envs/p4env/share/psi4/basis/aug-cc-pv_qpd_z.gbs 


         ---------------------------------------------------------
                                   SCF
               by Justin Turney, Rob Parrish, Andy Simmonett
                          and Daniel G. A. Smith
                              RKS Reference
                       24 Threads, 137329 MiB Core
         ---------------------------------------------------------

  ==> Geometry <==

    Molecular point group: cs
    Full point group: Cs

    Geometry (in Angstrom), charge = 0, multiplicity = 1:

       Center              X                  Y                   Z               Mass       
    ------------   -----------------  -----------------  -----------------  -----------------
         O            0.000000000000    -0.000179370957    -0.065350044766    15.994914619570
         H            0.000000000000     0.762733754762     0.519668046817     1.007825032230
         H            0.000000000000    -0.759887007508     0.517484586815     1.007825032230

  Running in cs symmetry.

  Rotational constants: A =     27.61997  B =     14.42941  C =      9.47790 [cm^-1]
  Rotational constants: A = 828025.87838  B = 432582.92147  C = 284140.37215 [MHz]
  Nuclear repulsion =    9.172163196939881

  Charge       = 0
  Multiplicity = 1
  Electrons    = 10
  Nalpha       = 5
  Nbeta        = 5

  ==> Algorithm <==

  SCF Algorithm Type is DF.
  DIIS enabled.
  MOM disabled.
  Fractional occupation disabled.
  Guess Type is SAD.
  Energy threshold   = 1.00e-10
  Density threshold  = 1.00e-10
  Integral threshold = 0.00e+00

  ==> Primary Basis <==

  Basis Set: AUG-CC-PV(Q+D)Z
    Blend: AUG-CC-PV(Q+D)Z
    Number of shells: 48
    Number of basis function: 172
    Number of Cartesian functions: 215
    Spherical Harmonics?: true
    Max angular momentum: 4

  ==> DFT Potential <==

   => Composite Functional: WB97X-V <= 

    wB97X-V Hyb-GGA Exchange-Correlation Functional

    N. Mardirossian and M. Head-Gordon, Phys. Chem. Chem. Phys. 16, 9904 (2014)

    Deriv               =              1
    GGA                 =           TRUE
    Meta                =          FALSE

    Exchange Hybrid     =           TRUE
    MP2 Hybrid          =          FALSE

   => Exchange-Correlation Functionals <=

    1.0000   wB97X-V range-separated functional

   => Exact (HF) Exchange <=

    0.8330            HF,LR [omega = 0.3000]
    0.1670               HF 

   => VV10 Non-Local Parameters <=

    VV10 B              =     6.0000E+00
    VV10 C              =     1.0000E-02

   => Molecular Quadrature <=

    Radial Scheme          =       TREUTLER
    Pruning Scheme         =           FLAT
    Nuclear Scheme         =       TREUTLER

    BS radius alpha        =              1
    Pruning alpha          =              1
    Radial Points          =             75
    Spherical Points       =            302
    Total Points           =          67950
    Total Blocks           =            574
    Max Points             =            256
    Max Functions          =            172

   => Loading Basis Set <=

    Name: (AUG-CC-PV(Q+D)Z AUX)
    Role: JKFIT
    Keyword: DF_BASIS_SCF
    atoms 1   entry O          line   318 file /work/zw18965/.conda/envs/p4env/share/psi4/basis/aug-cc-pvqz-jkfit.gbs 
    atoms 2-3 entry H          line    70 file /work/zw18965/.conda/envs/p4env/share/psi4/basis/aug-cc-pvqz-jkfit.gbs 

  ==> Pre-Iterations <==

   -------------------------------------------------------
    Irrep   Nso     Nmo     Nalpha   Nbeta   Ndocc  Nsocc
   -------------------------------------------------------
     A'       110     110       0       0       0       0
     A"        62      62       0       0       0       0
   -------------------------------------------------------
    Total     172     172       5       5       5       0
   -------------------------------------------------------

  ==> Integral Setup <==

  ==> DiskDFJK: Density-Fitted J/K Matrices <==

    J tasked:                  Yes
    K tasked:                  Yes
    wK tasked:                 Yes
    Omega:               3.000E-01
    OpenMP threads:             24
    Integrals threads:          24
    Memory [MiB]:           102673
    Algorithm:                Core
    Integral Cache:           NONE
    Schwarz Cutoff:          1E-12
    Fitting Condition:       1E-10

   => Auxiliary Basis Set <=

  Basis Set: (AUG-CC-PV(Q+D)Z AUX)
    Blend: AUG-CC-PVQZ-JKFIT
    Number of shells: 70
    Number of basis function: 294
    Number of Cartesian functions: 400
    Spherical Harmonics?: true
    Max angular momentum: 5

  Cached 100.0% of DFT collocation blocks in 0.316 [GiB].

  Minimum eigenvalue in the overlap matrix is 8.6866006381E-05.
  Using Symmetric Orthogonalization.

  SCF Guess: Superposition of Atomic Densities via on-the-fly atomic UHF.

  ==> Iterations <==

                           Total Energy        Delta E     RMS |[F,P]|

   @DF-RKS iter SAD:   -75.95343073179525   -7.59534e+01   0.00000e+00 
   @DF-RKS iter   1:   -76.30594360847029   -3.52513e-01   4.89448e-03 DIIS
   @DF-RKS iter   2:   -76.28546513915265    2.04785e-02   5.45189e-03 DIIS
   @DF-RKS iter   3:   -76.43936139130817   -1.53896e-01   1.28169e-04 DIIS
   @DF-RKS iter   4:   -76.43952956313768   -1.68172e-04   3.85848e-05 DIIS
   @DF-RKS iter   5:   -76.43954174596715   -1.21828e-05   6.71402e-06 DIIS
   @DF-RKS iter   6:   -76.43954227737329   -5.31406e-07   1.04663e-06 DIIS
   @DF-RKS iter   7:   -76.43954229872894   -2.13556e-08   1.99516e-07 DIIS
   @DF-RKS iter   8:   -76.43954229961390   -8.84967e-10   3.02422e-08 DIIS
   @DF-RKS iter   9:   -76.43954229964254   -2.86349e-11   5.23027e-09 DIIS
   @DF-RKS iter  10:   -76.43954229964338   -8.38440e-13   5.66478e-10 DIIS
   @DF-RKS iter  11:   -76.43954229964338    0.00000e+00   1.26882e-10 DIIS
   @DF-RKS iter  12:   -76.43954229964332    5.68434e-14   1.80099e-11 DIIS
  Energy and wave function converged.


  ==> Post-Iterations <==

    Orbital Energies [Eh]
    ---------------------

    Doubly Occupied:                                                      

       1Ap   -19.217444     2Ap    -1.145314     3Ap    -0.647907  
       4Ap    -0.505735     1App   -0.430375  

    Virtual:                                                              

       5Ap     0.026277     6Ap     0.046828     7Ap     0.110453  
       2App    0.132881     8Ap     0.141715     9Ap     0.154043  
      10Ap     0.180886    11Ap     0.195252     3App    0.208014  
       4App    0.233799    12Ap     0.250925    13Ap     0.293189  
      14Ap     0.327561    15Ap     0.354079    16Ap     0.444412  
      17Ap     0.477899    18Ap     0.514969     5App    0.521398  
       6App    0.527820    19Ap     0.589373     7App    0.610138  
       8App    0.622861    20Ap     0.642917     9App    0.648933  
      21Ap     0.665595    22Ap     0.672464    23Ap     0.700448  
      24Ap     0.731446    25Ap     0.743598    26Ap     0.760460  
      10App    0.763223    27Ap     0.826389    11App    0.841809  
      28Ap     0.925763    29Ap     1.069079    12App    1.077031  
      13App    1.144649    30Ap     1.251835    31Ap     1.372923  
      32Ap     1.405989    33Ap     1.435280    14App    1.437553  
      34Ap     1.450813    15App    1.481980    16App    1.525225  
      35Ap     1.542169    36Ap     1.545095    17App    1.596102  
      37Ap     1.602435    18App    1.645869    38Ap     1.648471  
      39Ap     1.657027    19App    1.690178    40Ap     1.710877  
      41Ap     1.719912    42Ap     1.802218    43Ap     1.807072  
      20App    1.853223    44Ap     1.857270    21App    1.928263  
      45Ap     1.960098    46Ap     1.965380    22App    1.968103  
      23App    2.023673    24App    2.106870    47Ap     2.153683  
      48Ap     2.262080    49Ap     2.327305    25App    2.461691  
      50Ap     2.505826    26App    2.757644    51Ap     2.835163  
      27App    2.854714    52Ap     2.895500    53Ap     2.906257  
      54Ap     2.930309    28App    3.141469    29App    3.163681  
      55Ap     3.167889    56Ap     3.353920    57Ap     3.407546  
      30App    3.497468    58Ap     3.533493    59Ap     3.545343  
      60Ap     3.630988    31App    3.712677    61Ap     3.869835  
      32App    3.960909    62Ap     3.968910    33App    3.970141  
      63Ap     3.980093    34App    4.021430    64Ap     4.080529  
      65Ap     4.233467    66Ap     4.383987    35App    4.513488  
      67Ap     4.531377    36App    4.580197    68Ap     4.612352  
      37App    4.618529    38App    4.641178    69Ap     4.779418  
      70Ap     4.998026    71Ap     5.069542    39App    5.259224  
      72Ap     5.294585    73Ap     5.577190    40App    5.642840  
      74Ap     5.830400    75Ap     5.944661    41App    6.644776  
      42App    6.676167    76Ap     6.682210    77Ap     6.733569  
      78Ap     7.474688    43App    7.541286    44App    7.566568  
      45App    7.596281    79Ap     7.613534    80Ap     7.681119  
      81Ap     7.715764    82Ap     7.807938    83Ap     7.982292  
      46App    8.007948    84Ap     8.252223    85Ap     8.367005  
      47App    8.387220    48App    8.453373    86Ap     8.482915  
      49App    8.580401    50App    8.726826    87Ap     8.778887  
      88Ap     8.931862    89Ap     9.381367    90Ap     9.567294  
      91Ap     9.585569    51App    9.626176    52App    9.675211  
      92Ap    10.023155    93Ap    10.120491    94Ap    10.259587  
      53App   10.567751    95Ap    10.670189    96Ap    10.678530  
      54App   10.748923    55App   10.916597    97Ap    10.985357  
      56App   11.299417    98Ap    11.336161    57App   11.398068  
      99Ap    11.510998    58App   11.713386   100Ap    11.755984  
     101Ap    12.134170   102Ap    12.279085    59App   12.340736  
      60App   12.422462   103Ap    12.720297   104Ap    13.516134  
     105Ap    13.606505    61App   14.023942    62App   14.334338  
     106Ap    14.412253   107Ap    14.735342   108Ap    16.361500  
     109Ap    16.770882   110Ap    44.075049  

    Final Occupation by Irrep:
             Ap   App 
    DOCC [     4,    1 ]

  @DF-RKS Final Energy:   -76.43954229964332

   => Energetics <=

    Nuclear Repulsion Energy =              9.1721631969398807
    One-Electron Energy =                -122.9825032946893089
    Two-Electron Energy =                  43.8614270014771037
    DFT Exchange-Correlation Energy =      -6.5332034759956183
    Empirical Dispersion Energy =           0.0000000000000000
    VV10 Nonlocal Energy =                  0.0425742726246242
    Total Energy =                        -76.4395422996433211

Computation Completed


Properties will be evaluated at   0.000000,   0.000000,   0.000000 [a0]

Properties computed using the SCF density matrix

  Nuclear Dipole Moment: [e a0]
     X:     0.0000      Y:     0.0027      Z:     0.9720

  Electronic Dipole Moment: [e a0]
     X:     0.0000      Y:    -0.0014      Z:    -0.2378

  Dipole Moment: [e a0]
     X:     0.0000      Y:     0.0013      Z:     0.7342     Total:     0.7342

  Dipole Moment: [D]
     X:     0.0000      Y:     0.0033      Z:     1.8661     Total:     1.8661


*** tstop() called on bp1-compute00068.data.bp.acrc.priv at Tue Apr 27 16:38:05 2021
Module time:
	user time   =      96.97 seconds =       1.62 minutes
	system time =       2.61 seconds =       0.04 minutes
	total time  =          5 seconds =       0.08 minutes
Total time:
	user time   =    2231.07 seconds =      37.18 minutes
	system time =      75.84 seconds =       1.26 minutes
	total time  =        101 seconds =       1.68 minutes

         ----------------------------------------------------------
                                   FINDIF
                     R. A. King and Jonathon Misiewicz
         ---------------------------------------------------------

  Computing second-derivative from energies using projected, 
  symmetry-adapted, cartesian coordinates.

  8 energies passed in, including the reference geometry.
    Using 3-point formula.
    Energy without displacement:  -76.4395497074
    Check energies below for precision!
    0: -1        :       -76.4395463133
    0: 1         :       -76.4395466711
    1: -1        :       -76.4395447785
    1: 1         :       -76.4395444724
    0: 1, 1: 1   :       -76.4395468852
    0: -1, 1: -1 :       -76.4395468560
    2: -1        :       -76.4395422996

-------------------------------------------------------------


  ==> Harmonic Vibrational Analysis <==

  non-mass-weighted Hessian:       Symmetric? True   Hermitian? True   Lin Dep Dim?  6 (0)
  projection of translations (True) and rotations (True) removed 6 degrees of freedom (6)
  total projector:                 Symmetric? True   Hermitian? True   Lin Dep Dim?  6 (6)
  mass-weighted Hessian:           Symmetric? True   Hermitian? True   Lin Dep Dim?  6 (0)
  pre-proj  low-frequency mode:    0.0000i [cm^-1]
  pre-proj  low-frequency mode:    0.0000  [cm^-1]
  pre-proj  low-frequency mode:    0.0000  [cm^-1]
  pre-proj  low-frequency mode:    0.0000  [cm^-1]
  pre-proj  low-frequency mode:    0.0000  [cm^-1]
  pre-proj  low-frequency mode:    0.0000  [cm^-1]
  pre-proj  all modes:['0.0000i' '0.0000' '0.0000' '0.0000' '0.0000' '0.0000' '1634.1683'
 '3856.1058' '3957.2474']
  projected mass-weighted Hessian: Symmetric? True   Hermitian? True   Lin Dep Dim?  6 (6)
  post-proj low-frequency mode:    0.0001i [cm^-1] (TR)
  post-proj low-frequency mode:    0.0000i [cm^-1] (TR)
  post-proj low-frequency mode:    0.0000i [cm^-1] (TR)
  post-proj low-frequency mode:    0.0000  [cm^-1] (TR)
  post-proj low-frequency mode:    0.0000  [cm^-1] (TR)
  post-proj low-frequency mode:    0.0000  [cm^-1] (TR)
  post-proj  all modes:['0.0001i' '0.0000i' '0.0000i' '0.0000' '0.0000' '0.0000' '1634.1683'
 '3856.1058' '3957.2474']

  Vibration                       7                   8                   9           
  Freq [cm^-1]                1634.1683           3856.1058           3957.2474       
  Irrep                           A1                  A1                  B2          
  Reduced mass [u]              1.0830              1.0449              1.0824        
  Force const [mDyne/A]         1.7040              9.1541              9.9865        
  Turning point v=0 [a0]        0.2608              0.1729              0.1677        
  RMS dev v=0 [a0 u^1/2]        0.1919              0.1249              0.1233        
  Char temp [K]               2351.2043           5548.0777           5693.5979       
  ----------------------------------------------------------------------------------
      1   O                0.00  0.00 -0.07   -0.00  0.00 -0.05    0.00 -0.07 -0.00   
      2   H                0.00 -0.43  0.56    0.00  0.59  0.39   -0.00  0.56  0.43   
      3   H               -0.00  0.43  0.56    0.00 -0.59  0.39    0.00  0.56 -0.43   

  ==> Thermochemistry Components <==

  Entropy, S
    Electronic S            0.000 [cal/(mol K)]        0.000 [J/(mol K)]       0.00000000 [mEh/K] (multiplicity = 1)
    Translational S        34.608 [cal/(mol K)]      144.801 [J/(mol K)]       0.05515177 [mEh/K] (mol. weight = 18.0106 [u], P = 101325.00 [Pa])
    Rotational S           10.456 [cal/(mol K)]       43.747 [J/(mol K)]       0.01666230 [mEh/K] (symmetry no. = 2)
    Vibrational S           0.007 [cal/(mol K)]        0.028 [J/(mol K)]       0.00001058 [mEh/K]
  Total S                  45.071 [cal/(mol K)]      188.576 [J/(mol K)]       0.07182465 [mEh/K]
  Correction S              0.000 [cal/(mol K)]        0.000 [J/(mol K)]       0.00000000 [mEh/K]

  Constant volume heat capacity, Cv
    Electronic Cv           0.000 [cal/(mol K)]        0.000 [J/(mol K)]       0.00000000 [mEh/K]
    Translational Cv        2.981 [cal/(mol K)]       12.472 [J/(mol K)]       0.00475022 [mEh/K]
    Rotational Cv           2.981 [cal/(mol K)]       12.472 [J/(mol K)]       0.00475022 [mEh/K]
    Vibrational Cv          0.047 [cal/(mol K)]        0.195 [J/(mol K)]       0.00007412 [mEh/K]
  Total Cv                  6.008 [cal/(mol K)]       25.138 [J/(mol K)]       0.00957455 [mEh/K]
  Correction Cv             0.000 [cal/(mol K)]        0.000 [J/(mol K)]       0.00000000 [mEh/K]

  Constant pressure heat capacity, Cp
    Electronic Cp           0.000 [cal/(mol K)]        0.000 [J/(mol K)]       0.00000000 [mEh/K]
    Translational Cp        4.968 [cal/(mol K)]       20.786 [J/(mol K)]       0.00791703 [mEh/K]
    Rotational Cp           2.981 [cal/(mol K)]       12.472 [J/(mol K)]       0.00475022 [mEh/K]
    Vibrational Cp          0.047 [cal/(mol K)]        0.195 [J/(mol K)]       0.00007412 [mEh/K]
  Total Cp                  7.995 [cal/(mol K)]       33.452 [J/(mol K)]       0.01274136 [mEh/K]
  Correction Cp             0.000 [cal/(mol K)]        0.000 [J/(mol K)]       0.00000000 [mEh/K]

  ==> Thermochemistry Energy Analysis <==

  Raw electronic energy, E0
  Total E0, Electronic energy at well bottom at 0 [K]                  -76.43954971 [Eh]

  Zero-point energy, ZPE_vib = Sum_i nu_i / 2
    Electronic ZPE          0.000 [kcal/mol]        0.000 [kJ/mol]       0.00000000 [Eh]
    Translational ZPE       0.000 [kcal/mol]        0.000 [kJ/mol]       0.00000000 [Eh]
    Rotational ZPE          0.000 [kcal/mol]        0.000 [kJ/mol]       0.00000000 [Eh]
    Vibrational ZPE        13.506 [kcal/mol]       56.509 [kJ/mol]       0.02152304 [Eh]        4723.761 [cm^-1]
  Correction ZPE           13.506 [kcal/mol]       56.509 [kJ/mol]       0.02152304 [Eh]        4723.761 [cm^-1]
  Total ZPE, Electronic energy at 0 [K]                                -76.41802667 [Eh]

  Thermal Energy, E (includes ZPE)
    Electronic E            0.000 [kcal/mol]        0.000 [kJ/mol]       0.00000000 [Eh]
    Translational E         0.889 [kcal/mol]        3.718 [kJ/mol]       0.00141628 [Eh]
    Rotational E            0.889 [kcal/mol]        3.718 [kJ/mol]       0.00141628 [Eh]
    Vibrational E          13.508 [kcal/mol]       56.516 [kJ/mol]       0.02152584 [Eh]
  Correction E             15.285 [kcal/mol]       63.953 [kJ/mol]       0.02435839 [Eh]
  Total E, Electronic energy at  298.15 [K]                            -76.41519132 [Eh]

  Enthalpy, H_trans = E_trans + k_B * T
    Electronic H            0.000 [kcal/mol]        0.000 [kJ/mol]       0.00000000 [Eh]
    Translational H         1.481 [kcal/mol]        6.197 [kJ/mol]       0.00236046 [Eh]
    Rotational H            0.889 [kcal/mol]        3.718 [kJ/mol]       0.00141628 [Eh]
    Vibrational H          13.508 [kcal/mol]       56.516 [kJ/mol]       0.02152584 [Eh]
  Correction H             15.878 [kcal/mol]       66.432 [kJ/mol]       0.02530258 [Eh]
  Total H, Enthalpy at  298.15 [K]                                     -76.41424713 [Eh]

  Gibbs free energy, G = H - T * S
    Electronic G            0.000 [kcal/mol]        0.000 [kJ/mol]       0.00000000 [Eh]
    Translational G        -8.837 [kcal/mol]      -36.975 [kJ/mol]      -0.01408304 [Eh]
    Rotational G           -2.229 [kcal/mol]       -9.325 [kJ/mol]      -0.00355159 [Eh]
    Vibrational G          13.506 [kcal/mol]       56.508 [kJ/mol]       0.02152268 [Eh]
  Correction G              2.440 [kcal/mol]       10.208 [kJ/mol]       0.00388806 [Eh]
  Total G, Free enthalpy at  298.15 [K]                                -76.43566165 [Eh]

    Psi4 stopped on: Tuesday, 27 April 2021 04:38PM
    Psi4 wall time for execution: 0:01:41.39

*** Psi4 exiting successfully. Buy a developer a beer!
