
    -----------------------------------------------------------------------
          Psi4: An Open-Source Ab Initio Electronic Structure Package
                               Psi4 1.3.2 release

                         Git: Rev {HEAD} ecbda83 


    R. M. Parrish, L. A. Burns, D. G. A. Smith, A. C. Simmonett,
    A. E. DePrince III, E. G. Hohenstein, U. Bozkaya, A. Yu. Sokolov,
    R. Di Remigio, R. M. Richard, J. F. Gonthier, A. M. James,
    H. R. McAlexander, A. Kumar, M. Saitow, X. Wang, B. P. Pritchard,
    P. Verma, H. F. Schaefer III, K. Patkowski, R. A. King, E. F. Valeev,
    F. A. Evangelista, J. M. Turney, T. D. Crawford, and C. D. Sherrill,
    J. Chem. Theory Comput. 13(7) pp 3185--3197 (2017).
    (doi: 10.1021/acs.jctc.7b00174)


                         Additional Contributions by
    P. Kraus, H. Kruse, M. H. Lechner, M. C. Schieber, R. A. Shaw,
    A. Alenaizan, R. Galvelis, Z. L. Glick, S. Lehtola, and J. P. Misiewicz

    -----------------------------------------------------------------------


    Psi4 started on: Tuesday, 27 April 2021 04:38PM

    Process ID: 128052
    Host:       bp1-compute00067.data.bp.acrc.priv
    PSIDATADIR: /work/zw18965/.conda/envs/p4env/share/psi4
    Memory:     500.0 MiB
    Threads:    24
    
  ==> Input File <==

--------------------------------------------------------------------------
memory 144 GB

molecule {
0 1
N 0.0000000000 0.0000000000 0.0000000000
N 0.0000000000 0.0000000000 1.1291000000
O 0.0000000000 -0.0000000000 2.3161000000
}

set dynamic_level 1
set basis aug-cc-pV(Q+d)Z
 
optimize("wB97X-V")
frequencies("wB97X-V")
--------------------------------------------------------------------------

  Memory set to 134.110 GiB by Python driver.
gradient() will perform gradient computation by finite difference of analytic energies.

         ----------------------------------------------------------
                                   FINDIF
                     R. A. King and Jonathon Misiewicz
         ---------------------------------------------------------

  Using finite-differences of energies to determine gradients.
    Generating geometries for use with 3-point formula.
    Displacement size will be 5.00e-03.
    Number of atoms is 3.
    Number of symmetric SALCs is 2.
    Translations projected? 1. Rotations projected? 1.
    Number of geometries (including reference) is 5.

  //>>>>>>>>>>>>>>>>>>>>>>>>>>>>>>>>>>>//
  //    Loading displacement 1 of 5    //
  //<<<<<<<<<<<<<<<<<<<<<<<<<<<<<<<<<<<//

*** tstart() called on bp1-compute00067.data.bp.acrc.priv
*** at Tue Apr 27 16:38:19 2021

   => Loading Basis Set <=

    Name: AUG-CC-PV(Q+D)Z
    Role: ORBITAL
    Keyword: BASIS
    atoms 1-2 entry N          line   379 file /work/zw18965/.conda/envs/p4env/share/psi4/basis/aug-cc-pv_qpd_z.gbs 
    atoms 3   entry O          line   439 file /work/zw18965/.conda/envs/p4env/share/psi4/basis/aug-cc-pv_qpd_z.gbs 


         ---------------------------------------------------------
                                   SCF
               by Justin Turney, Rob Parrish, Andy Simmonett
                          and Daniel G. A. Smith
                              RKS Reference
                       24 Threads, 137329 MiB Core
         ---------------------------------------------------------

  ==> Geometry <==

    Molecular point group: c2v
    Full point group: C_inf_v

    Geometry (in Angstrom), charge = 0, multiplicity = 1:

       Center              X                  Y                   Z               Mass       
    ------------   -----------------  -----------------  -----------------  -----------------
         N            0.000000000000     0.000000000000    -1.201259457189    14.003074004430
         N            0.000000000000     0.000000000000    -0.072159457189    14.003074004430
         O            0.000000000000     0.000000000000     1.114840542811    15.994914619570

  Running in c2v symmetry.

  Rotational constants: A = ************  B =      0.41977  C =      0.41977 [cm^-1]
  Rotational constants: A = ************  B =  12584.36423  C =  12584.36423 [MHz]
  Nuclear repulsion =   60.725059425978074

  Charge       = 0
  Multiplicity = 1
  Electrons    = 22
  Nalpha       = 11
  Nbeta        = 11

  ==> Algorithm <==

  SCF Algorithm Type is DF.
  DIIS enabled.
  MOM disabled.
  Fractional occupation disabled.
  Guess Type is SAD.
  Energy threshold   = 1.00e-08
  Density threshold  = 1.00e-08
  Integral threshold = 0.00e+00

  ==> Primary Basis <==

  Basis Set: AUG-CC-PV(Q+D)Z
    Blend: AUG-CC-PV(Q+D)Z
    Number of shells: 60
    Number of basis function: 240
    Number of Cartesian functions: 315
    Spherical Harmonics?: true
    Max angular momentum: 4

  ==> DFT Potential <==

   => Composite Functional: WB97X-V <= 

    wB97X-V Hyb-GGA Exchange-Correlation Functional

    N. Mardirossian and M. Head-Gordon, Phys. Chem. Chem. Phys. 16, 9904 (2014)

    Deriv               =              1
    GGA                 =           TRUE
    Meta                =          FALSE

    Exchange Hybrid     =           TRUE
    MP2 Hybrid          =          FALSE

   => Exchange-Correlation Functionals <=

    1.0000   wB97X-V range-separated functional

   => Exact (HF) Exchange <=

    0.8330            HF,LR [omega = 0.3000]
    0.1670               HF 

   => VV10 Non-Local Parameters <=

    VV10 B              =     6.0000E+00
    VV10 C              =     1.0000E-02

   => Molecular Quadrature <=

    Radial Scheme          =       TREUTLER
    Pruning Scheme         =           FLAT
    Nuclear Scheme         =       TREUTLER

    BS radius alpha        =              1
    Pruning alpha          =              1
    Radial Points          =             75
    Spherical Points       =            302
    Total Points           =          67950
    Total Blocks           =            590
    Max Points             =            255
    Max Functions          =            240

   => Loading Basis Set <=

    Name: (AUG-CC-PV(Q+D)Z AUX)
    Role: JKFIT
    Keyword: DF_BASIS_SCF
    atoms 1-2 entry N          line   248 file /work/zw18965/.conda/envs/p4env/share/psi4/basis/aug-cc-pvqz-jkfit.gbs 
    atoms 3   entry O          line   318 file /work/zw18965/.conda/envs/p4env/share/psi4/basis/aug-cc-pvqz-jkfit.gbs 

  ==> Pre-Iterations <==

   -------------------------------------------------------
    Irrep   Nso     Nmo     Nalpha   Nbeta   Ndocc  Nsocc
   -------------------------------------------------------
     A1        93      93       0       0       0       0
     A2        33      33       0       0       0       0
     B1        57      57       0       0       0       0
     B2        57      57       0       0       0       0
   -------------------------------------------------------
    Total     240     240      11      11      11       0
   -------------------------------------------------------

  ==> Integral Setup <==

  ==> DiskDFJK: Density-Fitted J/K Matrices <==

    J tasked:                  Yes
    K tasked:                  Yes
    wK tasked:                 Yes
    Omega:               3.000E-01
    OpenMP threads:             24
    Integrals threads:          24
    Memory [MiB]:           102582
    Algorithm:                Core
    Integral Cache:           NONE
    Schwarz Cutoff:          1E-12
    Fitting Condition:       1E-10

   => Auxiliary Basis Set <=

  Basis Set: (AUG-CC-PV(Q+D)Z AUX)
    Blend: AUG-CC-PVQZ-JKFIT
    Number of shells: 102
    Number of basis function: 426
    Number of Cartesian functions: 594
    Spherical Harmonics?: true
    Max angular momentum: 5

  Cached 100.0% of DFT collocation blocks in 0.405 [GiB].

  Minimum eigenvalue in the overlap matrix is 1.7770778157E-05.
  Using Symmetric Orthogonalization.

  SCF Guess: Superposition of Atomic Densities via on-the-fly atomic UHF.

  ==> Iterations <==

                           Total Energy        Delta E     RMS |[F,P]|

   @DF-RKS iter SAD:  -184.15442251698752   -1.84154e+02   0.00000e+00 
   @DF-RKS iter   1:  -184.59536428593594   -4.40942e-01   4.05787e-03 DIIS
   @DF-RKS iter   2:  -184.55654281704648    3.88215e-02   4.96020e-03 DIIS
   @DF-RKS iter   3:  -184.68266126660606   -1.26118e-01   6.89522e-04 DIIS
   @DF-RKS iter   4:  -184.68429828472927   -1.63702e-03   4.35091e-04 DIIS
   @DF-RKS iter   5:  -184.68536924406317   -1.07096e-03   5.44870e-05 DIIS
   @DF-RKS iter   6:  -184.68539181962998   -2.25756e-05   1.36562e-05 DIIS
   @DF-RKS iter   7:  -184.68539332743967   -1.50781e-06   2.42790e-06 DIIS
   @DF-RKS iter   8:  -184.68539341633473   -8.88951e-08   3.99333e-07 DIIS
   @DF-RKS iter   9:  -184.68539341862362   -2.28889e-09   7.47662e-08 DIIS
   @DF-RKS iter  10:  -184.68539341868842   -6.48015e-11   1.65249e-08 DIIS
   @DF-RKS iter  11:  -184.68539341869109   -2.67164e-12   1.33128e-09 DIIS
  Energy and wave function converged.


  ==> Post-Iterations <==

    Orbital Energies [Eh]
    ---------------------

    Doubly Occupied:                                                      

       1A1   -19.311319     2A1   -14.647524     3A1   -14.512755  
       4A1    -1.380488     5A1    -1.218620     6A1    -0.725277  
       1B1    -0.688045     1B2    -0.688045     7A1    -0.599117  
       2B1    -0.447921     2B2    -0.447921  

    Virtual:                                                              

       8A1     0.052225     3B1     0.064552     3B2     0.064552  
       9A1     0.076117     4B1     0.113389     4B2     0.113389  
      10A1     0.120123     5B2     0.131205     5B1     0.131205  
      11A1     0.191628     6B1     0.199101     6B2     0.199101  
      12A1     0.211879    13A1     0.247070    14A1     0.284449  
       1A2     0.284451    15A1     0.329126    16A1     0.346387  
       7B2     0.378264     7B1     0.378264     2A2     0.389476  
      17A1     0.389478    18A1     0.439051     8B1     0.479516  
       8B2     0.479516     9B2     0.503402     9B1     0.503402  
      19A1     0.565628    20A1     0.602123     3A2     0.602132  
      10B2     0.614094    10B1     0.614094    21A1     0.616881  
      22A1     0.717080    23A1     0.743311    11B2     0.782865  
      11B1     0.782865    24A1     0.849827    25A1     0.874557  
       4A2     0.874560    12B1     0.878544    12B2     0.878544  
      26A1     0.930492    13B2     0.931013    13B1     0.931013  
      27A1     0.936204     5A2     0.936207    14B2     1.085575  
      14B1     1.085575    15B1     1.098830    15B2     1.098830  
      28A1     1.118437    29A1     1.236600     6A2     1.236604  
      16B2     1.299598    16B1     1.299598    30A1     1.301727  
      31A1     1.332647    32A1     1.461078     7A2     1.461079  
      17B2     1.467925    17B1     1.467925    18B2     1.480273  
      18B1     1.480273    33A1     1.486506    34A1     1.595403  
      19B2     1.641585    19B1     1.641585    35A1     1.659534  
       8A2     1.659536    36A1     1.781066    20B2     1.814589  
      20B1     1.814589    21B2     1.898839    21B1     1.898839  
      37A1     1.912286     9A2     1.975532    38A1     1.975532  
      39A1     2.083425    22B2     2.211592    22B1     2.211592  
      10A2     2.513649    40A1     2.513653    41A1     2.660731  
      11A2     2.660733    23B1     2.664959    23B2     2.664959  
      24B2     2.732734    24B1     2.732734    42A1     2.777144  
      43A1     2.797319    44A1     2.870018    25B1     2.888310  
      25B2     2.888310    26B1     2.907300    26B2     2.907300  
      12A2     2.922054    45A1     2.922059    13A2     2.947873  
      46A1     2.947880    27B1     3.008268    27B2     3.008268  
      14A2     3.019711    47A1     3.019714    28B1     3.094894  
      28B2     3.094894    48A1     3.104565    49A1     3.152149  
      15A2     3.152157    29B2     3.215665    29B1     3.215665  
      50A1     3.261134    30B1     3.434941    30B2     3.434941  
      51A1     3.525483    52A1     3.602483    16A2     3.602488  
      31B2     3.668086    31B1     3.668086    53A1     3.795331  
      17A2     3.808565    54A1     3.808567    32B2     3.928902  
      32B1     3.928902    33B2     3.932187    33B1     3.932187  
      55A1     4.023452    34B2     4.123209    34B1     4.123209  
      18A2     4.197453    56A1     4.197454    57A1     4.363792  
      19A2     4.486482    58A1     4.486484    35B1     4.536007  
      35B2     4.536007    36B2     4.565619    36B1     4.565619  
      59A1     4.861638    20A2     5.157108    60A1     5.157110  
      37B1     5.254498    37B2     5.254498    61A1     5.261419  
      62A1     5.318913    63A1     5.556074    21A2     5.556094  
      38B1     5.826956    38B2     5.826956    64A1     5.888035  
      65A1     6.042954    39B1     6.171465    39B2     6.171465  
      66A1     6.912453    40B1     7.487875    40B2     7.487875  
      67A1     7.527565    22A2     7.527567    41B1     7.661306  
      41B2     7.661306    23A2     7.706986    68A1     7.707013  
      24A2     8.015291    69A1     8.015320    70A1     8.030259  
      42B1     8.144772    42B2     8.144772    71A1     8.359516  
      25A2     8.359527    43B2     8.364171    43B1     8.364171  
      44B2     8.470344    44B1     8.470344    72A1     8.552289  
      45B2     8.677267    45B1     8.677267    46B1     8.742670  
      46B2     8.742670    73A1     8.806894    74A1     8.910957  
      26A2     8.910968    47B2     8.969762    47B1     8.969762  
      75A1     9.241516    27A2     9.241528    76A1     9.244234  
      48B1     9.358519    48B2     9.358519    77A1     9.909370  
      28A2    10.039618    78A1    10.039621    79A1    10.178115  
      29A2    10.178128    80A1    10.228610    30A2    10.228699  
      49B1    10.241434    49B2    10.241434    50B2    10.506276  
      50B1    10.506276    51B2    10.779576    51B1    10.779576  
      52B1    10.893513    52B2    10.893513    81A1    11.053807  
      31A2    11.167439    82A1    11.167448    83A1    11.241261  
      53B2    11.446353    53B1    11.446353    54B1    11.599416  
      54B2    11.599416    84A1    11.963948    55B2    12.030330  
      55B1    12.030330    85A1    12.105967    32A2    12.105968  
      33A2    12.559197    86A1    12.559234    87A1    12.620382  
      56B1    13.249010    56B2    13.249010    88A1    13.501989  
      57B2    14.597179    57B1    14.597179    89A1    15.287976  
      90A1    15.990219    91A1    32.955472    92A1    33.843544  
      93A1    42.547360  

    Final Occupation by Irrep:
             A1    A2    B1    B2 
    DOCC [     7,    0,    2,    2 ]

  @DF-RKS Final Energy:  -184.68539341869109

   => Energetics <=

    Nuclear Repulsion Energy =             60.7250594259780740
    One-Electron Energy =                -370.8275599602819739
    Two-Electron Energy =                 141.1761004653224347
    DFT Exchange-Correlation Energy =     -15.8502198507356979
    Empirical Dispersion Energy =           0.0000000000000000
    VV10 Nonlocal Energy =                  0.0912265010260691
    Total Energy =                       -184.6853934186910919

Computation Completed


Properties will be evaluated at   0.000000,   0.000000,   0.000000 [a0]

Properties computed using the SCF density matrix

  Nuclear Dipole Moment: [e a0]
     X:     0.0000      Y:     0.0000      Z:     0.0091

  Electronic Dipole Moment: [e a0]
     X:     0.0000      Y:     0.0000      Z:    -0.0758

  Dipole Moment: [e a0]
     X:     0.0000      Y:     0.0000      Z:    -0.0667     Total:     0.0667

  Dipole Moment: [D]
     X:     0.0000      Y:     0.0000      Z:    -0.1696     Total:     0.1696


*** tstop() called on bp1-compute00067.data.bp.acrc.priv at Tue Apr 27 16:38:25 2021
Module time:
	user time   =     121.00 seconds =       2.02 minutes
	system time =       4.96 seconds =       0.08 minutes
	total time  =          6 seconds =       0.10 minutes
Total time:
	user time   =     121.00 seconds =       2.02 minutes
	system time =       4.96 seconds =       0.08 minutes
	total time  =          6 seconds =       0.10 minutes

  //>>>>>>>>>>>>>>>>>>>>>>>>>>>>>>>>>>>//
  //    Loading displacement 2 of 5    //
  //<<<<<<<<<<<<<<<<<<<<<<<<<<<<<<<<<<<//

*** tstart() called on bp1-compute00067.data.bp.acrc.priv
*** at Tue Apr 27 16:38:25 2021

   => Loading Basis Set <=

    Name: AUG-CC-PV(Q+D)Z
    Role: ORBITAL
    Keyword: BASIS
    atoms 1-2 entry N          line   379 file /work/zw18965/.conda/envs/p4env/share/psi4/basis/aug-cc-pv_qpd_z.gbs 
    atoms 3   entry O          line   439 file /work/zw18965/.conda/envs/p4env/share/psi4/basis/aug-cc-pv_qpd_z.gbs 


         ---------------------------------------------------------
                                   SCF
               by Justin Turney, Rob Parrish, Andy Simmonett
                          and Daniel G. A. Smith
                              RKS Reference
                       24 Threads, 137329 MiB Core
         ---------------------------------------------------------

  ==> Geometry <==

    Molecular point group: c2v
    Full point group: C_inf_v

    Geometry (in Angstrom), charge = 0, multiplicity = 1:

       Center              X                  Y                   Z               Mass       
    ------------   -----------------  -----------------  -----------------  -----------------
         N            0.000000000000     0.000000000000    -1.201843270417    14.003074004430
         N            0.000000000000     0.000000000000    -0.071886932923    14.003074004430
         O            0.000000000000     0.000000000000     1.115113067077    15.994914619570

  Running in c2v symmetry.

  Rotational constants: A = ************  B =      0.41947  C =      0.41947 [cm^-1]
  Rotational constants: A = ************  B =  12575.34074  C =  12575.34074 [MHz]
  Nuclear repulsion =   60.702926577641591

  Charge       = 0
  Multiplicity = 1
  Electrons    = 22
  Nalpha       = 11
  Nbeta        = 11

  ==> Algorithm <==

  SCF Algorithm Type is DF.
  DIIS enabled.
  MOM disabled.
  Fractional occupation disabled.
  Guess Type is SAD.
  Energy threshold   = 1.00e-08
  Density threshold  = 1.00e-08
  Integral threshold = 0.00e+00

  ==> Primary Basis <==

  Basis Set: AUG-CC-PV(Q+D)Z
    Blend: AUG-CC-PV(Q+D)Z
    Number of shells: 60
    Number of basis function: 240
    Number of Cartesian functions: 315
    Spherical Harmonics?: true
    Max angular momentum: 4

  ==> DFT Potential <==

   => Composite Functional: WB97X-V <= 

    wB97X-V Hyb-GGA Exchange-Correlation Functional

    N. Mardirossian and M. Head-Gordon, Phys. Chem. Chem. Phys. 16, 9904 (2014)

    Deriv               =              1
    GGA                 =           TRUE
    Meta                =          FALSE

    Exchange Hybrid     =           TRUE
    MP2 Hybrid          =          FALSE

   => Exchange-Correlation Functionals <=

    1.0000   wB97X-V range-separated functional

   => Exact (HF) Exchange <=

    0.8330            HF,LR [omega = 0.3000]
    0.1670               HF 

   => VV10 Non-Local Parameters <=

    VV10 B              =     6.0000E+00
    VV10 C              =     1.0000E-02

   => Molecular Quadrature <=

    Radial Scheme          =       TREUTLER
    Pruning Scheme         =           FLAT
    Nuclear Scheme         =       TREUTLER

    BS radius alpha        =              1
    Pruning alpha          =              1
    Radial Points          =             75
    Spherical Points       =            302
    Total Points           =          67950
    Total Blocks           =            590
    Max Points             =            254
    Max Functions          =            240

   => Loading Basis Set <=

    Name: (AUG-CC-PV(Q+D)Z AUX)
    Role: JKFIT
    Keyword: DF_BASIS_SCF
    atoms 1-2 entry N          line   248 file /work/zw18965/.conda/envs/p4env/share/psi4/basis/aug-cc-pvqz-jkfit.gbs 
    atoms 3   entry O          line   318 file /work/zw18965/.conda/envs/p4env/share/psi4/basis/aug-cc-pvqz-jkfit.gbs 

  ==> Pre-Iterations <==

   -------------------------------------------------------
    Irrep   Nso     Nmo     Nalpha   Nbeta   Ndocc  Nsocc
   -------------------------------------------------------
     A1        93      93       0       0       0       0
     A2        33      33       0       0       0       0
     B1        57      57       0       0       0       0
     B2        57      57       0       0       0       0
   -------------------------------------------------------
    Total     240     240      11      11      11       0
   -------------------------------------------------------

  ==> Integral Setup <==

  ==> DiskDFJK: Density-Fitted J/K Matrices <==

    J tasked:                  Yes
    K tasked:                  Yes
    wK tasked:                 Yes
    Omega:               3.000E-01
    OpenMP threads:             24
    Integrals threads:          24
    Memory [MiB]:           102582
    Algorithm:                Core
    Integral Cache:           NONE
    Schwarz Cutoff:          1E-12
    Fitting Condition:       1E-10

   => Auxiliary Basis Set <=

  Basis Set: (AUG-CC-PV(Q+D)Z AUX)
    Blend: AUG-CC-PVQZ-JKFIT
    Number of shells: 102
    Number of basis function: 426
    Number of Cartesian functions: 594
    Spherical Harmonics?: true
    Max angular momentum: 5

  Cached 100.0% of DFT collocation blocks in 0.405 [GiB].

  Minimum eigenvalue in the overlap matrix is 1.7820960926E-05.
  Using Symmetric Orthogonalization.

  SCF Guess: Superposition of Atomic Densities via on-the-fly atomic UHF.

  ==> Iterations <==

                           Total Energy        Delta E     RMS |[F,P]|

   @DF-RKS iter SAD:  -184.15263910720054   -1.84153e+02   0.00000e+00 
   @DF-RKS iter   1:  -184.59525823278287   -4.42619e-01   4.05815e-03 DIIS
   @DF-RKS iter   2:  -184.55597223378237    3.92860e-02   4.96850e-03 DIIS
   @DF-RKS iter   3:  -184.68257952571273   -1.26607e-01   6.92697e-04 DIIS
   @DF-RKS iter   4:  -184.68423403268898   -1.65451e-03   4.36682e-04 DIIS
   @DF-RKS iter   5:  -184.68531336058712   -1.07933e-03   5.43326e-05 DIIS
   @DF-RKS iter   6:  -184.68533584043448   -2.24798e-05   1.36588e-05 DIIS
   @DF-RKS iter   7:  -184.68533734849302   -1.50806e-06   2.42965e-06 DIIS
   @DF-RKS iter   8:  -184.68533743746946   -8.89764e-08   3.99797e-07 DIIS
   @DF-RKS iter   9:  -184.68533743976354   -2.29409e-09   7.50099e-08 DIIS
   @DF-RKS iter  10:  -184.68533743982840   -6.48583e-11   1.66175e-08 DIIS
   @DF-RKS iter  11:  -184.68533743983099   -2.58638e-12   1.34097e-09 DIIS
  Energy and wave function converged.


  ==> Post-Iterations <==

    Orbital Energies [Eh]
    ---------------------

    Doubly Occupied:                                                      

       1A1   -19.311487     2A1   -14.647642     3A1   -14.512903  
       4A1    -1.380406     5A1    -1.218199     6A1    -0.725418  
       1B2    -0.687869     1B1    -0.687869     7A1    -0.599138  
       2B1    -0.447869     2B2    -0.447869  

    Virtual:                                                              

       8A1     0.052214     3B1     0.064312     3B2     0.064312  
       9A1     0.076116     4B2     0.113327     4B1     0.113327  
      10A1     0.120116     5B2     0.131193     5B1     0.131193  
      11A1     0.191624     6B2     0.199082     6B1     0.199082  
      12A1     0.211753    13A1     0.247082    14A1     0.284454  
       1A2     0.284456    15A1     0.329058    16A1     0.346193  
       7B2     0.378255     7B1     0.378255     2A2     0.389489  
      17A1     0.389490    18A1     0.439022     8B1     0.479518  
       8B2     0.479518     9B1     0.503462     9B2     0.503462  
      19A1     0.565517    20A1     0.602065     3A2     0.602073  
      10B2     0.614037    10B1     0.614037    21A1     0.616920  
      22A1     0.716989    23A1     0.743254    11B1     0.782753  
      11B2     0.782753    24A1     0.849734    25A1     0.874618  
       4A2     0.874620    12B2     0.878546    12B1     0.878546  
      26A1     0.929881    13B2     0.931029    13B1     0.931029  
      27A1     0.936308     5A2     0.936311    14B2     1.085499  
      14B1     1.085499    15B2     1.098788    15B1     1.098788  
      28A1     1.117947    29A1     1.236468     6A2     1.236472  
      16B1     1.299515    16B2     1.299515    30A1     1.301602  
      31A1     1.332365    32A1     1.460859     7A2     1.460859  
      17B2     1.467795    17B1     1.467795    18B1     1.480003  
      18B2     1.480003    33A1     1.486592    34A1     1.595299  
      19B1     1.641381    19B2     1.641381    35A1     1.659398  
       8A2     1.659400    36A1     1.780877    20B1     1.814457  
      20B2     1.814457    21B2     1.898865    21B1     1.898865  
      37A1     1.912344     9A2     1.975612    38A1     1.975612  
      39A1     2.083269    22B2     2.212029    22B1     2.212029  
      10A2     2.513732    40A1     2.513736    41A1     2.660839  
      11A2     2.660841    23B1     2.664937    23B2     2.664937  
      24B2     2.732596    24B1     2.732596    42A1     2.776602  
      43A1     2.797704    44A1     2.869363    25B2     2.888250  
      25B1     2.888250    26B1     2.907066    26B2     2.907066  
      12A2     2.921821    45A1     2.921826    13A2     2.947859  
      46A1     2.947865    27B2     3.008227    27B1     3.008227  
      14A2     3.019665    47A1     3.019668    28B2     3.094497  
      28B1     3.094497    48A1     3.104022    49A1     3.151825  
      15A2     3.151833    29B1     3.215604    29B2     3.215604  
      50A1     3.260316    30B1     3.434019    30B2     3.434019  
      51A1     3.525379    52A1     3.602330    16A2     3.602334  
      31B2     3.667241    31B1     3.667241    53A1     3.795367  
      17A2     3.808113    54A1     3.808115    32B2     3.928391  
      32B1     3.928391    33B2     3.931940    33B1     3.931940  
      55A1     4.023071    34B2     4.123066    34B1     4.123066  
      18A2     4.196906    56A1     4.196907    57A1     4.363345  
      19A2     4.485626    58A1     4.485628    35B1     4.535445  
      35B2     4.535445    36B2     4.564927    36B1     4.564927  
      59A1     4.859918    20A2     5.156306    60A1     5.156308  
      37B2     5.254464    37B1     5.254464    61A1     5.260915  
      62A1     5.316609    63A1     5.555814    21A2     5.555834  
      38B2     5.826395    38B1     5.826395    64A1     5.888209  
      65A1     6.041746    39B1     6.171953    39B2     6.171953  
      66A1     6.911407    40B2     7.488751    40B1     7.488751  
      67A1     7.527316    22A2     7.527317    41B1     7.660993  
      41B2     7.660993    23A2     7.707445    68A1     7.707472  
      24A2     8.014885    69A1     8.014915    70A1     8.029676  
      42B1     8.143999    42B2     8.143999    71A1     8.360368  
      25A2     8.360378    43B2     8.363844    43B1     8.363844  
      44B2     8.469874    44B1     8.469874    72A1     8.552380  
      45B1     8.677029    45B2     8.677029    46B1     8.741760  
      46B2     8.741760    73A1     8.804528    74A1     8.910840  
      26A2     8.910851    47B1     8.968433    47B2     8.968433  
      75A1     9.240925    27A2     9.240937    76A1     9.243131  
      48B1     9.358440    48B2     9.358440    77A1     9.908210  
      28A2    10.036529    78A1    10.036533    79A1    10.175624  
      29A2    10.175637    80A1    10.228465    30A2    10.228554  
      49B1    10.238450    49B2    10.238450    50B1    10.506038  
      50B2    10.506038    51B2    10.779220    51B1    10.779220  
      52B1    10.890931    52B2    10.890931    81A1    11.052225  
      31A2    11.165818    82A1    11.165828    83A1    11.240166  
      53B1    11.446101    53B2    11.446101    54B1    11.598249  
      54B2    11.598249    84A1    11.961371    55B1    12.027889  
      55B2    12.027889    85A1    12.105844    32A2    12.105845  
      33A2    12.558700    86A1    12.558737    87A1    12.619277  
      56B1    13.246564    56B2    13.246564    88A1    13.498990  
      57B1    14.593870    57B2    14.593870    89A1    15.283115  
      90A1    15.989325    91A1    32.940638    92A1    33.838310  
      93A1    42.546536  

    Final Occupation by Irrep:
             A1    A2    B1    B2 
    DOCC [     7,    0,    2,    2 ]

  @DF-RKS Final Energy:  -184.68533743983099

   => Energetics <=

    Nuclear Repulsion Energy =             60.7029265776415912
    One-Electron Energy =                -370.7844137034365986
    Two-Electron Energy =                 141.1543399512447081
    DFT Exchange-Correlation Energy =     -15.8494165554569832
    Empirical Dispersion Energy =           0.0000000000000000
    VV10 Nonlocal Energy =                  0.0912262901762571
    Total Energy =                       -184.6853374398309882

Computation Completed


Properties will be evaluated at   0.000000,   0.000000,   0.000000 [a0]

Properties computed using the SCF density matrix

  Nuclear Dipole Moment: [e a0]
     X:     0.0000      Y:     0.0000      Z:     0.0091

  Electronic Dipole Moment: [e a0]
     X:     0.0000      Y:     0.0000      Z:    -0.0745

  Dipole Moment: [e a0]
     X:     0.0000      Y:     0.0000      Z:    -0.0655     Total:     0.0655

  Dipole Moment: [D]
     X:     0.0000      Y:     0.0000      Z:    -0.1665     Total:     0.1665


*** tstop() called on bp1-compute00067.data.bp.acrc.priv at Tue Apr 27 16:38:31 2021
Module time:
	user time   =     129.24 seconds =       2.15 minutes
	system time =       5.66 seconds =       0.09 minutes
	total time  =          6 seconds =       0.10 minutes
Total time:
	user time   =     250.42 seconds =       4.17 minutes
	system time =      10.63 seconds =       0.18 minutes
	total time  =         12 seconds =       0.20 minutes

  //>>>>>>>>>>>>>>>>>>>>>>>>>>>>>>>>>>>//
  //    Loading displacement 3 of 5    //
  //<<<<<<<<<<<<<<<<<<<<<<<<<<<<<<<<<<<//

*** tstart() called on bp1-compute00067.data.bp.acrc.priv
*** at Tue Apr 27 16:38:31 2021

   => Loading Basis Set <=

    Name: AUG-CC-PV(Q+D)Z
    Role: ORBITAL
    Keyword: BASIS
    atoms 1-2 entry N          line   379 file /work/zw18965/.conda/envs/p4env/share/psi4/basis/aug-cc-pv_qpd_z.gbs 
    atoms 3   entry O          line   439 file /work/zw18965/.conda/envs/p4env/share/psi4/basis/aug-cc-pv_qpd_z.gbs 


         ---------------------------------------------------------
                                   SCF
               by Justin Turney, Rob Parrish, Andy Simmonett
                          and Daniel G. A. Smith
                              RKS Reference
                       24 Threads, 137329 MiB Core
         ---------------------------------------------------------

  ==> Geometry <==

    Molecular point group: c2v
    Full point group: C_inf_v

    Geometry (in Angstrom), charge = 0, multiplicity = 1:

       Center              X                  Y                   Z               Mass       
    ------------   -----------------  -----------------  -----------------  -----------------
         N            0.000000000000     0.000000000000    -1.200675643962    14.003074004430
         N            0.000000000000     0.000000000000    -0.072431981455    14.003074004430
         O            0.000000000000     0.000000000000     1.114568018545    15.994914619570

  Running in c2v symmetry.

  Rotational constants: A = ************  B =      0.42007  C =      0.42007 [cm^-1]
  Rotational constants: A = ************  B =  12593.39628  C =  12593.39628 [MHz]
  Nuclear repulsion =   60.747222191684749

  Charge       = 0
  Multiplicity = 1
  Electrons    = 22
  Nalpha       = 11
  Nbeta        = 11

  ==> Algorithm <==

  SCF Algorithm Type is DF.
  DIIS enabled.
  MOM disabled.
  Fractional occupation disabled.
  Guess Type is SAD.
  Energy threshold   = 1.00e-08
  Density threshold  = 1.00e-08
  Integral threshold = 0.00e+00

  ==> Primary Basis <==

  Basis Set: AUG-CC-PV(Q+D)Z
    Blend: AUG-CC-PV(Q+D)Z
    Number of shells: 60
    Number of basis function: 240
    Number of Cartesian functions: 315
    Spherical Harmonics?: true
    Max angular momentum: 4

  ==> DFT Potential <==

   => Composite Functional: WB97X-V <= 

    wB97X-V Hyb-GGA Exchange-Correlation Functional

    N. Mardirossian and M. Head-Gordon, Phys. Chem. Chem. Phys. 16, 9904 (2014)

    Deriv               =              1
    GGA                 =           TRUE
    Meta                =          FALSE

    Exchange Hybrid     =           TRUE
    MP2 Hybrid          =          FALSE

   => Exchange-Correlation Functionals <=

    1.0000   wB97X-V range-separated functional

   => Exact (HF) Exchange <=

    0.8330            HF,LR [omega = 0.3000]
    0.1670               HF 

   => VV10 Non-Local Parameters <=

    VV10 B              =     6.0000E+00
    VV10 C              =     1.0000E-02

   => Molecular Quadrature <=

    Radial Scheme          =       TREUTLER
    Pruning Scheme         =           FLAT
    Nuclear Scheme         =       TREUTLER

    BS radius alpha        =              1
    Pruning alpha          =              1
    Radial Points          =             75
    Spherical Points       =            302
    Total Points           =          67950
    Total Blocks           =            590
    Max Points             =            255
    Max Functions          =            240

   => Loading Basis Set <=

    Name: (AUG-CC-PV(Q+D)Z AUX)
    Role: JKFIT
    Keyword: DF_BASIS_SCF
    atoms 1-2 entry N          line   248 file /work/zw18965/.conda/envs/p4env/share/psi4/basis/aug-cc-pvqz-jkfit.gbs 
    atoms 3   entry O          line   318 file /work/zw18965/.conda/envs/p4env/share/psi4/basis/aug-cc-pvqz-jkfit.gbs 

  ==> Pre-Iterations <==

   -------------------------------------------------------
    Irrep   Nso     Nmo     Nalpha   Nbeta   Ndocc  Nsocc
   -------------------------------------------------------
     A1        93      93       0       0       0       0
     A2        33      33       0       0       0       0
     B1        57      57       0       0       0       0
     B2        57      57       0       0       0       0
   -------------------------------------------------------
    Total     240     240      11      11      11       0
   -------------------------------------------------------

  ==> Integral Setup <==

  ==> DiskDFJK: Density-Fitted J/K Matrices <==

    J tasked:                  Yes
    K tasked:                  Yes
    wK tasked:                 Yes
    Omega:               3.000E-01
    OpenMP threads:             24
    Integrals threads:          24
    Memory [MiB]:           102581
    Algorithm:                Core
    Integral Cache:           NONE
    Schwarz Cutoff:          1E-12
    Fitting Condition:       1E-10

   => Auxiliary Basis Set <=

  Basis Set: (AUG-CC-PV(Q+D)Z AUX)
    Blend: AUG-CC-PVQZ-JKFIT
    Number of shells: 102
    Number of basis function: 426
    Number of Cartesian functions: 594
    Spherical Harmonics?: true
    Max angular momentum: 5

  Cached 100.0% of DFT collocation blocks in 0.405 [GiB].

  Minimum eigenvalue in the overlap matrix is 1.7720668533E-05.
  Using Symmetric Orthogonalization.

  SCF Guess: Superposition of Atomic Densities via on-the-fly atomic UHF.

  ==> Iterations <==

                           Total Energy        Delta E     RMS |[F,P]|

   @DF-RKS iter SAD:  -184.15620702587341   -1.84156e+02   0.00000e+00 
   @DF-RKS iter   1:  -184.59546668168659   -4.39260e-01   4.05760e-03 DIIS
   @DF-RKS iter   2:  -184.55710748238405    3.83592e-02   4.95191e-03 DIIS
   @DF-RKS iter   3:  -184.68273951641200   -1.25632e-01   6.86369e-04 DIIS
   @DF-RKS iter   4:  -184.68435938414535   -1.61987e-03   4.33485e-04 DIIS
   @DF-RKS iter   5:  -184.68542192854812   -1.06254e-03   5.46429e-05 DIIS
   @DF-RKS iter   6:  -184.68544460099014   -2.26724e-05   1.36537e-05 DIIS
   @DF-RKS iter   7:  -184.68544610854738   -1.50756e-06   2.42612e-06 DIIS
   @DF-RKS iter   8:  -184.68544619735928   -8.88119e-08   3.98866e-07 DIIS
   @DF-RKS iter   9:  -184.68544619964246   -2.28317e-09   7.45238e-08 DIIS
   @DF-RKS iter  10:  -184.68544619970692   -6.44604e-11   1.64331e-08 DIIS
   @DF-RKS iter  11:  -184.68544619970965   -2.72848e-12   1.32172e-09 DIIS
  Energy and wave function converged.


  ==> Post-Iterations <==

    Orbital Energies [Eh]
    ---------------------

    Doubly Occupied:                                                      

       1A1   -19.311151     2A1   -14.647404     3A1   -14.512607  
       4A1    -1.380572     5A1    -1.219039     6A1    -0.725136  
       1B2    -0.688222     1B1    -0.688222     7A1    -0.599095  
       2B1    -0.447973     2B2    -0.447973  

    Virtual:                                                              

       8A1     0.052236     3B2     0.064792     3B1     0.064792  
       9A1     0.076118     4B2     0.113451     4B1     0.113451  
      10A1     0.120130     5B2     0.131216     5B1     0.131216  
      11A1     0.191632     6B2     0.199120     6B1     0.199120  
      12A1     0.212004    13A1     0.247058    14A1     0.284444  
       1A2     0.284446    15A1     0.329192    16A1     0.346583  
       7B2     0.378273     7B1     0.378273     2A2     0.389464  
      17A1     0.389466    18A1     0.439081     8B2     0.479514  
       8B1     0.479514     9B2     0.503343     9B1     0.503343  
      19A1     0.565738    20A1     0.602182     3A2     0.602190  
      10B2     0.614152    10B1     0.614152    21A1     0.616842  
      22A1     0.717170    23A1     0.743369    11B2     0.782976  
      11B1     0.782976    24A1     0.849919    25A1     0.874497  
       4A2     0.874500    12B2     0.878542    12B1     0.878542  
      13B2     0.930998    13B1     0.930998    26A1     0.931102  
      27A1     0.936100     5A2     0.936103    14B2     1.085649  
      14B1     1.085649    15B2     1.098871    15B1     1.098871  
      28A1     1.118931    29A1     1.236731     6A2     1.236735  
      16B2     1.299680    16B1     1.299680    30A1     1.301852  
      31A1     1.332929    32A1     1.461297     7A2     1.461298  
      17B1     1.468054    17B2     1.468054    18B2     1.480543  
      18B1     1.480543    33A1     1.486421    34A1     1.595507  
      19B2     1.641789    19B1     1.641789    35A1     1.659670  
       8A2     1.659672    36A1     1.781257    20B2     1.814721  
      20B1     1.814721    21B2     1.898813    21B1     1.898813  
      37A1     1.912228     9A2     1.975452    38A1     1.975452  
      39A1     2.083581    22B2     2.211155    22B1     2.211155  
      10A2     2.513566    40A1     2.513570    41A1     2.660623  
      11A2     2.660625    23B1     2.664981    23B2     2.664981  
      24B2     2.732870    24B1     2.732870    42A1     2.777677  
      43A1     2.796936    44A1     2.870676    25B1     2.888369  
      25B2     2.888369    26B2     2.907533    26B1     2.907533  
      12A2     2.922287    45A1     2.922292    13A2     2.947887  
      46A1     2.947894    27B2     3.008311    27B1     3.008311  
      14A2     3.019756    47A1     3.019759    28B2     3.095291  
      28B1     3.095291    48A1     3.105109    49A1     3.152476  
      15A2     3.152485    29B2     3.215727    29B1     3.215727  
      50A1     3.261956    30B2     3.435865    30B1     3.435865  
      51A1     3.525587    52A1     3.602637    16A2     3.602641  
      31B2     3.668931    31B1     3.668931    53A1     3.795294  
      17A2     3.809016    54A1     3.809018    32B2     3.929412  
      32B1     3.929412    33B2     3.932435    33B1     3.932435  
      55A1     4.023834    34B2     4.123352    34B1     4.123352  
      18A2     4.197999    56A1     4.198000    57A1     4.364238  
      19A2     4.487340    58A1     4.487342    35B2     4.536569  
      35B1     4.536569    36B2     4.566310    36B1     4.566310  
      59A1     4.863356    20A2     5.157909    60A1     5.157911  
      37B1     5.254528    37B2     5.254528    61A1     5.261907  
      62A1     5.321231    63A1     5.556339    21A2     5.556359  
      38B2     5.827520    38B1     5.827520    64A1     5.887852  
      65A1     6.044186    39B2     6.170976    39B1     6.170976  
      66A1     6.913500    40B1     7.487000    40B2     7.487000  
      67A1     7.527819    22A2     7.527821    41B2     7.661617  
      41B1     7.661617    23A2     7.706525    68A1     7.706552  
      24A2     8.015698    69A1     8.015727    70A1     8.030838  
      42B2     8.145538    42B1     8.145538    71A1     8.358660  
      25A2     8.358671    43B2     8.364510    43B1     8.364510  
      44B1     8.470807    44B2     8.470807    72A1     8.552199  
      45B1     8.677506    45B2     8.677506    46B2     8.743583  
      46B1     8.743583    73A1     8.809253    74A1     8.911072  
      26A2     8.911083    47B2     8.971101    47B1     8.971101  
      75A1     9.242113    27A2     9.242125    76A1     9.245354  
      48B2     9.358604    48B1     9.358604    77A1     9.910537  
      28A2    10.042708    78A1    10.042711    79A1    10.180607  
      29A2    10.180620    80A1    10.228755    30A2    10.228844  
      49B2    10.244420    49B1    10.244420    50B2    10.506515  
      50B1    10.506515    51B2    10.779928    51B1    10.779928  
      52B2    10.896099    52B1    10.896099    81A1    11.055358  
      31A2    11.169067    82A1    11.169076    83A1    11.242380  
      53B2    11.446604    53B1    11.446604    54B2    11.600576  
      54B1    11.600576    84A1    11.966525    55B2    12.032780  
      55B1    12.032780    85A1    12.106090    32A2    12.106091  
      33A2    12.559695    86A1    12.559732    87A1    12.621497  
      56B2    13.251458    56B1    13.251458    88A1    13.504987  
      57B1    14.600500    57B2    14.600500    89A1    15.292833  
      90A1    15.991123    91A1    32.970374    92A1    33.848761  
      93A1    42.548185  

    Final Occupation by Irrep:
             A1    A2    B1    B2 
    DOCC [     7,    0,    2,    2 ]

  @DF-RKS Final Energy:  -184.68544619970965

   => Energetics <=

    Nuclear Repulsion Energy =             60.7472221916847488
    One-Electron Energy =                -370.8707576232272345
    Two-Electron Energy =                 141.1978873056212080
    DFT Exchange-Correlation Energy =     -15.8510247876189023
    Empirical Dispersion Energy =           0.0000000000000000
    VV10 Nonlocal Energy =                  0.0912267138305532
    Total Energy =                       -184.6854461997096450

Computation Completed


Properties will be evaluated at   0.000000,   0.000000,   0.000000 [a0]

Properties computed using the SCF density matrix

  Nuclear Dipole Moment: [e a0]
     X:     0.0000      Y:     0.0000      Z:     0.0091

  Electronic Dipole Moment: [e a0]
     X:     0.0000      Y:     0.0000      Z:    -0.0770

  Dipole Moment: [e a0]
     X:     0.0000      Y:     0.0000      Z:    -0.0679     Total:     0.0679

  Dipole Moment: [D]
     X:     0.0000      Y:     0.0000      Z:    -0.1727     Total:     0.1727


*** tstop() called on bp1-compute00067.data.bp.acrc.priv at Tue Apr 27 16:38:36 2021
Module time:
	user time   =     121.22 seconds =       2.02 minutes
	system time =       5.64 seconds =       0.09 minutes
	total time  =          5 seconds =       0.08 minutes
Total time:
	user time   =     371.79 seconds =       6.20 minutes
	system time =      16.28 seconds =       0.27 minutes
	total time  =         17 seconds =       0.28 minutes

  //>>>>>>>>>>>>>>>>>>>>>>>>>>>>>>>>>>>//
  //    Loading displacement 4 of 5    //
  //<<<<<<<<<<<<<<<<<<<<<<<<<<<<<<<<<<<//

*** tstart() called on bp1-compute00067.data.bp.acrc.priv
*** at Tue Apr 27 16:38:36 2021

   => Loading Basis Set <=

    Name: AUG-CC-PV(Q+D)Z
    Role: ORBITAL
    Keyword: BASIS
    atoms 1-2 entry N          line   379 file /work/zw18965/.conda/envs/p4env/share/psi4/basis/aug-cc-pv_qpd_z.gbs 
    atoms 3   entry O          line   439 file /work/zw18965/.conda/envs/p4env/share/psi4/basis/aug-cc-pv_qpd_z.gbs 


         ---------------------------------------------------------
                                   SCF
               by Justin Turney, Rob Parrish, Andy Simmonett
                          and Daniel G. A. Smith
                              RKS Reference
                       24 Threads, 137329 MiB Core
         ---------------------------------------------------------

  ==> Geometry <==

    Molecular point group: c2v
    Full point group: C_inf_v

    Geometry (in Angstrom), charge = 0, multiplicity = 1:

       Center              X                  Y                   Z               Mass       
    ------------   -----------------  -----------------  -----------------  -----------------
         N            0.000000000000     0.000000000000    -1.201259457189    14.003074004430
         N            0.000000000000     0.000000000000    -0.072675759823    14.003074004430
         O            0.000000000000     0.000000000000     1.115292550474    15.994914619570

  Running in c2v symmetry.

  Rotational constants: A = ************  B =      0.41959  C =      0.41959 [cm^-1]
  Rotational constants: A = ************  B =  12578.98593  C =  12578.98593 [MHz]
  Nuclear repulsion =   60.712719616640349

  Charge       = 0
  Multiplicity = 1
  Electrons    = 22
  Nalpha       = 11
  Nbeta        = 11

  ==> Algorithm <==

  SCF Algorithm Type is DF.
  DIIS enabled.
  MOM disabled.
  Fractional occupation disabled.
  Guess Type is SAD.
  Energy threshold   = 1.00e-08
  Density threshold  = 1.00e-08
  Integral threshold = 0.00e+00

  ==> Primary Basis <==

  Basis Set: AUG-CC-PV(Q+D)Z
    Blend: AUG-CC-PV(Q+D)Z
    Number of shells: 60
    Number of basis function: 240
    Number of Cartesian functions: 315
    Spherical Harmonics?: true
    Max angular momentum: 4

  ==> DFT Potential <==

   => Composite Functional: WB97X-V <= 

    wB97X-V Hyb-GGA Exchange-Correlation Functional

    N. Mardirossian and M. Head-Gordon, Phys. Chem. Chem. Phys. 16, 9904 (2014)

    Deriv               =              1
    GGA                 =           TRUE
    Meta                =          FALSE

    Exchange Hybrid     =           TRUE
    MP2 Hybrid          =          FALSE

   => Exchange-Correlation Functionals <=

    1.0000   wB97X-V range-separated functional

   => Exact (HF) Exchange <=

    0.8330            HF,LR [omega = 0.3000]
    0.1670               HF 

   => VV10 Non-Local Parameters <=

    VV10 B              =     6.0000E+00
    VV10 C              =     1.0000E-02

   => Molecular Quadrature <=

    Radial Scheme          =       TREUTLER
    Pruning Scheme         =           FLAT
    Nuclear Scheme         =       TREUTLER

    BS radius alpha        =              1
    Pruning alpha          =              1
    Radial Points          =             75
    Spherical Points       =            302
    Total Points           =          67950
    Total Blocks           =            590
    Max Points             =            255
    Max Functions          =            240

   => Loading Basis Set <=

    Name: (AUG-CC-PV(Q+D)Z AUX)
    Role: JKFIT
    Keyword: DF_BASIS_SCF
    atoms 1-2 entry N          line   248 file /work/zw18965/.conda/envs/p4env/share/psi4/basis/aug-cc-pvqz-jkfit.gbs 
    atoms 3   entry O          line   318 file /work/zw18965/.conda/envs/p4env/share/psi4/basis/aug-cc-pvqz-jkfit.gbs 

  ==> Pre-Iterations <==

   -------------------------------------------------------
    Irrep   Nso     Nmo     Nalpha   Nbeta   Ndocc  Nsocc
   -------------------------------------------------------
     A1        93      93       0       0       0       0
     A2        33      33       0       0       0       0
     B1        57      57       0       0       0       0
     B2        57      57       0       0       0       0
   -------------------------------------------------------
    Total     240     240      11      11      11       0
   -------------------------------------------------------

  ==> Integral Setup <==

  ==> DiskDFJK: Density-Fitted J/K Matrices <==

    J tasked:                  Yes
    K tasked:                  Yes
    wK tasked:                 Yes
    Omega:               3.000E-01
    OpenMP threads:             24
    Integrals threads:          24
    Memory [MiB]:           102582
    Algorithm:                Core
    Integral Cache:           NONE
    Schwarz Cutoff:          1E-12
    Fitting Condition:       1E-10

   => Auxiliary Basis Set <=

  Basis Set: (AUG-CC-PV(Q+D)Z AUX)
    Blend: AUG-CC-PVQZ-JKFIT
    Number of shells: 102
    Number of basis function: 426
    Number of Cartesian functions: 594
    Spherical Harmonics?: true
    Max angular momentum: 5

  Cached 100.0% of DFT collocation blocks in 0.405 [GiB].

  Minimum eigenvalue in the overlap matrix is 1.7755288626E-05.
  Using Symmetric Orthogonalization.

  SCF Guess: Superposition of Atomic Densities via on-the-fly atomic UHF.

  ==> Iterations <==

                           Total Energy        Delta E     RMS |[F,P]|

   @DF-RKS iter SAD:  -184.15322785291852   -1.84153e+02   0.00000e+00 
   @DF-RKS iter   1:  -184.59542253828334   -4.42195e-01   4.05740e-03 DIIS
   @DF-RKS iter   2:  -184.55685161596247    3.85709e-02   4.95652e-03 DIIS
   @DF-RKS iter   3:  -184.68272046704777   -1.25869e-01   6.83286e-04 DIIS
   @DF-RKS iter   4:  -184.68431583193103   -1.59536e-03   4.33573e-04 DIIS
   @DF-RKS iter   5:  -184.68537925280697   -1.06342e-03   5.47045e-05 DIIS
   @DF-RKS iter   6:  -184.68540202474892   -2.27719e-05   1.37038e-05 DIIS
   @DF-RKS iter   7:  -184.68540354571860   -1.52097e-06   2.44320e-06 DIIS
   @DF-RKS iter   8:  -184.68540363577529   -9.00567e-08   4.01329e-07 DIIS
   @DF-RKS iter   9:  -184.68540363808862   -2.31333e-09   7.48634e-08 DIIS
   @DF-RKS iter  10:  -184.68540363815330   -6.46878e-11   1.65211e-08 DIIS
   @DF-RKS iter  11:  -184.68540363815626   -2.95586e-12   1.33057e-09 DIIS
  Energy and wave function converged.


  ==> Post-Iterations <==

    Orbital Energies [Eh]
    ---------------------

    Doubly Occupied:                                                      

       1A1   -19.311159     2A1   -14.647486     3A1   -14.512920  
       4A1    -1.379923     5A1    -1.218788     6A1    -0.725155  
       1B2    -0.687881     1B1    -0.687881     7A1    -0.599231  
       2B2    -0.447968     2B1    -0.447968  

    Virtual:                                                              

       8A1     0.052216     3B2     0.064511     3B1     0.064511  
       9A1     0.076105     4B2     0.113376     4B1     0.113376  
      10A1     0.120125     5B2     0.131203     5B1     0.131203  
      11A1     0.191638     6B2     0.199117     6B1     0.199117  
      12A1     0.211690    13A1     0.247022    14A1     0.284436  
       1A2     0.284438    15A1     0.329027    16A1     0.346162  
       7B2     0.378294     7B1     0.378294     2A2     0.389458  
      17A1     0.389460    18A1     0.438990     8B2     0.479532  
       8B1     0.479532     9B2     0.503339     9B1     0.503339  
      19A1     0.565664    20A1     0.602172     3A2     0.602180  
      10B2     0.614138    10B1     0.614138    21A1     0.616787  
      22A1     0.717026    23A1     0.743360    11B2     0.782876  
      11B1     0.782876    24A1     0.849903    25A1     0.874520  
       4A2     0.874522    12B2     0.878517    12B1     0.878517  
      26A1     0.930342    13B2     0.931059    13B1     0.931059  
      27A1     0.936168     5A2     0.936171    14B2     1.085406  
      14B1     1.085406    15B1     1.098820    15B2     1.098820  
      28A1     1.118578    29A1     1.236543     6A2     1.236547  
      16B2     1.299665    16B1     1.299665    30A1     1.301641  
      31A1     1.332804    32A1     1.461264     7A2     1.461265  
      17B1     1.467879    17B2     1.467879    18B2     1.480394  
      18B1     1.480394    33A1     1.486223    34A1     1.595308  
      19B2     1.641457    19B1     1.641457    35A1     1.659495  
       8A2     1.659497    36A1     1.781429    20B1     1.814339  
      20B2     1.814339    21B2     1.899143    21B1     1.899143  
      37A1     1.912747     9A2     1.975443    38A1     1.975443  
      39A1     2.083067    22B2     2.211483    22B1     2.211483  
      10A2     2.513565    40A1     2.513569    41A1     2.660540  
      11A2     2.660542    23B1     2.664906    23B2     2.664906  
      24B2     2.732752    24B1     2.732752    42A1     2.777234  
      43A1     2.796653    44A1     2.869503    25B1     2.888251  
      25B2     2.888251    26B1     2.907409    26B2     2.907409  
      12A2     2.922196    45A1     2.922201    13A2     2.947985  
      46A1     2.947991    27B2     3.008105    27B1     3.008105  
      14A2     3.019349    47A1     3.019352    28B1     3.094778  
      28B2     3.094778    48A1     3.105058    49A1     3.152212  
      15A2     3.152221    29B2     3.215078    29B1     3.215078  
      50A1     3.260693    30B2     3.434657    30B1     3.434657  
      51A1     3.525926    52A1     3.602371    16A2     3.602376  
      31B2     3.668246    31B1     3.668246    53A1     3.795639  
      17A2     3.808980    54A1     3.808982    32B2     3.929073  
      32B1     3.929073    33B1     3.932210    33B2     3.932210  
      55A1     4.023322    34B2     4.124025    34B1     4.124025  
      18A2     4.197167    56A1     4.197168    57A1     4.363697  
      19A2     4.486358    58A1     4.486360    35B1     4.535573  
      35B2     4.535573    36B1     4.564688    36B2     4.564688  
      59A1     4.860903    20A2     5.157175    60A1     5.157176  
      37B1     5.254917    37B2     5.254917    61A1     5.259549  
      62A1     5.320020    63A1     5.554881    21A2     5.554900  
      38B1     5.825903    38B2     5.825903    64A1     5.886297  
      65A1     6.042132    39B1     6.170458    39B2     6.170458  
      66A1     6.914785    40B2     7.487312    40B1     7.487312  
      67A1     7.527392    22A2     7.527394    41B1     7.661063  
      41B2     7.661063    23A2     7.706687    68A1     7.706715  
      24A2     8.015422    69A1     8.015452    70A1     8.029959  
      42B2     8.144202    42B1     8.144202    71A1     8.359534  
      25A2     8.359545    43B2     8.363392    43B1     8.363392  
      44B1     8.470943    44B2     8.470943    72A1     8.551611  
      45B2     8.677268    45B1     8.677268    46B2     8.742336  
      46B1     8.742336    73A1     8.807217    74A1     8.911130  
      26A2     8.911141    47B1     8.970448    47B2     8.970448  
      75A1     9.241297    27A2     9.241309    76A1     9.245092  
      48B1     9.359203    48B2     9.359203    77A1     9.908642  
      28A2    10.040702    78A1    10.040706    79A1    10.178844  
      29A2    10.178856    80A1    10.228844    30A2    10.228934  
      49B1    10.241260    49B2    10.241260    50B1    10.505650  
      50B2    10.505650    51B2    10.779360    51B1    10.779360  
      52B1    10.894570    52B2    10.894570    81A1    11.054280  
      31A2    11.165670    82A1    11.165680    83A1    11.240253  
      53B2    11.446303    53B1    11.446303    54B1    11.598601  
      54B2    11.598601    84A1    11.962063    55B2    12.032012  
      55B1    12.032012    85A1    12.105287    32A2    12.105289  
      33A2    12.557819    86A1    12.557856    87A1    12.618832  
      56B1    13.246362    56B2    13.246362    88A1    13.502907  
      57B2    14.591963    57B1    14.591963    89A1    15.282855  
      90A1    15.988331    91A1    32.959113    92A1    33.844666  
      93A1    42.543515  

    Final Occupation by Irrep:
             A1    A2    B1    B2 
    DOCC [     7,    0,    2,    2 ]

  @DF-RKS Final Energy:  -184.68540363815626

   => Energetics <=

    Nuclear Repulsion Energy =             60.7127196166403493
    One-Electron Energy =                -370.8043692043445958
    Two-Electron Energy =                 141.1650304297443768
    DFT Exchange-Correlation Energy =     -15.8500116739990595
    Empirical Dispersion Energy =           0.0000000000000000
    VV10 Nonlocal Energy =                  0.0912271938026823
    Total Energy =                       -184.6854036381562310

Computation Completed


Properties will be evaluated at   0.000000,   0.000000,   0.000000 [a0]

Properties computed using the SCF density matrix

  Nuclear Dipole Moment: [e a0]
     X:     0.0000      Y:     0.0000      Z:     0.0091

  Electronic Dipole Moment: [e a0]
     X:     0.0000      Y:     0.0000      Z:    -0.0792

  Dipole Moment: [e a0]
     X:     0.0000      Y:     0.0000      Z:    -0.0702     Total:     0.0702

  Dipole Moment: [D]
     X:     0.0000      Y:     0.0000      Z:    -0.1784     Total:     0.1784


*** tstop() called on bp1-compute00067.data.bp.acrc.priv at Tue Apr 27 16:38:42 2021
Module time:
	user time   =     121.54 seconds =       2.03 minutes
	system time =       6.99 seconds =       0.12 minutes
	total time  =          6 seconds =       0.10 minutes
Total time:
	user time   =     493.49 seconds =       8.22 minutes
	system time =      23.29 seconds =       0.39 minutes
	total time  =         23 seconds =       0.38 minutes

  //>>>>>>>>>>>>>>>>>>>>>>>>>>>>>>>>>>>//
  //    Loading displacement 5 of 5    //
  //<<<<<<<<<<<<<<<<<<<<<<<<<<<<<<<<<<<//

*** tstart() called on bp1-compute00067.data.bp.acrc.priv
*** at Tue Apr 27 16:38:42 2021

   => Loading Basis Set <=

    Name: AUG-CC-PV(Q+D)Z
    Role: ORBITAL
    Keyword: BASIS
    atoms 1-2 entry N          line   379 file /work/zw18965/.conda/envs/p4env/share/psi4/basis/aug-cc-pv_qpd_z.gbs 
    atoms 3   entry O          line   439 file /work/zw18965/.conda/envs/p4env/share/psi4/basis/aug-cc-pv_qpd_z.gbs 


         ---------------------------------------------------------
                                   SCF
               by Justin Turney, Rob Parrish, Andy Simmonett
                          and Daniel G. A. Smith
                              RKS Reference
                       24 Threads, 137329 MiB Core
         ---------------------------------------------------------

  ==> Geometry <==

    Molecular point group: c2v
    Full point group: C_inf_v

    Geometry (in Angstrom), charge = 0, multiplicity = 1:

       Center              X                  Y                   Z               Mass       
    ------------   -----------------  -----------------  -----------------  -----------------
         N            0.000000000000     0.000000000000    -1.201259457189    14.003074004430
         N            0.000000000000     0.000000000000    -0.071643154556    14.003074004430
         O            0.000000000000     0.000000000000     1.114388535147    15.994914619570

  Running in c2v symmetry.

  Rotational constants: A = ************  B =      0.41995  C =      0.41995 [cm^-1]
  Rotational constants: A = ************  B =  12589.74274  C =  12589.74274 [MHz]
  Nuclear repulsion =   60.737443041049701

  Charge       = 0
  Multiplicity = 1
  Electrons    = 22
  Nalpha       = 11
  Nbeta        = 11

  ==> Algorithm <==

  SCF Algorithm Type is DF.
  DIIS enabled.
  MOM disabled.
  Fractional occupation disabled.
  Guess Type is SAD.
  Energy threshold   = 1.00e-08
  Density threshold  = 1.00e-08
  Integral threshold = 0.00e+00

  ==> Primary Basis <==

  Basis Set: AUG-CC-PV(Q+D)Z
    Blend: AUG-CC-PV(Q+D)Z
    Number of shells: 60
    Number of basis function: 240
    Number of Cartesian functions: 315
    Spherical Harmonics?: true
    Max angular momentum: 4

  ==> DFT Potential <==

   => Composite Functional: WB97X-V <= 

    wB97X-V Hyb-GGA Exchange-Correlation Functional

    N. Mardirossian and M. Head-Gordon, Phys. Chem. Chem. Phys. 16, 9904 (2014)

    Deriv               =              1
    GGA                 =           TRUE
    Meta                =          FALSE

    Exchange Hybrid     =           TRUE
    MP2 Hybrid          =          FALSE

   => Exchange-Correlation Functionals <=

    1.0000   wB97X-V range-separated functional

   => Exact (HF) Exchange <=

    0.8330            HF,LR [omega = 0.3000]
    0.1670               HF 

   => VV10 Non-Local Parameters <=

    VV10 B              =     6.0000E+00
    VV10 C              =     1.0000E-02

   => Molecular Quadrature <=

    Radial Scheme          =       TREUTLER
    Pruning Scheme         =           FLAT
    Nuclear Scheme         =       TREUTLER

    BS radius alpha        =              1
    Pruning alpha          =              1
    Radial Points          =             75
    Spherical Points       =            302
    Total Points           =          67950
    Total Blocks           =            590
    Max Points             =            254
    Max Functions          =            240

   => Loading Basis Set <=

    Name: (AUG-CC-PV(Q+D)Z AUX)
    Role: JKFIT
    Keyword: DF_BASIS_SCF
    atoms 1-2 entry N          line   248 file /work/zw18965/.conda/envs/p4env/share/psi4/basis/aug-cc-pvqz-jkfit.gbs 
    atoms 3   entry O          line   318 file /work/zw18965/.conda/envs/p4env/share/psi4/basis/aug-cc-pvqz-jkfit.gbs 

  ==> Pre-Iterations <==

   -------------------------------------------------------
    Irrep   Nso     Nmo     Nalpha   Nbeta   Ndocc  Nsocc
   -------------------------------------------------------
     A1        93      93       0       0       0       0
     A2        33      33       0       0       0       0
     B1        57      57       0       0       0       0
     B2        57      57       0       0       0       0
   -------------------------------------------------------
    Total     240     240      11      11      11       0
   -------------------------------------------------------

  ==> Integral Setup <==

  ==> DiskDFJK: Density-Fitted J/K Matrices <==

    J tasked:                  Yes
    K tasked:                  Yes
    wK tasked:                 Yes
    Omega:               3.000E-01
    OpenMP threads:             24
    Integrals threads:          24
    Memory [MiB]:           102581
    Algorithm:                Core
    Integral Cache:           NONE
    Schwarz Cutoff:          1E-12
    Fitting Condition:       1E-10

   => Auxiliary Basis Set <=

  Basis Set: (AUG-CC-PV(Q+D)Z AUX)
    Blend: AUG-CC-PVQZ-JKFIT
    Number of shells: 102
    Number of basis function: 426
    Number of Cartesian functions: 594
    Spherical Harmonics?: true
    Max angular momentum: 5

  Cached 100.0% of DFT collocation blocks in 0.405 [GiB].

  Minimum eigenvalue in the overlap matrix is 1.7786250341E-05.
  Using Symmetric Orthogonalization.

  SCF Guess: Superposition of Atomic Densities via on-the-fly atomic UHF.

  ==> Iterations <==

                           Total Energy        Delta E     RMS |[F,P]|

   @DF-RKS iter SAD:  -184.15562110540475   -1.84156e+02   0.00000e+00 
   @DF-RKS iter   1:  -184.59530141677229   -4.39680e-01   4.05836e-03 DIIS
   @DF-RKS iter   2:  -184.55622471367980    3.90767e-02   4.96395e-03 DIIS
   @DF-RKS iter   3:  -184.68259809606189   -1.26373e-01   6.95777e-04 DIIS
   @DF-RKS iter   4:  -184.68427769356470   -1.67960e-03   4.36534e-04 DIIS
   @DF-RKS iter   5:  -184.68535583118768   -1.07814e-03   5.42765e-05 DIIS
   @DF-RKS iter   6:  -184.68537821625833   -2.23851e-05   1.36092e-05 DIIS
   @DF-RKS iter   7:  -184.68537971108844   -1.49483e-06   2.41265e-06 DIIS
   @DF-RKS iter   8:  -184.68537979883524   -8.77468e-08   3.97325e-07 DIIS
   @DF-RKS iter   9:  -184.68537980109988   -2.26464e-09   7.46656e-08 DIIS
   @DF-RKS iter  10:  -184.68537980116429   -6.44036e-11   1.65286e-08 DIIS
   @DF-RKS iter  11:  -184.68537980116724   -2.95586e-12   1.33201e-09 DIIS
  Energy and wave function converged.


  ==> Post-Iterations <==

    Orbital Energies [Eh]
    ---------------------

    Doubly Occupied:                                                      

       1A1   -19.311479     2A1   -14.647561     3A1   -14.512589  
       4A1    -1.381059     5A1    -1.218447     6A1    -0.725400  
       1B2    -0.688211     1B1    -0.688211     7A1    -0.599002  
       2B1    -0.447873     2B2    -0.447873  

    Virtual:                                                              

       8A1     0.052234     3B2     0.064594     3B1     0.064594  
       9A1     0.076130     4B2     0.113402     4B1     0.113402  
      10A1     0.120120     5B2     0.131206     5B1     0.131206  
      11A1     0.191618     6B2     0.199085     6B1     0.199085  
      12A1     0.212066    13A1     0.247118    14A1     0.284462  
       1A2     0.284464    15A1     0.329222    16A1     0.346615  
       7B2     0.378234     7B1     0.378234     2A2     0.389495  
      17A1     0.389497    18A1     0.439114     8B2     0.479501  
       8B1     0.479501     9B2     0.503465     9B1     0.503465  
      19A1     0.565591    20A1     0.602074     3A2     0.602083  
      10B2     0.614051    10B1     0.614051    21A1     0.616975  
      22A1     0.717134    23A1     0.743263    11B2     0.782854  
      11B1     0.782854    24A1     0.849753    25A1     0.874595  
       4A2     0.874597    12B1     0.878570    12B2     0.878570  
      26A1     0.930644    13B1     0.930967    13B2     0.930967  
      27A1     0.936240     5A2     0.936243    14B2     1.085743  
      14B1     1.085743    15B1     1.098840    15B2     1.098840  
      28A1     1.118297    29A1     1.236656     6A2     1.236660  
      16B2     1.299530    16B1     1.299530    30A1     1.301811  
      31A1     1.332491    32A1     1.460892     7A2     1.460893  
      17B1     1.467971    17B2     1.467971    18B2     1.480151  
      18B1     1.480151    33A1     1.486788    34A1     1.595498  
      19B2     1.641713    19B1     1.641713    35A1     1.659574  
       8A2     1.659576    36A1     1.780705    20B2     1.814841  
      20B1     1.814841    21B1     1.898534    21B2     1.898534  
      37A1     1.911826     9A2     1.975619    38A1     1.975620  
      39A1     2.083783    22B1     2.211700    22B2     2.211700  
      10A2     2.513733    40A1     2.513736    41A1     2.660921  
      11A2     2.660924    23B2     2.665013    23B1     2.665013  
      24B1     2.732717    24B2     2.732717    42A1     2.777048  
      43A1     2.797975    44A1     2.870544    25B1     2.888369  
      25B2     2.888369    26B2     2.907190    26B1     2.907190  
      12A2     2.921913    45A1     2.921918    13A2     2.947761  
      46A1     2.947767    27B1     3.008432    27B2     3.008432  
      14A2     3.020074    47A1     3.020077    28B1     3.095008  
      28B2     3.095008    48A1     3.104069    49A1     3.152086  
      15A2     3.152094    29B1     3.216250    29B2     3.216250  
      50A1     3.261578    30B2     3.435229    30B1     3.435229  
      51A1     3.525038    52A1     3.602596    16A2     3.602600  
      31B2     3.667925    31B1     3.667925    53A1     3.795023  
      17A2     3.808150    54A1     3.808152    32B1     3.928728  
      32B2     3.928728    33B1     3.932164    33B2     3.932164  
      55A1     4.023583    34B1     4.122397    34B2     4.122397  
      18A2     4.197738    56A1     4.197739    57A1     4.363890  
      19A2     4.486605    58A1     4.486606    35B2     4.536447  
      35B1     4.536447    36B2     4.566551    36B1     4.566551  
      59A1     4.862364    20A2     5.157045    60A1     5.157046  
      37B1     5.254078    37B2     5.254078    61A1     5.263252  
      62A1     5.317844    63A1     5.557268    21A2     5.557287  
      38B1     5.828001    38B2     5.828001    64A1     5.889782  
      65A1     6.043792    39B2     6.172472    39B1     6.172472  
      66A1     6.910107    40B2     7.488438    40B1     7.488438  
      67A1     7.527740    22A2     7.527742    41B1     7.661547  
      41B2     7.661547    23A2     7.707283    68A1     7.707310  
      24A2     8.015160    69A1     8.015189    70A1     8.030550  
      42B1     8.145332    42B2     8.145332    71A1     8.359498  
      25A2     8.359509    43B1     8.364962    43B2     8.364962  
      44B1     8.469741    44B2     8.469741    72A1     8.552974  
      45B2     8.677265    45B1     8.677265    46B2     8.743011  
      46B1     8.743011    73A1     8.806573    74A1     8.910785  
      26A2     8.910796    47B2     8.969081    47B1     8.969081  
      75A1     9.241740    27A2     9.241752    76A1     9.243389  
      48B2     9.357840    48B1     9.357840    77A1     9.910112  
      28A2    10.038534    78A1    10.038537    79A1    10.177393  
      29A2    10.177406    80A1    10.228375    30A2    10.228464  
      49B2    10.241609    49B1    10.241609    50B2    10.506906  
      50B1    10.506906    51B1    10.779792    51B2    10.779792  
      52B2    10.892459    52B1    10.892459    81A1    11.053335  
      31A2    11.169207    82A1    11.169217    83A1    11.242268  
      53B1    11.446403    53B2    11.446403    54B1    11.600210  
      54B2    11.600210    84A1    11.965834    55B1    12.028675  
      55B2    12.028675    85A1    12.106647    32A2    12.106648  
      33A2    12.560582    86A1    12.560619    87A1    12.621934  
      56B2    13.251664    56B1    13.251664    88A1    13.501061  
      57B1    14.602405    57B2    14.602405    89A1    15.293091  
      90A1    15.992107    91A1    32.951842    92A1    33.842469  
      93A1    42.551258  

    Final Occupation by Irrep:
             A1    A2    B1    B2 
    DOCC [     7,    0,    2,    2 ]

  @DF-RKS Final Energy:  -184.68537980116724

   => Energetics <=

    Nuclear Repulsion Energy =             60.7374430410497013
    One-Electron Energy =                -370.8508236473181228
    Two-Electron Energy =                 141.1872055154215957
    DFT Exchange-Correlation Energy =     -15.8504305221129460
    Empirical Dispersion Energy =           0.0000000000000000
    VV10 Nonlocal Energy =                  0.0912258117925600
    Total Energy =                       -184.6853798011672438

Computation Completed


Properties will be evaluated at   0.000000,   0.000000,   0.000000 [a0]

Properties computed using the SCF density matrix

  Nuclear Dipole Moment: [e a0]
     X:     0.0000      Y:     0.0000      Z:     0.0091

  Electronic Dipole Moment: [e a0]
     X:     0.0000      Y:     0.0000      Z:    -0.0723

  Dipole Moment: [e a0]
     X:     0.0000      Y:     0.0000      Z:    -0.0632     Total:     0.0632

  Dipole Moment: [D]
     X:     0.0000      Y:     0.0000      Z:    -0.1608     Total:     0.1608


*** tstop() called on bp1-compute00067.data.bp.acrc.priv at Tue Apr 27 16:38:48 2021
Module time:
	user time   =     121.80 seconds =       2.03 minutes
	system time =       3.27 seconds =       0.05 minutes
	total time  =          6 seconds =       0.10 minutes
Total time:
	user time   =     615.45 seconds =      10.26 minutes
	system time =      26.57 seconds =       0.44 minutes
	total time  =         29 seconds =       0.48 minutes

         ----------------------------------------------------------
                                   FINDIF
                     R. A. King and Jonathon Misiewicz
         ---------------------------------------------------------

  Computing gradient from energies.
    Using 3-point formula.
    Energy without displacement: -184.6853934187
    Check energies below for precision!
    Forces are for mass-weighted, symmetry-adapted cartesians (in au).

     Coord      Energy(-1)        Energy(+1)            Force
        0   -184.6853374398   -184.6854461997     -0.0108759879
        1   -184.6854036382   -184.6853798012      0.0023836989


-------------------------------------------------------------
  ## New Matrix (Symmetry 0) ##
  Irrep: 1 Size: 3 x 3

                 1                   2                   3

    1     0.00000000000000     0.00000000000000    -0.03360430300317
    2     0.00000000000000     0.00000000000000     0.02219990661219
    3     0.00000000000000     0.00000000000000     0.01140439639098




			-----------------------------------------
			 OPTKING 2.0: for geometry optimizations 
			  - R.A. King,  Bethel University        
			-----------------------------------------
	At level 1: Red. Int., RFO, no backsteps, dynamic trust

	Internal coordinates to be generated automatically.
	Detected frag 1 with atoms:  1 2 3
	---Fragment 1 Bond Connectivity---
	 1 : 2
	 2 : 1 3
	 3 : 2

	---Fragment 1 Geometry and Gradient---
	 N           0.0000000000        0.0000000000       -2.2700513797
	 N           0.0000000000        0.0000000000       -0.1363616114
	 O           0.0000000000        0.0000000000        2.1067432995
	             0.0000000000        0.0000000000       -0.0336043030
	             0.0000000000        0.0000000000        0.0221999066
	             0.0000000000        0.0000000000        0.0114043964

	Previous optimization step data not found.  Starting new optimization.

	---Fragment 1 Intrafragment Coordinates---
	 - Coordinate -           - BOHR/RAD -       - ANG/DEG -
	 R(1,2)           =         2.133690	       1.129100
	 R(2,3)           =         2.243105	       1.187000
	 L(1,2,3)         =         3.141593	     180.000000
	 l(1,2,3)         =         3.141593	     180.000000

	Current energy   :      -184.6853934187

	Generating empirical Hessian (Schlegel '84) for each fragment.
	Taking RFO optimization step.
	Going to follow RFO solution 1.
	Using RFO vector 1.
	Norm of target step-size    0.02456
	Projected energy change by RFO approximation:        -0.0008665300

	Back-transformation to cartesian coordinates...
	Successfully converged to displaced geometry.

	--- Internal Coordinate Step in ANG or DEG, aJ/ANG or AJ/DEG ---
	 ---------------------------------------------------------------------------
	   Coordinate                Previous        Force       Change         New 
	   ----------                --------       ------       ------       ------
	    1 R(1,2)          =      1.129100    -0.276857    -0.011821     1.117279
	    2 R(2,3)          =      1.187000    -0.093958    -0.005402     1.181598
	    3 L(1,2,3)        =    180.000000     0.000000     0.000000   180.000000
	    4 l(1,2,3)        =    180.000000     0.000000     0.000000   180.000000
	 ---------------------------------------------------------------------------
	Successfully symmetrized geometry.

  ==> Convergence Check <==

  Measures of convergence in internal coordinates in au.
  Criteria marked as inactive (o), active & met (*), and active & unmet ( ).
  --------------------------------------------------------------------------------------------- ~
   Step     Total Energy     Delta E     MAX Force     RMS Force      MAX Disp      RMS Disp    ~
  --------------------------------------------------------------------------------------------- ~
    Convergence Criteria    1.00e-06 *    3.00e-04 *             o    1.20e-03 *             o  ~
  --------------------------------------------------------------------------------------------- ~
      1    -184.68539342   -1.85e+02      3.36e-02      1.77e-02 o    2.23e-02      1.23e-02 o  ~
  ---------------------------------------------------------------------------------------------

	Writing optimization data to binary file.
	Structure for next step:
	Cartesian Geometry (in Angstrom)
	    N     0.0000000000  -0.0000000000  -1.1915785181
	    N     0.0000000000   0.0000000000  -0.0742990715
	    O     0.0000000000  -0.0000000000   1.1072992187
			--------------------------
			 OPTKING Finished Execution 
			--------------------------

    Structure for next step:
    Molecular point group: c2v
    Full point group: C_inf_v

    Geometry (in Angstrom), charge = 0, multiplicity = 1:

    N           -0.000000000000     0.000000000000    -1.191237142277
    N            0.000000000000     0.000000000000    -0.073957691223
    O           -0.000000000000     0.000000000000     1.107640603586

gradient() will perform gradient computation by finite difference of analytic energies.

         ----------------------------------------------------------
                                   FINDIF
                     R. A. King and Jonathon Misiewicz
         ---------------------------------------------------------

  Using finite-differences of energies to determine gradients.
    Generating geometries for use with 3-point formula.
    Displacement size will be 5.00e-03.
    Number of atoms is 3.
    Number of symmetric SALCs is 2.
    Translations projected? 1. Rotations projected? 1.
    Number of geometries (including reference) is 5.

  //>>>>>>>>>>>>>>>>>>>>>>>>>>>>>>>>>>>//
  //    Loading displacement 1 of 5    //
  //<<<<<<<<<<<<<<<<<<<<<<<<<<<<<<<<<<<//

*** tstart() called on bp1-compute00067.data.bp.acrc.priv
*** at Tue Apr 27 16:38:48 2021

   => Loading Basis Set <=

    Name: AUG-CC-PV(Q+D)Z
    Role: ORBITAL
    Keyword: BASIS
    atoms 1-2 entry N          line   379 file /work/zw18965/.conda/envs/p4env/share/psi4/basis/aug-cc-pv_qpd_z.gbs 
    atoms 3   entry O          line   439 file /work/zw18965/.conda/envs/p4env/share/psi4/basis/aug-cc-pv_qpd_z.gbs 


         ---------------------------------------------------------
                                   SCF
               by Justin Turney, Rob Parrish, Andy Simmonett
                          and Daniel G. A. Smith
                              RKS Reference
                       24 Threads, 137329 MiB Core
         ---------------------------------------------------------

  ==> Geometry <==

    Molecular point group: c2v
    Full point group: C_inf_v

    Geometry (in Angstrom), charge = 0, multiplicity = 1:

       Center              X                  Y                   Z               Mass       
    ------------   -----------------  -----------------  -----------------  -----------------
         N            0.000000000000     0.000000000000    -1.191237142277    14.003074004430
         N           -0.000000000000     0.000000000000    -0.073957691223    14.003074004430
         O            0.000000000000     0.000000000000     1.107640603586    15.994914619570

  Running in c2v symmetry.

  Rotational constants: A = ************  B =      0.42601  C =      0.42601 [cm^-1]
  Rotational constants: A = ************  B =  12771.37073  C =  12771.37073 [MHz]
  Nuclear repulsion =   61.178005669233713

  Charge       = 0
  Multiplicity = 1
  Electrons    = 22
  Nalpha       = 11
  Nbeta        = 11

  ==> Algorithm <==

  SCF Algorithm Type is DF.
  DIIS enabled.
  MOM disabled.
  Fractional occupation disabled.
  Guess Type is READ.
  Energy threshold   = 1.00e-08
  Density threshold  = 1.00e-08
  Integral threshold = 0.00e+00

  ==> Primary Basis <==

  Basis Set: AUG-CC-PV(Q+D)Z
    Blend: AUG-CC-PV(Q+D)Z
    Number of shells: 60
    Number of basis function: 240
    Number of Cartesian functions: 315
    Spherical Harmonics?: true
    Max angular momentum: 4

  ==> DFT Potential <==

   => Composite Functional: WB97X-V <= 

    wB97X-V Hyb-GGA Exchange-Correlation Functional

    N. Mardirossian and M. Head-Gordon, Phys. Chem. Chem. Phys. 16, 9904 (2014)

    Deriv               =              1
    GGA                 =           TRUE
    Meta                =          FALSE

    Exchange Hybrid     =           TRUE
    MP2 Hybrid          =          FALSE

   => Exchange-Correlation Functionals <=

    1.0000   wB97X-V range-separated functional

   => Exact (HF) Exchange <=

    0.8330            HF,LR [omega = 0.3000]
    0.1670               HF 

   => VV10 Non-Local Parameters <=

[...]
    Spherical Harmonics?: true
    Max angular momentum: 4

  ==> DFT Potential <==

   => Composite Functional: WB97X-V <= 

    wB97X-V Hyb-GGA Exchange-Correlation Functional

    N. Mardirossian and M. Head-Gordon, Phys. Chem. Chem. Phys. 16, 9904 (2014)

    Deriv               =              1
    GGA                 =           TRUE
    Meta                =          FALSE

    Exchange Hybrid     =           TRUE
    MP2 Hybrid          =          FALSE

   => Exchange-Correlation Functionals <=

    1.0000   wB97X-V range-separated functional

   => Exact (HF) Exchange <=

    0.8330            HF,LR [omega = 0.3000]
    0.1670               HF 

   => VV10 Non-Local Parameters <=

    VV10 B              =     6.0000E+00
    VV10 C              =     1.0000E-02

   => Molecular Quadrature <=

    Radial Scheme          =       TREUTLER
    Pruning Scheme         =           FLAT
    Nuclear Scheme         =       TREUTLER

    BS radius alpha        =              1
    Pruning alpha          =              1
    Radial Points          =             75
    Spherical Points       =            302
    Total Points           =          67950
    Total Blocks           =            581
    Max Points             =            256
    Max Functions          =            240

   => Loading Basis Set <=

    Name: (AUG-CC-PV(Q+D)Z AUX)
    Role: JKFIT
    Keyword: DF_BASIS_SCF
    atoms 1-2 entry N          line   248 file /work/zw18965/.conda/envs/p4env/share/psi4/basis/aug-cc-pvqz-jkfit.gbs 
    atoms 3   entry O          line   318 file /work/zw18965/.conda/envs/p4env/share/psi4/basis/aug-cc-pvqz-jkfit.gbs 

  ==> Pre-Iterations <==

   -------------------------------------------------------
    Irrep   Nso     Nmo     Nalpha   Nbeta   Ndocc  Nsocc
   -------------------------------------------------------
     A'       150     150       0       0       0       0
     A"        90      90       0       0       0       0
   -------------------------------------------------------
    Total     240     240      11      11      11       0
   -------------------------------------------------------

  ==> Integral Setup <==

  ==> DiskDFJK: Density-Fitted J/K Matrices <==

    J tasked:                  Yes
    K tasked:                  Yes
    wK tasked:                 Yes
    Omega:               3.000E-01
    OpenMP threads:             24
    Integrals threads:          24
    Memory [MiB]:           102579
    Algorithm:                Core
    Integral Cache:           NONE
    Schwarz Cutoff:          1E-12
    Fitting Condition:       1E-10

   => Auxiliary Basis Set <=

  Basis Set: (AUG-CC-PV(Q+D)Z AUX)
    Blend: AUG-CC-PVQZ-JKFIT
    Number of shells: 102
    Number of basis function: 426
    Number of Cartesian functions: 594
    Spherical Harmonics?: true
    Max angular momentum: 5

  Cached 100.0% of DFT collocation blocks in 0.407 [GiB].

  Minimum eigenvalue in the overlap matrix is 1.6904063137E-05.
  Using Symmetric Orthogonalization.

  SCF Guess: Superposition of Atomic Densities via on-the-fly atomic UHF.

  ==> Iterations <==

                           Total Energy        Delta E     RMS |[F,P]|

   @DF-RKS iter SAD:  -184.19683327475485   -1.84197e+02   0.00000e+00 
   @DF-RKS iter   1:  -184.59647885266165   -3.99646e-01   2.95502e-03 DIIS
   @DF-RKS iter   2:  -184.56492754750849    3.15513e-02   3.51338e-03 DIIS
   @DF-RKS iter   3:  -184.68333188980728   -1.18404e-01   4.87015e-04 DIIS
   @DF-RKS iter   4:  -184.68490794549217   -1.57606e-03   3.00969e-04 DIIS
   @DF-RKS iter   5:  -184.68586472872093   -9.56783e-04   4.09396e-05 DIIS
   @DF-RKS iter   6:  -184.68588799985127   -2.32711e-05   9.70027e-06 DIIS
   @DF-RKS iter   7:  -184.68588942335973   -1.42351e-06   1.67430e-06 DIIS
   @DF-RKS iter   8:  -184.68588950373604   -8.03763e-08   2.75582e-07 DIIS
   @DF-RKS iter   9:  -184.68588950578891   -2.05287e-09   5.07521e-08 DIIS
   @DF-RKS iter  10:  -184.68588950584697   -5.80656e-11   1.08436e-08 DIIS
   @DF-RKS iter  11:  -184.68588950584916   -2.18847e-12   8.54934e-10 DIIS
   @DF-RKS iter  12:  -184.68588950584908    8.52651e-14   1.51185e-10 DIIS
   @DF-RKS iter  13:  -184.68588950584925   -1.70530e-13   1.63179e-11 DIIS
  Energy and wave function converged.


  ==> Post-Iterations <==

    Orbital Energies [Eh]
    ---------------------

    Doubly Occupied:                                                      

       1Ap   -19.309024     2Ap   -14.645400     3Ap   -14.508798  
       4Ap    -1.385691     5Ap    -1.225728     6Ap    -0.723300  
       1App   -0.692562     7Ap    -0.692562     8Ap    -0.597970  
       2App   -0.448621     9Ap    -0.448621  

    Virtual:                                                              

      10Ap     0.052490     3App    0.069333    11Ap     0.069333  
      12Ap     0.076211    13Ap     0.114830     4App    0.114831  
      14Ap     0.120250    15Ap     0.131492     5App    0.131492  
      16Ap     0.191644    17Ap     0.199390     6App    0.199391  
      18Ap     0.215300    19Ap     0.247122    20Ap     0.284432  
       7App    0.284435    21Ap     0.330531    22Ap     0.352348  
      23Ap     0.378273     8App    0.378273     9App    0.389359  
      24Ap     0.389361    25Ap     0.440010    10App    0.479366  
      26Ap     0.479366    27Ap     0.502628    11App    0.502628  
      28Ap     0.567531    29Ap     0.602945    12App    0.602954  
      30Ap     0.614943    13App    0.614944    31Ap     0.616653  
      32Ap     0.719126    33Ap     0.744158    14App    0.784965  
      34Ap     0.784965    35Ap     0.850917    36Ap     0.873633  
      15App    0.873635    37Ap     0.878679    16App    0.878679  
      38Ap     0.930456    17App    0.930458    39Ap     0.934450  
      18App    0.934453    40Ap     0.943121    41Ap     1.088024  
      19App    1.088026    42Ap     1.099691    20App    1.099691  
      43Ap     1.127790    44Ap     1.239476    21App    1.239480  
      45Ap     1.300768    22App    1.300773    46Ap     1.304905  
      47Ap     1.337064    48Ap     1.464196    23App    1.464197  
      49Ap     1.470747    24App    1.470747    50Ap     1.484842  
      25App    1.484857    51Ap     1.486880    52Ap     1.598012  
      53Ap     1.646285    26App    1.646285    54Ap     1.662470  
      27App    1.662473    55Ap     1.782666    28App    1.818653  
      56Ap     1.818654    57Ap     1.896506    29App    1.896509  
      58Ap     1.908382    30App    1.974509    59Ap     1.974510  
      60Ap     2.088715    31App    2.203765    61Ap     2.203766  
      32App    2.512597    62Ap     2.512601    63Ap     2.659790  
      33App    2.659792    34App    2.665677    64Ap     2.665677  
      65Ap     2.735116    35App    2.735117    66Ap     2.785308  
      67Ap     2.794976    68Ap     2.886289    36App    2.889648  
      69Ap     2.889648    37App    2.911046    70Ap     2.911047  
      38App    2.925706    71Ap     2.925711    39App    2.947381  
      72Ap     2.947389    73Ap     3.010313    40App    3.010313  
      41App    3.022646    74Ap     3.022648    75Ap     3.103288  
      42App    3.103306    76Ap     3.112269    77Ap     3.158889  
      43App    3.158897    44App    3.221054    78Ap     3.221056  
      79Ap     3.280458    80Ap     3.454923    45App    3.454924  
      81Ap     3.524502    82Ap     3.606229    46App    3.606234  
      83Ap     3.683500    47App    3.683500    84Ap     3.792851  
      48App    3.814599    85Ap     3.814600    86Ap     3.937058  
      49App    3.937058    87Ap     3.937251    50App    3.937251  
      88Ap     4.031991    51App    4.121162    89Ap     4.121163  
      52App    4.209562    90Ap     4.209562    91Ap     4.373002  
      53App    4.504376    92Ap     4.504378    93Ap     4.549726  
      54App    4.549727    94Ap     4.584991    55App    4.584991  
      95Ap     4.899817    96Ap     5.171774    56App    5.171775  
      97Ap     5.251496    57App    5.251505    98Ap     5.282437  
      99Ap     5.356264   100Ap     5.569598    58App    5.569620  
     101Ap     5.845493    59App    5.845506   102Ap     5.894467  
     103Ap     6.075324    60App    6.168081   104Ap     6.168093  
     105Ap     6.917709   106Ap     7.474703    61App    7.474703  
     107Ap     7.533927    62App    7.533928    63App    7.668689  
     108Ap     7.668692    64App    7.699732   109Ap     7.699759  
      65App    8.022551   110Ap     8.022581   111Ap     8.042431  
      66App    8.163162   112Ap     8.163165   113Ap     8.342500  
      67App    8.342510   114Ap     8.376699    68App    8.376702  
     115Ap     8.474822    69App    8.474822   116Ap     8.555089  
     117Ap     8.682117    70App    8.682117   118Ap     8.763031  
      71App    8.763031   119Ap     8.850941   120Ap     8.911851  
      72App    8.911863   121Ap     8.992397    73App    8.992397  
     122Ap     9.255311    74App    9.255322   123Ap     9.262014  
      75App    9.356326   124Ap     9.356330   125Ap     9.939353  
      76App   10.093165   126Ap    10.093168   127Ap    10.222206  
      77App   10.222218   128Ap    10.229989    78App   10.230076  
      79App   10.301424   129Ap    10.301428    80App   10.514993  
     130Ap    10.514993    81App   10.787484   131Ap    10.787485  
     132Ap    10.937805    82App   10.937807   133Ap    11.074726  
      83App   11.211056   134Ap    11.211065   135Ap    11.273791  
     136Ap    11.451700    84App   11.451700   137Ap    11.622484  
      85App   11.622487   138Ap    12.026325    86App   12.072089  
     139Ap    12.072094   140Ap    12.112778    87App   12.112779  
      88App   12.577998   141Ap    12.578034   142Ap    12.653559  
      89App   13.313513   143Ap    13.313526   144Ap    13.553350  
     145Ap    14.696240    90App   14.696244   146Ap    15.413482  
     147Ap    16.021974   148Ap    33.230586   149Ap    33.935787  
     150Ap    42.589645  

    Final Occupation by Irrep:
             Ap   App 
    DOCC [     9,    2 ]

  @DF-RKS Final Energy:  -184.68588950584925

   => Energetics <=

    Nuclear Repulsion Energy =             61.2380073772689144
    One-Electron Energy =                -371.8210734894277607
    Two-Electron Energy =                 141.6733590863511836
    DFT Exchange-Correlation Energy =     -15.8674090319689096
    Empirical Dispersion Energy =           0.0000000000000000
    VV10 Nonlocal Energy =                  0.0912265519273632
    Total Energy =                       -184.6858895058492180

Computation Completed


Properties will be evaluated at   0.000000,   0.000000,   0.000000 [a0]

Properties computed using the SCF density matrix

  Nuclear Dipole Moment: [e a0]
     X:     0.0000      Y:    -0.0000      Z:     0.0090

  Electronic Dipole Moment: [e a0]
     X:     0.0000      Y:     0.0004      Z:    -0.0781

  Dipole Moment: [e a0]
     X:     0.0000      Y:     0.0004      Z:    -0.0691     Total:     0.0691

  Dipole Moment: [D]
     X:     0.0000      Y:     0.0010      Z:    -0.1756     Total:     0.1756


*** tstop() called on bp1-compute00067.data.bp.acrc.priv at Tue Apr 27 16:40:53 2021
Module time:
	user time   =     132.48 seconds =       2.21 minutes
	system time =       3.31 seconds =       0.06 minutes
	total time  =          6 seconds =       0.10 minutes
Total time:
	user time   =    3348.56 seconds =      55.81 minutes
	system time =     109.00 seconds =       1.82 minutes
	total time  =        154 seconds =       2.57 minutes

         ----------------------------------------------------------
                                   FINDIF
                     R. A. King and Jonathon Misiewicz
         ---------------------------------------------------------

  Computing second-derivative from energies using projected, 
  symmetry-adapted, cartesian coordinates.

  9 energies passed in, including the reference geometry.
    Using 3-point formula.
    Energy without displacement: -184.6858896896
    Check energies below for precision!
    0: -1        :      -184.6858881985
    0: 1         :      -184.6858876215
    1: -1        :      -184.6858878349
    1: 1         :      -184.6858878964
    0: 1, 1: 1   :      -184.6858876953
    0: -1, 1: -1 :      -184.6858881884
    2: -1        :      -184.6858895129
    3: -1        :      -184.6858895058

-------------------------------------------------------------


  ==> Harmonic Vibrational Analysis <==

  non-mass-weighted Hessian:       Symmetric? True   Hermitian? True   Lin Dep Dim?  5 (0)
  projection of translations (True) and rotations (True) removed 5 degrees of freedom (5)
  total projector:                 Symmetric? True   Hermitian? True   Lin Dep Dim?  5 (5)
  mass-weighted Hessian:           Symmetric? True   Hermitian? True   Lin Dep Dim?  5 (0)
  pre-proj  low-frequency mode:    0.0000i [cm^-1]
  pre-proj  low-frequency mode:    0.0000i [cm^-1]
  pre-proj  low-frequency mode:    0.0000  [cm^-1]
  pre-proj  low-frequency mode:    0.0000  [cm^-1]
  pre-proj  low-frequency mode:    0.0000  [cm^-1]
  pre-proj  all modes:['0.0000i' '0.0000i' '0.0000' '0.0000' '0.0000' '611.1262' '623.1852'
 '1358.9401' '2402.2754']
  projected mass-weighted Hessian: Symmetric? True   Hermitian? True   Lin Dep Dim?  5 (5)
  post-proj low-frequency mode:    0.0000i [cm^-1] (TR)
  post-proj low-frequency mode:    0.0000i [cm^-1] (TR)
  post-proj low-frequency mode:    0.0000  [cm^-1] (TR)
  post-proj low-frequency mode:    0.0000  [cm^-1] (TR)
  post-proj low-frequency mode:    0.0000  [cm^-1] (TR)
  post-proj  all modes:['0.0000i' '0.0000i' '0.0000' '0.0000' '0.0000' '611.1262' '623.1852'
 '1358.9401' '2402.2754']

  Vibration                       6                   7                   8           
  Freq [cm^-1]                 611.1262            623.1852           1358.9401       
  Irrep                           B1                  B2                  A1          
  Reduced mass [u]             14.2524             14.2524             15.1258        
  Force const [mDyne/A]         3.1362              3.2612             16.4577        
  Turning point v=0 [a0]        0.1176              0.1164              0.0765        
  RMS dev v=0 [a0 u^1/2]        0.3139              0.3108              0.2105        
  Char temp [K]                879.2745            896.6247           1955.2123       
  ----------------------------------------------------------------------------------
      1   N               -0.43  0.00  0.00   -0.00 -0.43 -0.00    0.00 -0.00 -0.61   
      2   N                0.83 -0.00 -0.00    0.00  0.83 -0.00    0.00  0.00 -0.24   
      3   O               -0.35  0.00  0.00   -0.00 -0.35 -0.00    0.00 -0.00  0.75   

  Vibration                       9           
  Freq [cm^-1]                2402.2754       
  Irrep                           A1          
  Reduced mass [u]             14.0739        
  Force const [mDyne/A]        47.8533        
  Turning point v=0 [a0]        0.0597        
  RMS dev v=0 [a0 u^1/2]        0.1583        
  Char temp [K]               3456.3395       
  ----------------------------------------------------------------------------------
      1   N                0.00 -0.00 -0.58   
      2   N                0.00  0.00  0.79   
      3   O                0.00 -0.00 -0.19   

  ==> Thermochemistry Components <==

  Entropy, S
    Electronic S            0.000 [cal/(mol K)]        0.000 [J/(mol K)]       0.00000000 [mEh/K] (multiplicity = 1)
    Translational S        37.271 [cal/(mol K)]      155.941 [J/(mol K)]       0.05939493 [mEh/K] (mol. weight = 44.0011 [u], P = 101325.00 [Pa])
    Rotational S           14.278 [cal/(mol K)]       59.741 [J/(mol K)]       0.02275404 [mEh/K] (symmetry no. = 1)
    Vibrational S           0.864 [cal/(mol K)]        3.615 [J/(mol K)]       0.00137678 [mEh/K]
  Total S                  52.413 [cal/(mol K)]      219.297 [J/(mol K)]       0.08352575 [mEh/K]
  Correction S              0.000 [cal/(mol K)]        0.000 [J/(mol K)]       0.00000000 [mEh/K]

  Constant volume heat capacity, Cv
    Electronic Cv           0.000 [cal/(mol K)]        0.000 [J/(mol K)]       0.00000000 [mEh/K]
    Translational Cv        2.981 [cal/(mol K)]       12.472 [J/(mol K)]       0.00475022 [mEh/K]
    Rotational Cv           1.987 [cal/(mol K)]        8.314 [J/(mol K)]       0.00316681 [mEh/K]
    Vibrational Cv          2.115 [cal/(mol K)]        8.851 [J/(mol K)]       0.00337110 [mEh/K]
  Total Cv                  7.083 [cal/(mol K)]       29.637 [J/(mol K)]       0.01128812 [mEh/K]
  Correction Cv             0.000 [cal/(mol K)]        0.000 [J/(mol K)]       0.00000000 [mEh/K]

  Constant pressure heat capacity, Cp
    Electronic Cp           0.000 [cal/(mol K)]        0.000 [J/(mol K)]       0.00000000 [mEh/K]
    Translational Cp        4.968 [cal/(mol K)]       20.786 [J/(mol K)]       0.00791703 [mEh/K]
    Rotational Cp           1.987 [cal/(mol K)]        8.314 [J/(mol K)]       0.00316681 [mEh/K]
    Vibrational Cp          2.115 [cal/(mol K)]        8.851 [J/(mol K)]       0.00337110 [mEh/K]
  Total Cp                  9.071 [cal/(mol K)]       37.951 [J/(mol K)]       0.01445493 [mEh/K]
  Correction Cp             0.000 [cal/(mol K)]        0.000 [J/(mol K)]       0.00000000 [mEh/K]

  ==> Thermochemistry Energy Analysis <==

  Raw electronic energy, E0
  Total E0, Electronic energy at well bottom at 0 [K]                 -184.68588969 [Eh]

  Zero-point energy, ZPE_vib = Sum_i nu_i / 2
    Electronic ZPE          0.000 [kcal/mol]        0.000 [kJ/mol]       0.00000000 [Eh]
    Translational ZPE       0.000 [kcal/mol]        0.000 [kJ/mol]       0.00000000 [Eh]
    Rotational ZPE          0.000 [kcal/mol]        0.000 [kJ/mol]       0.00000000 [Eh]
    Vibrational ZPE         7.141 [kcal/mol]       29.880 [kJ/mol]       0.01138065 [Eh]        2497.763 [cm^-1]
  Correction ZPE            7.141 [kcal/mol]       29.880 [kJ/mol]       0.01138065 [Eh]        2497.763 [cm^-1]
  Total ZPE, Electronic energy at 0 [K]                               -184.67450904 [Eh]

  Thermal Energy, E (includes ZPE)
    Electronic E            0.000 [kcal/mol]        0.000 [kJ/mol]       0.00000000 [Eh]
    Translational E         0.889 [kcal/mol]        3.718 [kJ/mol]       0.00141628 [Eh]
    Rotational E            0.592 [kcal/mol]        2.479 [kJ/mol]       0.00094418 [Eh]
    Vibrational E           7.336 [kcal/mol]       30.695 [kJ/mol]       0.01169112 [Eh]
  Correction E              8.817 [kcal/mol]       36.892 [kJ/mol]       0.01405158 [Eh]
  Total E, Electronic energy at  298.15 [K]                           -184.67183811 [Eh]

  Enthalpy, H_trans = E_trans + k_B * T
    Electronic H            0.000 [kcal/mol]        0.000 [kJ/mol]       0.00000000 [Eh]
    Translational H         1.481 [kcal/mol]        6.197 [kJ/mol]       0.00236046 [Eh]
    Rotational H            0.592 [kcal/mol]        2.479 [kJ/mol]       0.00094418 [Eh]
    Vibrational H           7.336 [kcal/mol]       30.695 [kJ/mol]       0.01169112 [Eh]
  Correction H              9.410 [kcal/mol]       39.371 [kJ/mol]       0.01499577 [Eh]
  Total H, Enthalpy at  298.15 [K]                                    -184.67089392 [Eh]

  Gibbs free energy, G = H - T * S
    Electronic G            0.000 [kcal/mol]        0.000 [kJ/mol]       0.00000000 [Eh]
    Translational G        -9.631 [kcal/mol]      -40.297 [kJ/mol]      -0.01534814 [Eh]
    Rotational G           -3.665 [kcal/mol]      -15.333 [kJ/mol]      -0.00583993 [Eh]
    Vibrational G           7.079 [kcal/mol]       29.617 [kJ/mol]       0.01128063 [Eh]
  Correction G             -6.217 [kcal/mol]      -26.012 [kJ/mol]      -0.00990744 [Eh]
  Total G, Free enthalpy at  298.15 [K]                               -184.69579713 [Eh]

    Psi4 stopped on: Tuesday, 27 April 2021 04:40PM
    Psi4 wall time for execution: 0:02:34.79

*** Psi4 exiting successfully. Buy a developer a beer!
