
    -----------------------------------------------------------------------
          Psi4: An Open-Source Ab Initio Electronic Structure Package
                               Psi4 1.3.2 release

                         Git: Rev {HEAD} ecbda83 


    R. M. Parrish, L. A. Burns, D. G. A. Smith, A. C. Simmonett,
    A. E. DePrince III, E. G. Hohenstein, U. Bozkaya, A. Yu. Sokolov,
    R. Di Remigio, R. M. Richard, J. F. Gonthier, A. M. James,
    H. R. McAlexander, A. Kumar, M. Saitow, X. Wang, B. P. Pritchard,
    P. Verma, H. F. Schaefer III, K. Patkowski, R. A. King, E. F. Valeev,
    F. A. Evangelista, J. M. Turney, T. D. Crawford, and C. D. Sherrill,
    J. Chem. Theory Comput. 13(7) pp 3185--3197 (2017).
    (doi: 10.1021/acs.jctc.7b00174)


                         Additional Contributions by
    P. Kraus, H. Kruse, M. H. Lechner, M. C. Schieber, R. A. Shaw,
    A. Alenaizan, R. Galvelis, Z. L. Glick, S. Lehtola, and J. P. Misiewicz

    -----------------------------------------------------------------------


    Psi4 started on: Tuesday, 27 April 2021 04:41PM

    Process ID: 10674
    Host:       bp1-compute00047.data.bp.acrc.priv
    PSIDATADIR: /work/zw18965/.conda/envs/p4env/share/psi4
    Memory:     500.0 MiB
    Threads:    24
    
  ==> Input File <==

--------------------------------------------------------------------------
memory 144 GB

molecule {
0 1
S 0.0000000000 0.0000000000 0.0000000000
O 0.0000000000 0.0000000000 1.4355085900
O 1.2508167239 0.0000000000 -0.7043737894
}

set dynamic_level 1
set basis aug-cc-pV(Q+d)Z
 
optimize("wB97X-V")
frequencies("wB97X-V")
--------------------------------------------------------------------------

  Memory set to 134.110 GiB by Python driver.
gradient() will perform gradient computation by finite difference of analytic energies.

         ----------------------------------------------------------
                                   FINDIF
                     R. A. King and Jonathon Misiewicz
         ---------------------------------------------------------

  Using finite-differences of energies to determine gradients.
    Generating geometries for use with 3-point formula.
    Displacement size will be 5.00e-03.
    Number of atoms is 3.
    Number of symmetric SALCs is 2.
    Translations projected? 1. Rotations projected? 1.
    Number of geometries (including reference) is 5.

  //>>>>>>>>>>>>>>>>>>>>>>>>>>>>>>>>>>>//
  //    Loading displacement 1 of 5    //
  //<<<<<<<<<<<<<<<<<<<<<<<<<<<<<<<<<<<//

*** tstart() called on bp1-compute00047.data.bp.acrc.priv
*** at Tue Apr 27 16:41:17 2021

   => Loading Basis Set <=

    Name: AUG-CC-PV(Q+D)Z
    Role: ORBITAL
    Keyword: BASIS
    atoms 1   entry S          line  1148 file /work/zw18965/.conda/envs/p4env/share/psi4/basis/aug-cc-pv_qpd_z.gbs 
    atoms 2-3 entry O          line   439 file /work/zw18965/.conda/envs/p4env/share/psi4/basis/aug-cc-pv_qpd_z.gbs 


         ---------------------------------------------------------
                                   SCF
               by Justin Turney, Rob Parrish, Andy Simmonett
                          and Daniel G. A. Smith
                              RKS Reference
                       24 Threads, 137329 MiB Core
         ---------------------------------------------------------

  ==> Geometry <==

    Molecular point group: c2v
    Full point group: C2v

    Geometry (in Angstrom), charge = 0, multiplicity = 1:

       Center              X                  Y                   Z               Mass       
    ------------   -----------------  -----------------  -----------------  -----------------
         S           -0.000000000000     0.000000000000    -0.362307388741    31.972071174400
         O           -0.000000000000     1.239318267683     0.362106266127    15.994914619570
         O            0.000000000000    -1.239318267683     0.362106266127    15.994914619570

  Running in c2v symmetry.

  Rotational constants: A =      2.00892  B =      0.34310  C =      0.29305 [cm^-1]
  Rotational constants: A =  60225.80440  B =  10285.83551  C =   8785.39654 [MHz]
  Nuclear repulsion =  108.033990949454420

  Charge       = 0
  Multiplicity = 1
  Electrons    = 32
  Nalpha       = 16
  Nbeta        = 16

  ==> Algorithm <==

  SCF Algorithm Type is DF.
  DIIS enabled.
  MOM disabled.
  Fractional occupation disabled.
  Guess Type is SAD.
  Energy threshold   = 1.00e-08
  Density threshold  = 1.00e-08
  Integral threshold = 0.00e+00

  ==> Primary Basis <==

  Basis Set: AUG-CC-PV(Q+D)Z
    Blend: AUG-CC-PV(Q+D)Z
    Number of shells: 63
    Number of basis function: 249
    Number of Cartesian functions: 325
    Spherical Harmonics?: true
    Max angular momentum: 4

  ==> DFT Potential <==

   => Composite Functional: WB97X-V <= 

    wB97X-V Hyb-GGA Exchange-Correlation Functional

    N. Mardirossian and M. Head-Gordon, Phys. Chem. Chem. Phys. 16, 9904 (2014)

    Deriv               =              1
    GGA                 =           TRUE
    Meta                =          FALSE

    Exchange Hybrid     =           TRUE
    MP2 Hybrid          =          FALSE

   => Exchange-Correlation Functionals <=

    1.0000   wB97X-V range-separated functional

   => Exact (HF) Exchange <=

    0.8330            HF,LR [omega = 0.3000]
    0.1670               HF 

   => VV10 Non-Local Parameters <=

    VV10 B              =     6.0000E+00
    VV10 C              =     1.0000E-02

   => Molecular Quadrature <=

    Radial Scheme          =       TREUTLER
    Pruning Scheme         =           FLAT
    Nuclear Scheme         =       TREUTLER

    BS radius alpha        =              1
    Pruning alpha          =              1
    Radial Points          =             75
    Spherical Points       =            302
    Total Points           =          67950
    Total Blocks           =            599
    Max Points             =            256
    Max Functions          =            249

   => Loading Basis Set <=

    Name: (AUG-CC-PV(Q+D)Z AUX)
    Role: JKFIT
    Keyword: DF_BASIS_SCF
    atoms 1   entry S          line   810 file /work/zw18965/.conda/envs/p4env/share/psi4/basis/aug-cc-pvqz-jkfit.gbs 
    atoms 2-3 entry O          line   318 file /work/zw18965/.conda/envs/p4env/share/psi4/basis/aug-cc-pvqz-jkfit.gbs 

  ==> Pre-Iterations <==

   -------------------------------------------------------
    Irrep   Nso     Nmo     Nalpha   Nbeta   Ndocc  Nsocc
   -------------------------------------------------------
     A1        85      85       0       0       0       0
     A2        42      42       0       0       0       0
     B1        51      51       0       0       0       0
     B2        71      71       0       0       0       0
   -------------------------------------------------------
    Total     249     249      16      16      16       0
   -------------------------------------------------------

  ==> Integral Setup <==

  ==> DiskDFJK: Density-Fitted J/K Matrices <==

    J tasked:                  Yes
    K tasked:                  Yes
    wK tasked:                 Yes
    Omega:               3.000E-01
    OpenMP threads:             24
    Integrals threads:          24
    Memory [MiB]:           102578
    Algorithm:                Core
    Integral Cache:           NONE
    Schwarz Cutoff:          1E-12
    Fitting Condition:       1E-10

   => Auxiliary Basis Set <=

  Basis Set: (AUG-CC-PV(Q+D)Z AUX)
    Blend: AUG-CC-PVQZ-JKFIT
    Number of shells: 114
    Number of basis function: 468
    Number of Cartesian functions: 643
    Spherical Harmonics?: true
    Max angular momentum: 5

  Cached 100.0% of DFT collocation blocks in 0.409 [GiB].

  Minimum eigenvalue in the overlap matrix is 8.8622376086E-05.
  Using Symmetric Orthogonalization.

  SCF Guess: Superposition of Atomic Densities via on-the-fly atomic UHF.

  ==> Iterations <==

                           Total Energy        Delta E     RMS |[F,P]|

   @DF-RKS iter SAD:  -548.38895610702082   -5.48389e+02   0.00000e+00 
   @DF-RKS iter   1:  -548.42244511759714   -3.34890e-02   5.64513e-03 DIIS
   @DF-RKS iter   2:  -548.30983400806099    1.12611e-01   7.36591e-03 DIIS
   @DF-RKS iter   3:  -548.60993447491876   -3.00100e-01   3.55580e-04 DIIS
   @DF-RKS iter   4:  -548.61052000615200   -5.85531e-04   6.65719e-05 DIIS
   @DF-RKS iter   5:  -548.61058135990766   -6.13538e-05   1.21881e-05 DIIS
   @DF-RKS iter   6:  -548.61058450140956   -3.14150e-06   3.48434e-06 DIIS
   @DF-RKS iter   7:  -548.61058480129793   -2.99888e-07   8.73197e-07 DIIS
   @DF-RKS iter   8:  -548.61058482597161   -2.46737e-08   3.23520e-07 DIIS
   @DF-RKS iter   9:  -548.61058482721046   -1.23885e-09   7.04524e-08 DIIS
   @DF-RKS iter  10:  -548.61058482728379   -7.33280e-11   1.37469e-08 DIIS
   @DF-RKS iter  11:  -548.61058482728777   -3.97904e-12   2.46667e-09 DIIS
  Energy and wave function converged.


  ==> Post-Iterations <==

    Orbital Energies [Eh]
    ---------------------

    Doubly Occupied:                                                      

       1A1   -89.077352     1B2   -19.274971     2A1   -19.274957  
       3A1    -8.212537     1B1    -6.170878     2B2    -6.167045  
       4A1    -6.163524     5A1    -1.284178     3B2    -1.188785  
       6A1    -0.762237     7A1    -0.616181     2B1    -0.616066  
       4B2    -0.612147     1A2    -0.486458     5B2    -0.476303  
       8A1    -0.445081  

    Virtual:                                                              

       3B1    -0.043357     9A1     0.052518    10A1     0.060724  
       6B2     0.063372     4B1     0.067523    11A1     0.123484  
       7B2     0.133339    12A1     0.142327     2A2     0.149859  
       8B2     0.159291     5B1     0.168458    13A1     0.171247  
       9B2     0.201467     6B1     0.214352    14A1     0.234026  
      15A1     0.265631     3A2     0.271963    10B2     0.284580  
      11B2     0.300517    16A1     0.305403     7B1     0.327225  
      17A1     0.364092     8B1     0.430596    12B2     0.442895  
      18A1     0.443726     4A2     0.450791    19A1     0.460605  
       9B1     0.484568    20A1     0.493878    13B2     0.543126  
      14B2     0.563988    21A1     0.575087     5A2     0.583680  
      10B1     0.586104     6A2     0.597610    11B1     0.622914  
      15B2     0.626821    22A1     0.636285    16B2     0.649397  
       7A2     0.655014    23A1     0.682457    24A1     0.708269  
      12B1     0.740136    17B2     0.762684    25A1     0.769749  
      18B2     0.784257    13B1     0.857524     8A2     0.861214  
      26A1     0.883081    27A1     0.975085    19B2     1.010551  
      20B2     1.046865    21B2     1.105274    28A1     1.120859  
      14B1     1.137729    29A1     1.137940    15B1     1.219272  
      30A1     1.233614     9A2     1.255607    31A1     1.279275  
      16B1     1.289895    10A2     1.313579    22B2     1.332112  
      23B2     1.342873    17B1     1.345829    24B2     1.386688  
      32A1     1.393628    11A2     1.401981    12A2     1.424338  
      25B2     1.434988    33A1     1.446021    18B1     1.482901  
      19B1     1.517628    34A1     1.525527    26B2     1.543197  
      35A1     1.554700    13A2     1.583251    20B1     1.602166  
      27B2     1.611365    36A1     1.629784    14A2     1.685860  
      28B2     1.693728    37A1     1.701187    21B1     1.710372  
      38A1     1.724773    29B2     1.839115    15A2     1.928848  
      30B2     1.935333    39A1     1.978006    22B1     1.981708  
      40A1     2.066036    23B1     2.115991    31B2     2.128639  
      41A1     2.133978    24B1     2.146469    16A2     2.151832  
      42A1     2.157738    32B2     2.167453    33B2     2.225925  
      17A2     2.251750    43A1     2.445865    34B2     2.616969  
      44A1     2.638871    25B1     2.737173    18A2     2.751614  
      45A1     2.838821    35B2     3.036703    46A1     3.057129  
      36B2     3.199259    19A2     3.220804    26B1     3.227573  
      47A1     3.240043    27B1     3.247752    48A1     3.306925  
      20A2     3.307466    28B1     3.316075    49A1     3.359212  
      37B2     3.363935    38B2     3.394910    29B1     3.459486  
      21A2     3.463335    50A1     3.473138    51A1     3.524846  
      39B2     3.548117    30B1     3.559263    22A2     3.579703  
      40B2     3.639134    52A1     3.642592    23A2     3.676773  
      41B2     3.743228    31B1     3.777970    53A1     3.851755  
      42B2     3.876696    43B2     3.891927    24A2     3.892517  
      54A1     3.919335    32B1     3.937915    25A2     3.949671  
      55A1     3.990272    44B2     3.994136    33B1     4.009961  
      56A1     4.034978    57A1     4.099776    45B2     4.104174  
      34B1     4.119949    26A2     4.144034    35B1     4.266237  
      58A1     4.307145    36B1     4.330376    46B2     4.351634  
      47B2     4.371899    27A2     4.373573    59A1     4.417540  
      48B2     4.531870    60A1     4.545320    61A1     4.596640  
      28A2     4.619924    49B2     4.648805    50B2     4.777072  
      37B1     4.777976    62A1     4.890986    29A2     4.913034  
      38B1     4.951179    39B1     5.061598    63A1     5.098361  
      30A2     5.204509    51B2     5.230625    52B2     5.331100  
      64A1     5.400535    31A2     5.564026    65A1     5.698535  
      53B2     5.711811    54B2     6.081991    66A1     6.153084  
      40B1     6.495032    67A1     7.360853    55B2     8.187303  
      41B1     8.818600    68A1     8.834856    32A2     9.007044  
      69A1     9.181665    56B2     9.894955    42B1    10.213947  
      70A1    10.225291    33A2    10.231089    57B2    10.245077  
      58B2    10.316220    43B1    10.382508    34A2    10.387944  
      71A1    10.395362    35A2    10.492722    44B1    10.501684  
      72A1    10.519041    36A2    10.529056    59B2    10.539795  
      45B1    10.540947    60B2    10.549600    37A2    10.550648  
      73A1    10.623893    46B1    10.637004    74A1    10.654367  
      61B2    10.693759    75A1    10.709859    62B2    11.041015  
      76A1    11.281567    63B2    11.322942    47B1    11.421359  
      77A1    11.426227    64B2    11.426679    38A2    11.434367  
      48B1    11.585049    65B2    11.611243    39A2    11.659225  
      78A1    11.707387    49B1    12.073363    79A1    12.106753  
      40A2    12.122761    66B2    12.209210    80A1    12.343184  
      67B2    12.396609    50B1    12.417621    41A2    12.499566  
      81A1    12.594270    51B1    12.753508    42A2    12.755733  
      68B2    12.828438    69B2    12.860813    82A1    12.895267  
      83A1    13.454590    70B2    13.741999    84A1    23.673581  
      71B2    41.776614    85A1    42.075731  

    Final Occupation by Irrep:
             A1    A2    B1    B2 
    DOCC [     8,    1,    2,    5 ]

  @DF-RKS Final Energy:  -548.61058482728777

   => Energetics <=

    Nuclear Repulsion Energy =            108.0339909494544202
    One-Electron Energy =                -970.1336251089520601
    Two-Electron Energy =                 345.0444817533058881
    DFT Exchange-Correlation Energy =     -31.6880157327776857
    Empirical Dispersion Energy =           0.0000000000000000
    VV10 Nonlocal Energy =                  0.1325833116816902
    Total Energy =                       -548.6105848272877665

Computation Completed


Properties will be evaluated at   0.000000,   0.000000,   0.000000 [a0]

Properties computed using the SCF density matrix

  Nuclear Dipole Moment: [e a0]
     X:     0.0000      Y:     0.0000      Z:    -0.0061

  Electronic Dipole Moment: [e a0]
     X:     0.0000      Y:     0.0000      Z:    -0.6639

  Dipole Moment: [e a0]
     X:     0.0000      Y:     0.0000      Z:    -0.6700     Total:     0.6700

  Dipole Moment: [D]
     X:     0.0000      Y:     0.0000      Z:    -1.7029     Total:     1.7029


*** tstop() called on bp1-compute00047.data.bp.acrc.priv at Tue Apr 27 16:41:23 2021
Module time:
	user time   =     128.07 seconds =       2.13 minutes
	system time =       9.85 seconds =       0.16 minutes
	total time  =          6 seconds =       0.10 minutes
Total time:
	user time   =     128.07 seconds =       2.13 minutes
	system time =       9.85 seconds =       0.16 minutes
	total time  =          6 seconds =       0.10 minutes

  //>>>>>>>>>>>>>>>>>>>>>>>>>>>>>>>>>>>//
  //    Loading displacement 2 of 5    //
  //<<<<<<<<<<<<<<<<<<<<<<<<<<<<<<<<<<<//

*** tstart() called on bp1-compute00047.data.bp.acrc.priv
*** at Tue Apr 27 16:41:23 2021

   => Loading Basis Set <=

    Name: AUG-CC-PV(Q+D)Z
    Role: ORBITAL
    Keyword: BASIS
    atoms 1   entry S          line  1148 file /work/zw18965/.conda/envs/p4env/share/psi4/basis/aug-cc-pv_qpd_z.gbs 
    atoms 2-3 entry O          line   439 file /work/zw18965/.conda/envs/p4env/share/psi4/basis/aug-cc-pv_qpd_z.gbs 


         ---------------------------------------------------------
                                   SCF
               by Justin Turney, Rob Parrish, Andy Simmonett
                          and Daniel G. A. Smith
                              RKS Reference
                       24 Threads, 137329 MiB Core
         ---------------------------------------------------------

  ==> Geometry <==

    Molecular point group: c2v
    Full point group: C2v

    Geometry (in Angstrom), charge = 0, multiplicity = 1:

       Center              X                  Y                   Z               Mass       
    ------------   -----------------  -----------------  -----------------  -----------------
         S           -0.000000000000     0.000000000000    -0.362638314850    31.972071174400
         O           -0.000000000000     1.239318267683     0.362437008534    15.994914619570
         O            0.000000000000    -1.239318267683     0.362437008534    15.994914619570

  Running in c2v symmetry.

  Rotational constants: A =      2.00525  B =      0.34310  C =      0.29297 [cm^-1]
  Rotational constants: A =  60115.93627  B =  10285.83551  C =   8783.05498 [MHz]
  Nuclear repulsion =  108.012037764378604

  Charge       = 0
  Multiplicity = 1
  Electrons    = 32
  Nalpha       = 16
  Nbeta        = 16

  ==> Algorithm <==

  SCF Algorithm Type is DF.
  DIIS enabled.
  MOM disabled.
  Fractional occupation disabled.
  Guess Type is SAD.
  Energy threshold   = 1.00e-08
  Density threshold  = 1.00e-08
  Integral threshold = 0.00e+00

  ==> Primary Basis <==

  Basis Set: AUG-CC-PV(Q+D)Z
    Blend: AUG-CC-PV(Q+D)Z
    Number of shells: 63
    Number of basis function: 249
    Number of Cartesian functions: 325
    Spherical Harmonics?: true
    Max angular momentum: 4

  ==> DFT Potential <==

   => Composite Functional: WB97X-V <= 

    wB97X-V Hyb-GGA Exchange-Correlation Functional

    N. Mardirossian and M. Head-Gordon, Phys. Chem. Chem. Phys. 16, 9904 (2014)

    Deriv               =              1
    GGA                 =           TRUE
    Meta                =          FALSE

    Exchange Hybrid     =           TRUE
    MP2 Hybrid          =          FALSE

   => Exchange-Correlation Functionals <=

    1.0000   wB97X-V range-separated functional

   => Exact (HF) Exchange <=

    0.8330            HF,LR [omega = 0.3000]
    0.1670               HF 

   => VV10 Non-Local Parameters <=

    VV10 B              =     6.0000E+00
    VV10 C              =     1.0000E-02

   => Molecular Quadrature <=

    Radial Scheme          =       TREUTLER
    Pruning Scheme         =           FLAT
    Nuclear Scheme         =       TREUTLER

    BS radius alpha        =              1
    Pruning alpha          =              1
    Radial Points          =             75
    Spherical Points       =            302
    Total Points           =          67950
    Total Blocks           =            600
    Max Points             =            256
    Max Functions          =            249

   => Loading Basis Set <=

    Name: (AUG-CC-PV(Q+D)Z AUX)
    Role: JKFIT
    Keyword: DF_BASIS_SCF
    atoms 1   entry S          line   810 file /work/zw18965/.conda/envs/p4env/share/psi4/basis/aug-cc-pvqz-jkfit.gbs 
    atoms 2-3 entry O          line   318 file /work/zw18965/.conda/envs/p4env/share/psi4/basis/aug-cc-pvqz-jkfit.gbs 

  ==> Pre-Iterations <==

   -------------------------------------------------------
    Irrep   Nso     Nmo     Nalpha   Nbeta   Ndocc  Nsocc
   -------------------------------------------------------
     A1        85      85       0       0       0       0
     A2        42      42       0       0       0       0
     B1        51      51       0       0       0       0
     B2        71      71       0       0       0       0
   -------------------------------------------------------
    Total     249     249      16      16      16       0
   -------------------------------------------------------

  ==> Integral Setup <==

  ==> DiskDFJK: Density-Fitted J/K Matrices <==

    J tasked:                  Yes
    K tasked:                  Yes
    wK tasked:                 Yes
    Omega:               3.000E-01
    OpenMP threads:             24
    Integrals threads:          24
    Memory [MiB]:           102578
    Algorithm:                Core
    Integral Cache:           NONE
    Schwarz Cutoff:          1E-12
    Fitting Condition:       1E-10

   => Auxiliary Basis Set <=

  Basis Set: (AUG-CC-PV(Q+D)Z AUX)
    Blend: AUG-CC-PVQZ-JKFIT
    Number of shells: 114
    Number of basis function: 468
    Number of Cartesian functions: 643
    Spherical Harmonics?: true
    Max angular momentum: 5

  Cached 100.0% of DFT collocation blocks in 0.409 [GiB].

  Minimum eigenvalue in the overlap matrix is 8.8704761676E-05.
  Using Symmetric Orthogonalization.

  SCF Guess: Superposition of Atomic Densities via on-the-fly atomic UHF.

  ==> Iterations <==

                           Total Energy        Delta E     RMS |[F,P]|

   @DF-RKS iter SAD:  -548.38756211471161   -5.48388e+02   0.00000e+00 
   @DF-RKS iter   1:  -548.42230309872605   -3.47410e-02   5.64631e-03 DIIS
   @DF-RKS iter   2:  -548.30928441216997    1.13019e-01   7.37154e-03 DIIS
   @DF-RKS iter   3:  -548.60992075476315   -3.00636e-01   3.55577e-04 DIIS
   @DF-RKS iter   4:  -548.61050612582335   -5.85371e-04   6.66064e-05 DIIS
   @DF-RKS iter   5:  -548.61056746955796   -6.13437e-05   1.21870e-05 DIIS
   @DF-RKS iter   6:  -548.61057061001725   -3.14046e-06   3.47832e-06 DIIS
   @DF-RKS iter   7:  -548.61057090912482   -2.99108e-07   8.71944e-07 DIIS
   @DF-RKS iter   8:  -548.61057093373120   -2.46064e-08   3.22667e-07 DIIS
   @DF-RKS iter   9:  -548.61057093496368   -1.23248e-09   7.00788e-08 DIIS
   @DF-RKS iter  10:  -548.61057093503575   -7.20775e-11   1.37471e-08 DIIS
   @DF-RKS iter  11:  -548.61057093503871   -2.95586e-12   2.46331e-09 DIIS
  Energy and wave function converged.


  ==> Post-Iterations <==

    Orbital Energies [Eh]
    ---------------------

    Doubly Occupied:                                                      

       1A1   -89.077451     1B2   -19.274979     2A1   -19.274965  
       3A1    -8.212622     1B1    -6.170964     2B2    -6.167131  
       4A1    -6.163609     5A1    -1.284012     3B2    -1.188612  
       6A1    -0.762333     7A1    -0.616102     2B1    -0.615964  
       4B2    -0.612095     1A2    -0.486348     5B2    -0.476191  
       8A1    -0.445136  

    Virtual:                                                              

       3B1    -0.043493     9A1     0.052510    10A1     0.060713  
       6B2     0.063352     4B1     0.067519    11A1     0.123477  
       7B2     0.133305    12A1     0.142352     2A2     0.149885  
       8B2     0.159144     5B1     0.168450    13A1     0.171203  
       9B2     0.201474     6B1     0.214376    14A1     0.234068  
      15A1     0.265622     3A2     0.271879    10B2     0.284481  
      11B2     0.300455    16A1     0.305369     7B1     0.327249  
      17A1     0.364100     8B1     0.430600    12B2     0.442875  
      18A1     0.443701     4A2     0.450751    19A1     0.460642  
       9B1     0.484520    20A1     0.493855    13B2     0.543154  
      14B2     0.563960    21A1     0.574997     5A2     0.583747  
      10B1     0.586073     6A2     0.597516    11B1     0.622906  
      15B2     0.626748    22A1     0.636297    16B2     0.649353  
       7A2     0.654955    23A1     0.682342    24A1     0.708282  
      12B1     0.739998    17B2     0.762623    25A1     0.769592  
      18B2     0.784195    13B1     0.857595     8A2     0.861270  
      26A1     0.883118    27A1     0.974871    19B2     1.010581  
      20B2     1.046630    21B2     1.105319    28A1     1.120748  
      14B1     1.137720    29A1     1.137872    15B1     1.219197  
      30A1     1.233541     9A2     1.255729    31A1     1.279240  
      16B1     1.289882    10A2     1.313576    22B2     1.332044  
      23B2     1.342663    17B1     1.345779    24B2     1.386796  
      32A1     1.393588    11A2     1.401846    12A2     1.424301  
      25B2     1.435053    33A1     1.446061    18B1     1.482754  
      19B1     1.517609    34A1     1.525422    26B2     1.543000  
      35A1     1.554692    13A2     1.583054    20B1     1.601981  
      27B2     1.611205    36A1     1.629722    14A2     1.685989  
      28B2     1.693661    37A1     1.701175    21B1     1.710212  
      38A1     1.724626    29B2     1.839279    15A2     1.928659  
      30B2     1.935326    39A1     1.977828    22B1     1.981438  
      40A1     2.065746    23B1     2.116277    31B2     2.128256  
      41A1     2.134099    24B1     2.146424    16A2     2.151981  
      42A1     2.157933    32B2     2.166871    33B2     2.226077  
      17A2     2.251193    43A1     2.445813    34B2     2.616806  
      44A1     2.638632    25B1     2.737016    18A2     2.751501  
      45A1     2.838510    35B2     3.036559    46A1     3.056468  
      36B2     3.199089    19A2     3.220714    26B1     3.227311  
      47A1     3.240007    27B1     3.247672    48A1     3.306706  
      20A2     3.307328    28B1     3.315870    49A1     3.359087  
      37B2     3.363825    38B2     3.394501    29B1     3.459440  
      21A2     3.462910    50A1     3.473119    51A1     3.524752  
      39B2     3.548088    30B1     3.559145    22A2     3.579674  
      40B2     3.639179    52A1     3.642271    23A2     3.676894  
      41B2     3.742940    31B1     3.777911    53A1     3.851614  
      42B2     3.877058    43B2     3.891918    24A2     3.892230  
      54A1     3.919323    32B1     3.937575    25A2     3.949713  
      55A1     3.990188    44B2     3.994186    33B1     4.009616  
      56A1     4.034696    57A1     4.099623    45B2     4.104080  
      34B1     4.119871    26A2     4.144147    35B1     4.266054  
      58A1     4.307116    36B1     4.330028    46B2     4.351463  
      47B2     4.371106    27A2     4.373415    59A1     4.417311  
      48B2     4.531061    60A1     4.544949    61A1     4.595979  
      28A2     4.619310    49B2     4.648326    50B2     4.777063  
      37B1     4.777488    62A1     4.890870    29A2     4.912771  
      38B1     4.950673    39B1     5.061515    63A1     5.098149  
      30A2     5.202903    51B2     5.230097    52B2     5.329367  
      64A1     5.400361    31A2     5.563642    65A1     5.696887  
      53B2     5.711680    54B2     6.081328    66A1     6.151742  
      40B1     6.494048    67A1     7.360605    55B2     8.185705  
      41B1     8.818483    68A1     8.834828    32A2     9.006543  
      69A1     9.181087    56B2     9.894029    42B1    10.213902  
      70A1    10.225278    33A2    10.231122    57B2    10.245148  
      58B2    10.316151    43B1    10.382314    34A2    10.388064  
      71A1    10.394958    35A2    10.492569    44B1    10.501714  
      72A1    10.519130    36A2    10.528988    59B2    10.539766  
      45B1    10.540661    60B2    10.549646    37A2    10.550413  
      73A1    10.623284    46B1    10.636388    74A1    10.653995  
      61B2    10.693618    75A1    10.709468    62B2    11.040976  
      76A1    11.281587    63B2    11.322868    47B1    11.421339  
      77A1    11.426230    64B2    11.426728    38A2    11.434421  
      48B1    11.584976    65B2    11.610900    39A2    11.658811  
      78A1    11.707304    49B1    12.072843    79A1    12.106688  
      40A2    12.121941    66B2    12.208507    80A1    12.341949  
      67B2    12.396399    50B1    12.417495    41A2    12.498965  
      81A1    12.593971    51B1    12.753474    42A2    12.755812  
      68B2    12.828583    69B2    12.860780    82A1    12.894971  
      83A1    13.453624    70B2    13.739687    84A1    23.667386  
      71B2    41.774454    85A1    42.073831  

    Final Occupation by Irrep:
             A1    A2    B1    B2 
    DOCC [     8,    1,    2,    5 ]

  @DF-RKS Final Energy:  -548.61057093503871

   => Energetics <=

    Nuclear Repulsion Energy =            108.0120377643786043
    One-Electron Energy =                -970.0903216909836146
    Two-Electron Energy =                 345.0227330604390090
    DFT Exchange-Correlation Energy =     -31.6876038897735626
    Empirical Dispersion Energy =           0.0000000000000000
    VV10 Nonlocal Energy =                  0.1325838209008421
    Total Energy =                       -548.6105709350385951

Computation Completed


Properties will be evaluated at   0.000000,   0.000000,   0.000000 [a0]

Properties computed using the SCF density matrix

  Nuclear Dipole Moment: [e a0]
     X:     0.0000      Y:     0.0000      Z:    -0.0061

  Electronic Dipole Moment: [e a0]
     X:     0.0000      Y:     0.0000      Z:    -0.6652

  Dipole Moment: [e a0]
     X:     0.0000      Y:     0.0000      Z:    -0.6713     Total:     0.6713

  Dipole Moment: [D]
     X:     0.0000      Y:     0.0000      Z:    -1.7062     Total:     1.7062


*** tstop() called on bp1-compute00047.data.bp.acrc.priv at Tue Apr 27 16:41:30 2021
Module time:
	user time   =     139.62 seconds =       2.33 minutes
	system time =       8.12 seconds =       0.14 minutes
	total time  =          7 seconds =       0.12 minutes
Total time:
	user time   =     267.83 seconds =       4.46 minutes
	system time =      17.98 seconds =       0.30 minutes
	total time  =         13 seconds =       0.22 minutes

  //>>>>>>>>>>>>>>>>>>>>>>>>>>>>>>>>>>>//
  //    Loading displacement 3 of 5    //
  //<<<<<<<<<<<<<<<<<<<<<<<<<<<<<<<<<<<//

*** tstart() called on bp1-compute00047.data.bp.acrc.priv
*** at Tue Apr 27 16:41:30 2021

   => Loading Basis Set <=

    Name: AUG-CC-PV(Q+D)Z
    Role: ORBITAL
    Keyword: BASIS
    atoms 1   entry S          line  1148 file /work/zw18965/.conda/envs/p4env/share/psi4/basis/aug-cc-pv_qpd_z.gbs 
    atoms 2-3 entry O          line   439 file /work/zw18965/.conda/envs/p4env/share/psi4/basis/aug-cc-pv_qpd_z.gbs 


         ---------------------------------------------------------
                                   SCF
               by Justin Turney, Rob Parrish, Andy Simmonett
                          and Daniel G. A. Smith
                              RKS Reference
                       24 Threads, 137329 MiB Core
         ---------------------------------------------------------

  ==> Geometry <==

    Molecular point group: c2v
    Full point group: C2v

    Geometry (in Angstrom), charge = 0, multiplicity = 1:

       Center              X                  Y                   Z               Mass       
    ------------   -----------------  -----------------  -----------------  -----------------
         S           -0.000000000000     0.000000000000    -0.361976462632    31.972071174400
         O           -0.000000000000     1.239318267683     0.361775523720    15.994914619570
         O            0.000000000000    -1.239318267683     0.361775523720    15.994914619570

  Running in c2v symmetry.

  Rotational constants: A =      2.01259  B =      0.34310  C =      0.29313 [cm^-1]
  Rotational constants: A =  60335.97400  B =  10285.83551  C =   8787.73722 [MHz]
  Nuclear repulsion =  108.055939402465469

  Charge       = 0
  Multiplicity = 1
  Electrons    = 32
  Nalpha       = 16
  Nbeta        = 16

  ==> Algorithm <==

  SCF Algorithm Type is DF.
  DIIS enabled.
  MOM disabled.
  Fractional occupation disabled.
  Guess Type is SAD.
  Energy threshold   = 1.00e-08
  Density threshold  = 1.00e-08
  Integral threshold = 0.00e+00

  ==> Primary Basis <==

  Basis Set: AUG-CC-PV(Q+D)Z
    Blend: AUG-CC-PV(Q+D)Z
    Number of shells: 63
    Number of basis function: 249
    Number of Cartesian functions: 325
    Spherical Harmonics?: true
    Max angular momentum: 4

  ==> DFT Potential <==

   => Composite Functional: WB97X-V <= 

    wB97X-V Hyb-GGA Exchange-Correlation Functional

    N. Mardirossian and M. Head-Gordon, Phys. Chem. Chem. Phys. 16, 9904 (2014)

    Deriv               =              1
    GGA                 =           TRUE
    Meta                =          FALSE

    Exchange Hybrid     =           TRUE
    MP2 Hybrid          =          FALSE

   => Exchange-Correlation Functionals <=

    1.0000   wB97X-V range-separated functional

   => Exact (HF) Exchange <=

    0.8330            HF,LR [omega = 0.3000]
    0.1670               HF 

   => VV10 Non-Local Parameters <=

    VV10 B              =     6.0000E+00
    VV10 C              =     1.0000E-02

   => Molecular Quadrature <=

    Radial Scheme          =       TREUTLER
    Pruning Scheme         =           FLAT
    Nuclear Scheme         =       TREUTLER

    BS radius alpha        =              1
    Pruning alpha          =              1
    Radial Points          =             75
    Spherical Points       =            302
    Total Points           =          67950
    Total Blocks           =            599
    Max Points             =            256
    Max Functions          =            249

   => Loading Basis Set <=

    Name: (AUG-CC-PV(Q+D)Z AUX)
    Role: JKFIT
    Keyword: DF_BASIS_SCF
    atoms 1   entry S          line   810 file /work/zw18965/.conda/envs/p4env/share/psi4/basis/aug-cc-pvqz-jkfit.gbs 
    atoms 2-3 entry O          line   318 file /work/zw18965/.conda/envs/p4env/share/psi4/basis/aug-cc-pvqz-jkfit.gbs 

  ==> Pre-Iterations <==

   -------------------------------------------------------
    Irrep   Nso     Nmo     Nalpha   Nbeta   Ndocc  Nsocc
   -------------------------------------------------------
     A1        85      85       0       0       0       0
     A2        42      42       0       0       0       0
     B1        51      51       0       0       0       0
     B2        71      71       0       0       0       0
   -------------------------------------------------------
    Total     249     249      16      16      16       0
   -------------------------------------------------------

  ==> Integral Setup <==

  ==> DiskDFJK: Density-Fitted J/K Matrices <==

    J tasked:                  Yes
    K tasked:                  Yes
    wK tasked:                 Yes
    Omega:               3.000E-01
    OpenMP threads:             24
    Integrals threads:          24
    Memory [MiB]:           102578
    Algorithm:                Core
    Integral Cache:           NONE
    Schwarz Cutoff:          1E-12
    Fitting Condition:       1E-10

   => Auxiliary Basis Set <=

  Basis Set: (AUG-CC-PV(Q+D)Z AUX)
    Blend: AUG-CC-PVQZ-JKFIT
    Number of shells: 114
    Number of basis function: 468
    Number of Cartesian functions: 643
    Spherical Harmonics?: true
    Max angular momentum: 5

  Cached 100.0% of DFT collocation blocks in 0.409 [GiB].

  Minimum eigenvalue in the overlap matrix is 8.8540056624E-05.
  Using Symmetric Orthogonalization.

  SCF Guess: Superposition of Atomic Densities via on-the-fly atomic UHF.

  ==> Iterations <==

                           Total Energy        Delta E     RMS |[F,P]|

   @DF-RKS iter SAD:  -548.39035535020957   -5.48390e+02   0.00000e+00 
   @DF-RKS iter   1:  -548.42258817200445   -3.22328e-02   5.64393e-03 DIIS
   @DF-RKS iter   2:  -548.31038509855671    1.12203e-01   7.36024e-03 DIIS
   @DF-RKS iter   3:  -548.60994743068898   -2.99562e-01   3.55582e-04 DIIS
   @DF-RKS iter   4:  -548.61053312759009   -5.85697e-04   6.65371e-05 DIIS
   @DF-RKS iter   5:  -548.61059449198387   -6.13644e-05   1.21894e-05 DIIS
   @DF-RKS iter   6:  -548.61059763463777   -3.14265e-06   3.49054e-06 DIIS
   @DF-RKS iter   7:  -548.61059793533013   -3.00692e-07   8.74503e-07 DIIS
   @DF-RKS iter   8:  -548.61059796007373   -2.47436e-08   3.24407e-07 DIIS
   @DF-RKS iter   9:  -548.61059796132099   -1.24726e-09   7.08295e-08 DIIS
   @DF-RKS iter  10:  -548.61059796139443   -7.34417e-11   1.37468e-08 DIIS
   @DF-RKS iter  11:  -548.61059796139773   -3.29692e-12   2.46997e-09 DIIS
  Energy and wave function converged.


  ==> Post-Iterations <==

    Orbital Energies [Eh]
    ---------------------

    Doubly Occupied:                                                      

       1A1   -89.077252     1B2   -19.274963     2A1   -19.274949  
       3A1    -8.212452     1B1    -6.170793     2B2    -6.166959  
       4A1    -6.163438     5A1    -1.284343     3B2    -1.188957  
       6A1    -0.762141     7A1    -0.616261     2B1    -0.616168  
       4B2    -0.612198     1A2    -0.486567     5B2    -0.476416  
       8A1    -0.445026  

    Virtual:                                                              

       3B1    -0.043221     9A1     0.052526    10A1     0.060734  
       6B2     0.063391     4B1     0.067527    11A1     0.123492  
       7B2     0.133373    12A1     0.142302     2A2     0.149833  
       8B2     0.159438     5B1     0.168467    13A1     0.171290  
       9B2     0.201461     6B1     0.214329    14A1     0.233984  
      15A1     0.265640     3A2     0.272047    10B2     0.284679  
      11B2     0.300580    16A1     0.305437     7B1     0.327202  
      17A1     0.364085     8B1     0.430592    12B2     0.442915  
      18A1     0.443751     4A2     0.450831    19A1     0.460568  
       9B1     0.484617    20A1     0.493901    13B2     0.543098  
      14B2     0.564016    21A1     0.575178     5A2     0.583613  
      10B1     0.586135     6A2     0.597706    11B1     0.622922  
      15B2     0.626894    22A1     0.636273    16B2     0.649442  
       7A2     0.655074    23A1     0.682570    24A1     0.708256  
      12B1     0.740274    17B2     0.762744    25A1     0.769905  
      18B2     0.784319    13B1     0.857453     8A2     0.861159  
      26A1     0.883044    27A1     0.975300    19B2     1.010521  
      20B2     1.047100    21B2     1.105229    28A1     1.120970  
      14B1     1.137737    29A1     1.138009    15B1     1.219348  
      30A1     1.233686     9A2     1.255484    31A1     1.279311  
      16B1     1.289908    10A2     1.313583    22B2     1.332179  
      23B2     1.343083    17B1     1.345879    24B2     1.386581  
      32A1     1.393667    11A2     1.402116    12A2     1.424374  
      25B2     1.434924    33A1     1.445981    18B1     1.483048  
      19B1     1.517648    34A1     1.525631    26B2     1.543394  
      35A1     1.554706    13A2     1.583447    20B1     1.602350  
      27B2     1.611525    36A1     1.629846    14A2     1.685731  
      28B2     1.693794    37A1     1.701200    21B1     1.710531  
      38A1     1.724919    29B2     1.838951    15A2     1.929037  
      30B2     1.935340    39A1     1.978184    22B1     1.981977  
      40A1     2.066326    23B1     2.115706    31B2     2.129020  
      41A1     2.133856    24B1     2.146513    16A2     2.151684  
      42A1     2.157546    32B2     2.168037    33B2     2.225774  
      17A2     2.252307    43A1     2.445914    34B2     2.617131  
      44A1     2.639111    25B1     2.737331    18A2     2.751728  
      45A1     2.839132    35B2     3.036847    46A1     3.057790  
      36B2     3.199429    19A2     3.220893    26B1     3.227830  
      47A1     3.240078    27B1     3.247836    48A1     3.307144  
      20A2     3.307605    28B1     3.316280    49A1     3.359338  
      37B2     3.364038    38B2     3.395324    29B1     3.459532  
      21A2     3.463758    50A1     3.473158    51A1     3.524941  
      39B2     3.548146    30B1     3.559381    22A2     3.579731  
      40B2     3.639090    52A1     3.642914    23A2     3.676654  
      41B2     3.743515    31B1     3.778029    53A1     3.851895  
      42B2     3.876327    43B2     3.891944    24A2     3.892803  
      54A1     3.919346    32B1     3.938255    25A2     3.949629  
      55A1     3.990356    44B2     3.994086    33B1     4.010305  
      56A1     4.035259    57A1     4.099930    45B2     4.104267  
      34B1     4.120028    26A2     4.143922    35B1     4.266420  
      58A1     4.307173    36B1     4.330725    46B2     4.351807  
      47B2     4.372691    27A2     4.373730    59A1     4.417769  
      48B2     4.532682    60A1     4.545688    61A1     4.597304  
      28A2     4.620538    49B2     4.649284    50B2     4.777082  
      37B1     4.778463    62A1     4.891098    29A2     4.913296  
      38B1     4.951684    39B1     5.061683    63A1     5.098573  
      30A2     5.206114    51B2     5.231154    52B2     5.332835  
      64A1     5.400713    31A2     5.564412    65A1     5.700179  
      53B2     5.711939    54B2     6.082655    66A1     6.154430  
      40B1     6.496016    67A1     7.361099    55B2     8.188900  
      41B1     8.818717    68A1     8.834883    32A2     9.007545  
      69A1     9.182245    56B2     9.895884    42B1    10.213992  
      70A1    10.225303    33A2    10.231057    57B2    10.245005  
      58B2    10.316290    43B1    10.382702    34A2    10.387822  
      71A1    10.395765    35A2    10.492872    44B1    10.501654  
      72A1    10.518952    36A2    10.529126    59B2    10.539824  
      45B1    10.541231    60B2    10.549554    37A2    10.550889  
      73A1    10.624496    46B1    10.637622    74A1    10.654744  
      61B2    10.693898    75A1    10.710256    62B2    11.041050  
      76A1    11.281546    63B2    11.323017    47B1    11.421378  
      77A1    11.426225    64B2    11.426629    38A2    11.434313  
      48B1    11.585123    65B2    11.611586    39A2    11.659640  
      78A1    11.707468    49B1    12.073881    79A1    12.106820  
      40A2    12.123582    66B2    12.209913    80A1    12.344413  
      67B2    12.396820    50B1    12.417746    41A2    12.500167  
      81A1    12.594570    51B1    12.753543    42A2    12.755654  
      68B2    12.828291    69B2    12.860848    82A1    12.895568  
      83A1    13.455555    70B2    13.744311    84A1    23.679777  
      71B2    41.778776    85A1    42.077628  

    Final Occupation by Irrep:
             A1    A2    B1    B2 
    DOCC [     8,    1,    2,    5 ]

  @DF-RKS Final Energy:  -548.61059796139773

   => Energetics <=

    Nuclear Repulsion Energy =            108.0559394024654694
    One-Electron Energy =                -970.1769181049357940
    Two-Electron Energy =                 345.0662255058066421
    DFT Exchange-Correlation Energy =     -31.6884275671652880
    Empirical Dispersion Energy =           0.0000000000000000
    VV10 Nonlocal Energy =                  0.1325828024312728
    Total Energy =                       -548.6105979613976160

Computation Completed


Properties will be evaluated at   0.000000,   0.000000,   0.000000 [a0]

Properties computed using the SCF density matrix

  Nuclear Dipole Moment: [e a0]
     X:     0.0000      Y:     0.0000      Z:    -0.0061

  Electronic Dipole Moment: [e a0]
     X:     0.0000      Y:     0.0000      Z:    -0.6626

  Dipole Moment: [e a0]
     X:     0.0000      Y:     0.0000      Z:    -0.6687     Total:     0.6687

  Dipole Moment: [D]
     X:     0.0000      Y:     0.0000      Z:    -1.6996     Total:     1.6996


*** tstop() called on bp1-compute00047.data.bp.acrc.priv at Tue Apr 27 16:41:36 2021
Module time:
	user time   =     129.55 seconds =       2.16 minutes
	system time =       7.17 seconds =       0.12 minutes
	total time  =          6 seconds =       0.10 minutes
Total time:
	user time   =     397.54 seconds =       6.63 minutes
	system time =      25.16 seconds =       0.42 minutes
	total time  =         19 seconds =       0.32 minutes

  //>>>>>>>>>>>>>>>>>>>>>>>>>>>>>>>>>>>//
  //    Loading displacement 4 of 5    //
  //<<<<<<<<<<<<<<<<<<<<<<<<<<<<<<<<<<<//

*** tstart() called on bp1-compute00047.data.bp.acrc.priv
*** at Tue Apr 27 16:41:36 2021

   => Loading Basis Set <=

    Name: AUG-CC-PV(Q+D)Z
    Role: ORBITAL
    Keyword: BASIS
    atoms 1   entry S          line  1148 file /work/zw18965/.conda/envs/p4env/share/psi4/basis/aug-cc-pv_qpd_z.gbs 
    atoms 2-3 entry O          line   439 file /work/zw18965/.conda/envs/p4env/share/psi4/basis/aug-cc-pv_qpd_z.gbs 


         ---------------------------------------------------------
                                   SCF
               by Justin Turney, Rob Parrish, Andy Simmonett
                          and Daniel G. A. Smith
                              RKS Reference
                       24 Threads, 137329 MiB Core
         ---------------------------------------------------------

  ==> Geometry <==

    Molecular point group: c2v
    Full point group: C2v

    Geometry (in Angstrom), charge = 0, multiplicity = 1:

       Center              X                  Y                   Z               Mass       
    ------------   -----------------  -----------------  -----------------  -----------------
         S            0.000000000000     0.000000000000    -0.362307388741    31.972071174400
         O           -0.000000000000     1.238850462342     0.362106266127    15.994914619570
         O            0.000000000000    -1.238850462342     0.362106266127    15.994914619570

  Running in c2v symmetry.

  Rotational constants: A =      2.00892  B =      0.34336  C =      0.29324 [cm^-1]
  Rotational constants: A =  60225.80440  B =  10293.60510  C =   8791.06407 [MHz]
  Nuclear repulsion =  108.065707167490743

  Charge       = 0
  Multiplicity = 1
  Electrons    = 32
  Nalpha       = 16
  Nbeta        = 16

  ==> Algorithm <==

  SCF Algorithm Type is DF.
  DIIS enabled.
  MOM disabled.
  Fractional occupation disabled.
  Guess Type is SAD.
  Energy threshold   = 1.00e-08
  Density threshold  = 1.00e-08
  Integral threshold = 0.00e+00

  ==> Primary Basis <==

  Basis Set: AUG-CC-PV(Q+D)Z
    Blend: AUG-CC-PV(Q+D)Z
    Number of shells: 63
    Number of basis function: 249
    Number of Cartesian functions: 325
    Spherical Harmonics?: true
    Max angular momentum: 4

  ==> DFT Potential <==

   => Composite Functional: WB97X-V <= 

    wB97X-V Hyb-GGA Exchange-Correlation Functional

    N. Mardirossian and M. Head-Gordon, Phys. Chem. Chem. Phys. 16, 9904 (2014)

    Deriv               =              1
    GGA                 =           TRUE
    Meta                =          FALSE

    Exchange Hybrid     =           TRUE
    MP2 Hybrid          =          FALSE

   => Exchange-Correlation Functionals <=

    1.0000   wB97X-V range-separated functional

   => Exact (HF) Exchange <=

    0.8330            HF,LR [omega = 0.3000]
    0.1670               HF 

   => VV10 Non-Local Parameters <=

    VV10 B              =     6.0000E+00
    VV10 C              =     1.0000E-02

   => Molecular Quadrature <=

    Radial Scheme          =       TREUTLER
    Pruning Scheme         =           FLAT
    Nuclear Scheme         =       TREUTLER

    BS radius alpha        =              1
    Pruning alpha          =              1
    Radial Points          =             75
    Spherical Points       =            302
    Total Points           =          67950
    Total Blocks           =            599
    Max Points             =            256
    Max Functions          =            249

   => Loading Basis Set <=

    Name: (AUG-CC-PV(Q+D)Z AUX)
    Role: JKFIT
    Keyword: DF_BASIS_SCF
    atoms 1   entry S          line   810 file /work/zw18965/.conda/envs/p4env/share/psi4/basis/aug-cc-pvqz-jkfit.gbs 
    atoms 2-3 entry O          line   318 file /work/zw18965/.conda/envs/p4env/share/psi4/basis/aug-cc-pvqz-jkfit.gbs 

  ==> Pre-Iterations <==

   -------------------------------------------------------
    Irrep   Nso     Nmo     Nalpha   Nbeta   Ndocc  Nsocc
   -------------------------------------------------------
     A1        85      85       0       0       0       0
     A2        42      42       0       0       0       0
     B1        51      51       0       0       0       0
     B2        71      71       0       0       0       0
   -------------------------------------------------------
    Total     249     249      16      16      16       0
   -------------------------------------------------------

  ==> Integral Setup <==

  ==> DiskDFJK: Density-Fitted J/K Matrices <==

    J tasked:                  Yes
    K tasked:                  Yes
    wK tasked:                 Yes
    Omega:               3.000E-01
    OpenMP threads:             24
    Integrals threads:          24
    Memory [MiB]:           102578
    Algorithm:                Core
    Integral Cache:           NONE
    Schwarz Cutoff:          1E-12
    Fitting Condition:       1E-10

   => Auxiliary Basis Set <=

  Basis Set: (AUG-CC-PV(Q+D)Z AUX)
    Blend: AUG-CC-PVQZ-JKFIT
    Number of shells: 114
    Number of basis function: 468
    Number of Cartesian functions: 643
    Spherical Harmonics?: true
    Max angular momentum: 5

  Cached 100.0% of DFT collocation blocks in 0.409 [GiB].

  Minimum eigenvalue in the overlap matrix is 8.8541038435E-05.
  Using Symmetric Orthogonalization.

  SCF Guess: Superposition of Atomic Densities via on-the-fly atomic UHF.

  ==> Iterations <==

                           Total Energy        Delta E     RMS |[F,P]|

   @DF-RKS iter SAD:  -548.39069531744713   -5.48391e+02   0.00000e+00 
   @DF-RKS iter   1:  -548.42253043055916   -3.18351e-02   5.64487e-03 DIIS
   @DF-RKS iter   2:  -548.31026339697087    1.12267e-01   7.36174e-03 DIIS
   @DF-RKS iter   3:  -548.60995540154033   -2.99692e-01   3.55529e-04 DIIS
   @DF-RKS iter   4:  -548.61054084532736   -5.85444e-04   6.65392e-05 DIIS
   @DF-RKS iter   5:  -548.61060213666747   -6.12913e-05   1.21785e-05 DIIS
   @DF-RKS iter   6:  -548.61060527013854   -3.13347e-06   3.48434e-06 DIIS
   @DF-RKS iter   7:  -548.61060556939015   -2.99252e-07   8.73032e-07 DIIS
   @DF-RKS iter   8:  -548.61060559400846   -2.46183e-08   3.24148e-07 DIIS
   @DF-RKS iter   9:  -548.61060559525254   -1.24408e-09   7.08030e-08 DIIS
   @DF-RKS iter  10:  -548.61060559532484   -7.23048e-11   1.36940e-08 DIIS
   @DF-RKS iter  11:  -548.61060559532837   -3.52429e-12   2.45915e-09 DIIS
  Energy and wave function converged.


  ==> Post-Iterations <==

    Orbital Energies [Eh]
    ---------------------

    Doubly Occupied:                                                      

       1A1   -89.077232     1B2   -19.274903     2A1   -19.274889  
       3A1    -8.212444     1B1    -6.170786     2B2    -6.166952  
       4A1    -6.163428     5A1    -1.284382     3B2    -1.188906  
       6A1    -0.762136     7A1    -0.616275     2B1    -0.616179  
       4B2    -0.612159     1A2    -0.486522     5B2    -0.476324  
       8A1    -0.445092  

    Virtual:                                                              

       3B1    -0.043230     9A1     0.052527    10A1     0.060742  
       6B2     0.063376     4B1     0.067522    11A1     0.123561  
       7B2     0.133341    12A1     0.142333     2A2     0.149858  
       8B2     0.159339     5B1     0.168451    13A1     0.171291  
       9B2     0.201466     6B1     0.214393    14A1     0.234086  
      15A1     0.265694     3A2     0.271972    10B2     0.284614  
      11B2     0.300533    16A1     0.305475     7B1     0.327231  
      17A1     0.364097     8B1     0.430627    12B2     0.442909  
      18A1     0.443835     4A2     0.450821    19A1     0.460652  
       9B1     0.484593    20A1     0.493894    13B2     0.543171  
      14B2     0.564016    21A1     0.575176     5A2     0.583750  
      10B1     0.586138     6A2     0.597674    11B1     0.622944  
      15B2     0.626835    22A1     0.636385    16B2     0.649387  
       7A2     0.655032    23A1     0.682505    24A1     0.708219  
      12B1     0.740076    17B2     0.762708    25A1     0.769836  
      18B2     0.784288    13B1     0.857455     8A2     0.861188  
      26A1     0.882989    27A1     0.975185    19B2     1.010675  
      20B2     1.047140    21B2     1.105392    28A1     1.120870  
      14B1     1.137769    29A1     1.137992    15B1     1.219247  
      30A1     1.233589     9A2     1.255689    31A1     1.279279  
      16B1     1.289925    10A2     1.313660    22B2     1.332098  
      23B2     1.342904    17B1     1.345917    24B2     1.386872  
      32A1     1.393813    11A2     1.401990    12A2     1.424435  
      25B2     1.435224    33A1     1.446057    18B1     1.483083  
      19B1     1.517664    34A1     1.525604    26B2     1.543290  
      35A1     1.554868    13A2     1.583324    20B1     1.602115  
      27B2     1.611468    36A1     1.629823    14A2     1.686199  
      28B2     1.693943    37A1     1.701167    21B1     1.710556  
      38A1     1.724947    29B2     1.839032    15A2     1.928984  
      30B2     1.935726    39A1     1.977892    22B1     1.981947  
      40A1     2.066244    23B1     2.115695    31B2     2.128851  
      41A1     2.133859    24B1     2.146908    16A2     2.151689  
      42A1     2.157860    32B2     2.167561    33B2     2.225718  
      17A2     2.251705    43A1     2.446354    34B2     2.616925  
      44A1     2.639285    25B1     2.737280    18A2     2.751764  
      45A1     2.838968    35B2     3.036991    46A1     3.057338  
      36B2     3.199409    19A2     3.221007    26B1     3.227823  
      47A1     3.239914    27B1     3.247700    48A1     3.307024  
      20A2     3.307712    28B1     3.316192    49A1     3.359547  
      37B2     3.364288    38B2     3.395419    29B1     3.459430  
      21A2     3.463620    50A1     3.473136    51A1     3.524855  
      39B2     3.548181    30B1     3.559354    22A2     3.579893  
      40B2     3.639526    52A1     3.643058    23A2     3.677216  
      41B2     3.743630    31B1     3.778206    53A1     3.851823  
      42B2     3.876362    43B2     3.892067    24A2     3.892761  
      54A1     3.919299    32B1     3.937753    25A2     3.949725  
      55A1     3.990270    44B2     3.994478    33B1     4.010152  
      56A1     4.035138    57A1     4.100075    45B2     4.104267  
      34B1     4.120293    26A2     4.144462    35B1     4.266587  
      58A1     4.307752    36B1     4.330876    46B2     4.352090  
      47B2     4.372226    27A2     4.373845    59A1     4.418170  
      48B2     4.532419    60A1     4.546109    61A1     4.597041  
      28A2     4.620411    49B2     4.648372    50B2     4.778261  
      37B1     4.778458    62A1     4.891517    29A2     4.913470  
      38B1     4.951999    39B1     5.061679    63A1     5.098676  
      30A2     5.205064    51B2     5.231945    52B2     5.332635  
      64A1     5.401006    31A2     5.564320    65A1     5.699463  
      53B2     5.711926    54B2     6.082297    66A1     6.153327  
      40B1     6.496114    67A1     7.362549    55B2     8.188245  
      41B1     8.818966    68A1     8.835237    32A2     9.007477  
      69A1     9.181965    56B2     9.896121    42B1    10.213903  
      70A1    10.225266    33A2    10.231187    57B2    10.245162  
      58B2    10.316479    43B1    10.382525    34A2    10.388386  
      71A1    10.395375    35A2    10.492905    44B1    10.501714  
      72A1    10.518830    36A2    10.529272    59B2    10.540088  
      45B1    10.541231    60B2    10.549695    37A2    10.550986  
      73A1    10.624117    46B1    10.637086    74A1    10.654405  
      61B2    10.694177    75A1    10.710011    62B2    11.042486  
      76A1    11.281741    63B2    11.322928    47B1    11.421415  
      77A1    11.426303    64B2    11.426731    38A2    11.434435  
      48B1    11.585361    65B2    11.611248    39A2    11.659474  
      78A1    11.708069    49B1    12.074083    79A1    12.106828  
      40A2    12.123540    66B2    12.209194    80A1    12.344082  
      67B2    12.397073    50B1    12.418028    41A2    12.499840  
      81A1    12.594754    51B1    12.753608    42A2    12.755663  
      68B2    12.828963    69B2    12.860586    82A1    12.895243  
      83A1    13.455978    70B2    13.744537    84A1    23.681722  
      71B2    41.778486    85A1    42.077905  

    Final Occupation by Irrep:
             A1    A2    B1    B2 
    DOCC [     8,    1,    2,    5 ]

  @DF-RKS Final Energy:  -548.61060559532837

   => Energetics <=

    Nuclear Repulsion Energy =            108.0657071674907428
    One-Electron Energy =                -970.1969471889360648
    Two-Electron Energy =                 345.0766052812406315
    DFT Exchange-Correlation Energy =     -31.6885529521811229
    Empirical Dispersion Energy =           0.0000000000000000
    VV10 Nonlocal Energy =                  0.1325820970574780
    Total Energy =                       -548.6106055953283658

Computation Completed


Properties will be evaluated at   0.000000,   0.000000,   0.000000 [a0]

Properties computed using the SCF density matrix

  Nuclear Dipole Moment: [e a0]
     X:     0.0000      Y:     0.0000      Z:    -0.0061

  Electronic Dipole Moment: [e a0]
     X:     0.0000      Y:     0.0000      Z:    -0.6638

  Dipole Moment: [e a0]
     X:     0.0000      Y:     0.0000      Z:    -0.6699     Total:     0.6699

  Dipole Moment: [D]
     X:     0.0000      Y:     0.0000      Z:    -1.7026     Total:     1.7026


*** tstop() called on bp1-compute00047.data.bp.acrc.priv at Tue Apr 27 16:41:42 2021
Module time:
	user time   =     126.89 seconds =       2.11 minutes
	system time =       6.63 seconds =       0.11 minutes
	total time  =          6 seconds =       0.10 minutes
Total time:
	user time   =     524.58 seconds =       8.74 minutes
	system time =      31.80 seconds =       0.53 minutes
	total time  =         25 seconds =       0.42 minutes

  //>>>>>>>>>>>>>>>>>>>>>>>>>>>>>>>>>>>//
  //    Loading displacement 5 of 5    //
  //<<<<<<<<<<<<<<<<<<<<<<<<<<<<<<<<<<<//

*** tstart() called on bp1-compute00047.data.bp.acrc.priv
*** at Tue Apr 27 16:41:42 2021

   => Loading Basis Set <=

    Name: AUG-CC-PV(Q+D)Z
    Role: ORBITAL
    Keyword: BASIS
    atoms 1   entry S          line  1148 file /work/zw18965/.conda/envs/p4env/share/psi4/basis/aug-cc-pv_qpd_z.gbs 
    atoms 2-3 entry O          line   439 file /work/zw18965/.conda/envs/p4env/share/psi4/basis/aug-cc-pv_qpd_z.gbs 


         ---------------------------------------------------------
                                   SCF
               by Justin Turney, Rob Parrish, Andy Simmonett
                          and Daniel G. A. Smith
                              RKS Reference
                       24 Threads, 137329 MiB Core
         ---------------------------------------------------------

  ==> Geometry <==

    Molecular point group: c2v
    Full point group: C2v

    Geometry (in Angstrom), charge = 0, multiplicity = 1:

       Center              X                  Y                   Z               Mass       
    ------------   -----------------  -----------------  -----------------  -----------------
         S            0.000000000000     0.000000000000    -0.362307388741    31.972071174400
         O           -0.000000000000     1.239786073025     0.362106266127    15.994914619570
         O            0.000000000000    -1.239786073025     0.362106266127    15.994914619570

  Running in c2v symmetry.

  Rotational constants: A =      2.00892  B =      0.34284  C =      0.29286 [cm^-1]
  Rotational constants: A =  60225.80440  B =  10278.07472  C =   8779.73418 [MHz]
  Nuclear repulsion =  108.002291012488911

  Charge       = 0
  Multiplicity = 1
  Electrons    = 32
  Nalpha       = 16
  Nbeta        = 16

  ==> Algorithm <==

  SCF Algorithm Type is DF.
  DIIS enabled.
  MOM disabled.
  Fractional occupation disabled.
  Guess Type is SAD.
  Energy threshold   = 1.00e-08
  Density threshold  = 1.00e-08
  Integral threshold = 0.00e+00

  ==> Primary Basis <==

  Basis Set: AUG-CC-PV(Q+D)Z
    Blend: AUG-CC-PV(Q+D)Z
    Number of shells: 63
    Number of basis function: 249
    Number of Cartesian functions: 325
    Spherical Harmonics?: true
    Max angular momentum: 4

  ==> DFT Potential <==

   => Composite Functional: WB97X-V <= 

    wB97X-V Hyb-GGA Exchange-Correlation Functional

    N. Mardirossian and M. Head-Gordon, Phys. Chem. Chem. Phys. 16, 9904 (2014)

    Deriv               =              1
    GGA                 =           TRUE
    Meta                =          FALSE

    Exchange Hybrid     =           TRUE
    MP2 Hybrid          =          FALSE

   => Exchange-Correlation Functionals <=

    1.0000   wB97X-V range-separated functional

   => Exact (HF) Exchange <=

    0.8330            HF,LR [omega = 0.3000]
    0.1670               HF 

   => VV10 Non-Local Parameters <=

    VV10 B              =     6.0000E+00
    VV10 C              =     1.0000E-02

   => Molecular Quadrature <=

    Radial Scheme          =       TREUTLER
    Pruning Scheme         =           FLAT
    Nuclear Scheme         =       TREUTLER

    BS radius alpha        =              1
    Pruning alpha          =              1
    Radial Points          =             75
    Spherical Points       =            302
    Total Points           =          67950
    Total Blocks           =            600
    Max Points             =            256
    Max Functions          =            249

   => Loading Basis Set <=

    Name: (AUG-CC-PV(Q+D)Z AUX)
    Role: JKFIT
    Keyword: DF_BASIS_SCF
    atoms 1   entry S          line   810 file /work/zw18965/.conda/envs/p4env/share/psi4/basis/aug-cc-pvqz-jkfit.gbs 
    atoms 2-3 entry O          line   318 file /work/zw18965/.conda/envs/p4env/share/psi4/basis/aug-cc-pvqz-jkfit.gbs 

  ==> Pre-Iterations <==

   -------------------------------------------------------
    Irrep   Nso     Nmo     Nalpha   Nbeta   Ndocc  Nsocc
   -------------------------------------------------------
     A1        85      85       0       0       0       0
     A2        42      42       0       0       0       0
     B1        51      51       0       0       0       0
     B2        71      71       0       0       0       0
   -------------------------------------------------------
    Total     249     249      16      16      16       0
   -------------------------------------------------------

  ==> Integral Setup <==

  ==> DiskDFJK: Density-Fitted J/K Matrices <==

    J tasked:                  Yes
    K tasked:                  Yes
    wK tasked:                 Yes
    Omega:               3.000E-01
    OpenMP threads:             24
    Integrals threads:          24
    Memory [MiB]:           102578
    Algorithm:                Core
    Integral Cache:           NONE
    Schwarz Cutoff:          1E-12
    Fitting Condition:       1E-10

   => Auxiliary Basis Set <=

  Basis Set: (AUG-CC-PV(Q+D)Z AUX)
    Blend: AUG-CC-PVQZ-JKFIT
    Number of shells: 114
    Number of basis function: 468
    Number of Cartesian functions: 643
    Spherical Harmonics?: true
    Max angular momentum: 5

  Cached 100.0% of DFT collocation blocks in 0.409 [GiB].

  Minimum eigenvalue in the overlap matrix is 8.8703732808E-05.
  Using Symmetric Orthogonalization.

  SCF Guess: Superposition of Atomic Densities via on-the-fly atomic UHF.

  ==> Iterations <==

                           Total Energy        Delta E     RMS |[F,P]|

   @DF-RKS iter SAD:  -548.38721807186403   -5.48387e+02   0.00000e+00 
   @DF-RKS iter   1:  -548.42235869122794   -3.51406e-02   5.64540e-03 DIIS
   @DF-RKS iter   2:  -548.30940276840909    1.12956e-01   7.37009e-03 DIIS
   @DF-RKS iter   3:  -548.60991265248447   -3.00510e-01   3.55631e-04 DIIS
   @DF-RKS iter   4:  -548.61049827198030   -5.85619e-04   6.66047e-05 DIIS
   @DF-RKS iter   5:  -548.61055968820187   -6.14162e-05   1.21978e-05 DIIS
   @DF-RKS iter   6:  -548.61056283776156   -3.14956e-06   3.48439e-06 DIIS
   @DF-RKS iter   7:  -548.61056313829101   -3.00529e-07   8.73389e-07 DIIS
   @DF-RKS iter   8:  -548.61056316302199   -2.47310e-08   3.22888e-07 DIIS
   @DF-RKS iter   9:  -548.61056316425720   -1.23521e-09   7.00885e-08 DIIS
   @DF-RKS iter  10:  -548.61056316433042   -7.32143e-11   1.38006e-08 DIIS
   @DF-RKS iter  11:  -548.61056316433314   -2.72848e-12   2.47419e-09 DIIS
  Energy and wave function converged.


  ==> Post-Iterations <==

    Orbital Energies [Eh]
    ---------------------

    Doubly Occupied:                                                      

       1A1   -89.077471     1B2   -19.275039     2A1   -19.275025  
       3A1    -8.212630     1B1    -6.170971     2B2    -6.167138  
       4A1    -6.163620     5A1    -1.283973     3B2    -1.188663  
       6A1    -0.762339     7A1    -0.616088     2B1    -0.615953  
       4B2    -0.612135     1A2    -0.486393     5B2    -0.476283  
       8A1    -0.445071  

    Virtual:                                                              

       3B1    -0.043484     9A1     0.052509    10A1     0.060706  
       6B2     0.063368     4B1     0.067524    11A1     0.123407  
       7B2     0.133338    12A1     0.142320     2A2     0.149859  
       8B2     0.159243     5B1     0.168465    13A1     0.171202  
       9B2     0.201468     6B1     0.214312    14A1     0.233966  
      15A1     0.265569     3A2     0.271954    10B2     0.284547  
      11B2     0.300502    16A1     0.305330     7B1     0.327220  
      17A1     0.364088     8B1     0.430566    12B2     0.442881  
      18A1     0.443617     4A2     0.450762    19A1     0.460559  
       9B1     0.484544    20A1     0.493862    13B2     0.543080  
      14B2     0.563960    21A1     0.574999     5A2     0.583610  
      10B1     0.586070     6A2     0.597547    11B1     0.622883  
      15B2     0.626807    22A1     0.636184    16B2     0.649408  
       7A2     0.654996    23A1     0.682408    24A1     0.708318  
      12B1     0.740195    17B2     0.762659    25A1     0.769662  
      18B2     0.784226    13B1     0.857593     8A2     0.861241  
      26A1     0.883173    27A1     0.974986    19B2     1.010424  
      20B2     1.046592    21B2     1.105156    28A1     1.120848  
      14B1     1.137689    29A1     1.137889    15B1     1.219298  
      30A1     1.233638     9A2     1.255524    31A1     1.279272  
      16B1     1.289865    10A2     1.313498    22B2     1.332124  
      23B2     1.342843    17B1     1.345741    24B2     1.386504  
      32A1     1.393442    11A2     1.401971    12A2     1.424241  
      25B2     1.434755    33A1     1.445985    18B1     1.482719  
      19B1     1.517593    34A1     1.525450    26B2     1.543104  
      35A1     1.554531    13A2     1.583177    20B1     1.602217  
      27B2     1.611262    36A1     1.629743    14A2     1.685521  
      28B2     1.693513    37A1     1.701208    21B1     1.710187  
      38A1     1.724598    29B2     1.839197    15A2     1.928713  
      30B2     1.934941    39A1     1.978119    22B1     1.981469  
      40A1     2.065828    23B1     2.116287    31B2     2.128425  
      41A1     2.134097    24B1     2.146030    16A2     2.151975  
      42A1     2.157618    32B2     2.167345    33B2     2.226133  
      17A2     2.251795    43A1     2.445374    34B2     2.617011  
      44A1     2.638457    25B1     2.737067    18A2     2.751465  
      45A1     2.838673    35B2     3.036415    46A1     3.056920  
      36B2     3.199110    19A2     3.220602    26B1     3.227322  
      47A1     3.240172    27B1     3.247802    48A1     3.306825  
      20A2     3.307221    28B1     3.315958    49A1     3.358876  
      37B2     3.363583    38B2     3.394401    29B1     3.459542  
      21A2     3.463050    50A1     3.473140    51A1     3.524838  
      39B2     3.548053    30B1     3.559171    22A2     3.579513  
      40B2     3.638743    52A1     3.642126    23A2     3.676331  
      41B2     3.742826    31B1     3.777734    53A1     3.851684  
      42B2     3.877019    43B2     3.891798    24A2     3.892272  
      54A1     3.919370    32B1     3.938077    25A2     3.949616  
      55A1     3.990274    44B2     3.993794    33B1     4.009770  
      56A1     4.034819    57A1     4.099477    45B2     4.104081  
      34B1     4.119606    26A2     4.143607    35B1     4.265888  
      58A1     4.306538    36B1     4.329876    46B2     4.351177  
      47B2     4.371572    27A2     4.373300    59A1     4.416910  
      48B2     4.531321    60A1     4.544532    61A1     4.596238  
      28A2     4.619437    49B2     4.649234    50B2     4.775887  
      37B1     4.777491    62A1     4.890453    29A2     4.912598  
      38B1     4.950357    39B1     5.061522    63A1     5.098045  
      30A2     5.203953    51B2     5.229304    52B2     5.329567  
      64A1     5.400066    31A2     5.563732    65A1     5.697610  
      53B2     5.711693    54B2     6.081688    66A1     6.152838  
      40B1     6.493950    67A1     7.359155    55B2     8.186360  
      41B1     8.818235    68A1     8.834475    32A2     9.006611  
      69A1     9.181366    56B2     9.893792    42B1    10.213991  
      70A1    10.225315    33A2    10.230991    57B2    10.244992  
      58B2    10.315962    43B1    10.382491    34A2    10.387501  
      71A1    10.395348    35A2    10.492535    44B1    10.501653  
      72A1    10.519251    36A2    10.528840    59B2    10.539501  
      45B1    10.540659    60B2    10.549507    37A2    10.550320  
      73A1    10.623668    46B1    10.636926    74A1    10.654331  
      61B2    10.693343    75A1    10.709708    62B2    11.039543  
      76A1    11.281392    63B2    11.322955    47B1    11.421302  
      77A1    11.426152    64B2    11.426627    38A2    11.434298  
      48B1    11.584739    65B2    11.611237    39A2    11.658976  
      78A1    11.706705    49B1    12.072642    79A1    12.106682  
      40A2    12.121982    66B2    12.209220    80A1    12.342286  
      67B2    12.396145    50B1    12.417213    41A2    12.499292  
      81A1    12.593787    51B1    12.753409    42A2    12.755804  
      68B2    12.827909    69B2    12.861050    82A1    12.895287  
      83A1    13.453200    70B2    13.739462    84A1    23.665444  
      71B2    41.774742    85A1    42.073555  

    Final Occupation by Irrep:
             A1    A2    B1    B2 
    DOCC [     8,    1,    2,    5 ]

  @DF-RKS Final Energy:  -548.61056316433314

   => Energetics <=

    Nuclear Repulsion Energy =            108.0022910124889108
    One-Electron Energy =                -970.0703346855361815
    Two-Electron Energy =                 345.0123749724112372
    DFT Exchange-Correlation Energy =     -31.6874789899412477
    Empirical Dispersion Energy =           0.0000000000000000
    VV10 Nonlocal Energy =                  0.1325845262440883
    Total Energy =                       -548.6105631643332572

Computation Completed


Properties will be evaluated at   0.000000,   0.000000,   0.000000 [a0]

Properties computed using the SCF density matrix

  Nuclear Dipole Moment: [e a0]
     X:     0.0000      Y:     0.0000      Z:    -0.0061

  Electronic Dipole Moment: [e a0]
     X:     0.0000      Y:     0.0000      Z:    -0.6640

  Dipole Moment: [e a0]
     X:     0.0000      Y:     0.0000      Z:    -0.6701     Total:     0.6701

  Dipole Moment: [D]
     X:     0.0000      Y:     0.0000      Z:    -1.7032     Total:     1.7032


*** tstop() called on bp1-compute00047.data.bp.acrc.priv at Tue Apr 27 16:41:48 2021
Module time:
	user time   =     127.29 seconds =       2.12 minutes
	system time =       3.36 seconds =       0.06 minutes
	total time  =          6 seconds =       0.10 minutes
Total time:
	user time   =     652.01 seconds =      10.87 minutes
	system time =      35.17 seconds =       0.59 minutes
	total time  =         31 seconds =       0.52 minutes

         ----------------------------------------------------------
                                   FINDIF
                     R. A. King and Jonathon Misiewicz
         ---------------------------------------------------------

  Computing gradient from energies.
    Using 3-point formula.
    Energy without displacement: -548.6105848273
    Check energies below for precision!
    Forces are for mass-weighted, symmetry-adapted cartesians (in au).

     Coord      Energy(-1)        Energy(+1)            Force
        0   -548.6105709350   -548.6105979614     -0.0027026359
        1   -548.6106055953   -548.6105631643      0.0042430995


-------------------------------------------------------------
  ## New Matrix (Symmetry 0) ##
  Irrep: 1 Size: 3 x 3

                 1                   2                   3

    1     0.00000000000000     0.00000000000000    -0.01080732492189
    2     0.00000000000000     0.01199939040619     0.00540366246094
    3     0.00000000000000    -0.01199939040619     0.00540366246094




			-----------------------------------------
			 OPTKING 2.0: for geometry optimizations 
			  - R.A. King,  Bethel University        
			-----------------------------------------
	At level 1: Red. Int., RFO, no backsteps, dynamic trust

	Internal coordinates to be generated automatically.
	Detected frag 1 with atoms:  1 2 3
	---Fragment 1 Bond Connectivity---
	 1 : 2 3
	 2 : 1
	 3 : 1

	---Fragment 1 Geometry and Gradient---
	 S          -0.0000000000        0.0000000000       -0.6846617379
	 O          -0.0000000000        2.3419721082        0.6842816713
	 O           0.0000000000       -2.3419721082        0.6842816713
	             0.0000000000        0.0000000000       -0.0108073249
	             0.0000000000        0.0119993904        0.0054036625
	             0.0000000000       -0.0119993904        0.0054036625

	Previous optimization step data not found.  Starting new optimization.

	---Fragment 1 Intrafragment Coordinates---
	 - Coordinate -           - BOHR/RAD -       - ANG/DEG -
	 R(1,2)           =         2.712718	       1.435509
	 R(1,3)           =         2.712718	       1.435509
	 B(2,1,3)         =         2.083665	     119.385214

	Current energy   :      -548.6105848273

	Generating empirical Hessian (Schlegel '84) for each fragment.
	Taking RFO optimization step.
	Going to follow RFO solution 1.
	Using RFO vector 1.
	Norm of target step-size    0.02348
	Projected energy change by RFO approximation:        -0.0003905665

	Back-transformation to cartesian coordinates...
	Successfully converged to displaced geometry.

	--- Internal Coordinate Step in ANG or DEG, aJ/ANG or AJ/DEG ---
	 ---------------------------------------------------------------------------
	   Coordinate                Previous        Force       Change         New 
	   ----------                --------       ------       ------       ------
	    1 R(1,2)          =      1.435509    -0.107815    -0.006740     1.428769
	    2 R(1,3)          =      1.435509    -0.107815    -0.006740     1.428769
	    3 B(2,1,3)        =    119.385214    -0.000287    -0.862962   118.522252
	 ---------------------------------------------------------------------------
	Successfully symmetrized geometry.

  ==> Convergence Check <==

  Measures of convergence in internal coordinates in au.
  Criteria marked as inactive (o), active & met (*), and active & unmet ( ).
  --------------------------------------------------------------------------------------------- ~
   Step     Total Energy     Delta E     MAX Force     RMS Force      MAX Disp      RMS Disp    ~
  --------------------------------------------------------------------------------------------- ~
    Convergence Criteria    1.00e-06 *    3.00e-04 *             o    1.20e-03 *             o  ~
  --------------------------------------------------------------------------------------------- ~
      1    -548.61058483   -5.49e+02      1.31e-02      1.09e-02 o    1.51e-02      1.36e-02 o  ~
  ---------------------------------------------------------------------------------------------

	Writing optimization data to binary file.
	Structure for next step:
	Cartesian Geometry (in Angstrom)
	    S    -0.0000000000   0.0000000000  -0.3662191324
	    O    -0.0000000000   1.2280350841   0.3640621372
	    O     0.0000000000  -1.2280350841   0.3640621372
			--------------------------
			 OPTKING Finished Execution 
			--------------------------

    Structure for next step:
    Molecular point group: c2v
    Full point group: C2v

    Geometry (in Angstrom), charge = 0, multiplicity = 1:

    S           -0.000000000000     0.000000000000    -0.365242012082
    O           -0.000000000000     1.228035088948     0.365039260412
    O            0.000000000000    -1.228035088948     0.365039260412

gradient() will perform gradient computation by finite difference of analytic energies.

         ----------------------------------------------------------
                                   FINDIF
                     R. A. King and Jonathon Misiewicz
         ---------------------------------------------------------

  Using finite-differences of energies to determine gradients.
    Generating geometries for use with 3-point formula.
    Displacement size will be 5.00e-03.
    Number of atoms is 3.
    Number of symmetric SALCs is 2.
    Translations projected? 1. Rotations projected? 1.
    Number of geometries (including reference) is 5.

  //>>>>>>>>>>>>>>>>>>>>>>>>>>>>>>>>>>>//
  //    Loading displacement 1 of 5    //
  //<<<<<<<<<<<<<<<<<<<<<<<<<<<<<<<<<<<//

*** tstart() called on bp1-compute00047.data.bp.acrc.priv
*** at Tue Apr 27 16:41:48 2021

   => Loading Basis Set <=

    Name: AUG-CC-PV(Q+D)Z
    Role: ORBITAL
    Keyword: BASIS
    atoms 1   entry S          line  1148 file /work/zw18965/.conda/envs/p4env/share/psi4/basis/aug-cc-pv_qpd_z.gbs 
    atoms 2-3 entry O          line   439 file /work/zw18965/.conda/envs/p4env/share/psi4/basis/aug-cc-pv_qpd_z.gbs 


         ---------------------------------------------------------
                                   SCF
               by Justin Turney, Rob Parrish, Andy Simmonett
                          and Daniel G. A. Smith
                              RKS Reference
                       24 Threads, 137329 MiB Core
         ---------------------------------------------------------

  ==> Geometry <==

    Molecular point group: c2v
    Full point group: C2v

    Geometry (in Angstrom), charge = 0, multiplicity = 1:

       Center              X                  Y                   Z               Mass       
    ------------   -----------------  -----------------  -----------------  -----------------
         S           -0.000000000000     0.000000000000    -0.365242012082    31.972071174400
         O           -0.000000000000     1.228035088948     0.365039260412    15.994914619570
         O            0.000000000000    -1.228035088948     0.365039260412    15.994914619570

  Running in c2v symmetry.

  Rotational constants: A =      1.97676  B =      0.34943  C =      0.29694 [cm^-1]
  Rotational constants: A =  59261.89545  B =  10475.71622  C =   8902.09436 [MHz]
  Nuclear repulsion =  108.604681892742050

  Charge       = 0
  Multiplicity = 1
  Electrons    = 32
  Nalpha       = 16
  Nbeta        = 16

  ==> Algorithm <==

  SCF Algorithm Type is DF.
  DIIS enabled.
  MOM disabled.
  Fractional occupation disabled.
  Guess Type is READ.
  Energy threshold   = 1.00e-08
  Density threshold  = 1.00e-08
  Integral threshold = 0.00e+00

  ==> Primary Basis <==

[...]
  Energy threshold   = 1.00e-10
  Density threshold  = 1.00e-10
  Integral threshold = 0.00e+00

  ==> Primary Basis <==

  Basis Set: AUG-CC-PV(Q+D)Z
    Blend: AUG-CC-PV(Q+D)Z
    Number of shells: 63
    Number of basis function: 249
    Number of Cartesian functions: 325
    Spherical Harmonics?: true
    Max angular momentum: 4

  ==> DFT Potential <==

   => Composite Functional: WB97X-V <= 

    wB97X-V Hyb-GGA Exchange-Correlation Functional

    N. Mardirossian and M. Head-Gordon, Phys. Chem. Chem. Phys. 16, 9904 (2014)

    Deriv               =              1
    GGA                 =           TRUE
    Meta                =          FALSE

    Exchange Hybrid     =           TRUE
    MP2 Hybrid          =          FALSE

   => Exchange-Correlation Functionals <=

    1.0000   wB97X-V range-separated functional

   => Exact (HF) Exchange <=

    0.8330            HF,LR [omega = 0.3000]
    0.1670               HF 

   => VV10 Non-Local Parameters <=

    VV10 B              =     6.0000E+00
    VV10 C              =     1.0000E-02

   => Molecular Quadrature <=

    Radial Scheme          =       TREUTLER
    Pruning Scheme         =           FLAT
    Nuclear Scheme         =       TREUTLER

    BS radius alpha        =              1
    Pruning alpha          =              1
    Radial Points          =             75
    Spherical Points       =            302
    Total Points           =          67950
    Total Blocks           =            601
    Max Points             =            253
    Max Functions          =            249

   => Loading Basis Set <=

    Name: (AUG-CC-PV(Q+D)Z AUX)
    Role: JKFIT
    Keyword: DF_BASIS_SCF
    atoms 1   entry S          line   810 file /work/zw18965/.conda/envs/p4env/share/psi4/basis/aug-cc-pvqz-jkfit.gbs 
    atoms 2-3 entry O          line   318 file /work/zw18965/.conda/envs/p4env/share/psi4/basis/aug-cc-pvqz-jkfit.gbs 

  ==> Pre-Iterations <==

   -------------------------------------------------------
    Irrep   Nso     Nmo     Nalpha   Nbeta   Ndocc  Nsocc
   -------------------------------------------------------
     A'       156     156       0       0       0       0
     A"        93      93       0       0       0       0
   -------------------------------------------------------
    Total     249     249      16      16      16       0
   -------------------------------------------------------

  ==> Integral Setup <==

  ==> DiskDFJK: Density-Fitted J/K Matrices <==

    J tasked:                  Yes
    K tasked:                  Yes
    wK tasked:                 Yes
    Omega:               3.000E-01
    OpenMP threads:             24
    Integrals threads:          24
    Memory [MiB]:           102577
    Algorithm:                Core
    Integral Cache:           NONE
    Schwarz Cutoff:          1E-12
    Fitting Condition:       1E-10

   => Auxiliary Basis Set <=

  Basis Set: (AUG-CC-PV(Q+D)Z AUX)
    Blend: AUG-CC-PVQZ-JKFIT
    Number of shells: 114
    Number of basis function: 468
    Number of Cartesian functions: 643
    Spherical Harmonics?: true
    Max angular momentum: 5

  Cached 100.0% of DFT collocation blocks in 0.409 [GiB].

  Minimum eigenvalue in the overlap matrix is 8.6717925933E-05.
  Using Symmetric Orthogonalization.

  SCF Guess: Superposition of Atomic Densities via on-the-fly atomic UHF.

  ==> Iterations <==

                           Total Energy        Delta E     RMS |[F,P]|

   @DF-RKS iter SAD:  -548.42970589497361   -5.48430e+02   0.00000e+00 
   @DF-RKS iter   1:  -548.42422135367428    5.48454e-03   4.00393e-03 DIIS
   @DF-RKS iter   2:  -548.31956436935229    1.04657e-01   5.16093e-03 DIIS
   @DF-RKS iter   3:  -548.61018365015218   -2.90619e-01   2.51775e-04 DIIS
   @DF-RKS iter   4:  -548.61076749746314   -5.83847e-04   4.71688e-05 DIIS
   @DF-RKS iter   5:  -548.61082637540142   -5.88779e-05   1.44413e-05 DIIS
   @DF-RKS iter   6:  -548.61082821667742   -1.84128e-06   1.51567e-05 DIIS
   @DF-RKS iter   7:  -548.61083103565170   -2.81897e-06   2.18107e-06 DIIS
   @DF-RKS iter   8:  -548.61083118809347   -1.52442e-07   4.29234e-07 DIIS
   @DF-RKS iter   9:  -548.61083119874695   -1.06535e-08   1.51049e-07 DIIS
   @DF-RKS iter  10:  -548.61083119927923   -5.32282e-10   3.14349e-08 DIIS
   @DF-RKS iter  11:  -548.61083119930856   -2.93312e-11   6.41645e-09 DIIS
   @DF-RKS iter  12:  -548.61083119931050   -1.93268e-12   1.18044e-09 DIIS
   @DF-RKS iter  13:  -548.61083119931027    2.27374e-13   4.05877e-10 DIIS
   @DF-RKS iter  14:  -548.61083119931050   -2.27374e-13   3.75545e-11 DIIS
  Energy and wave function converged.


  ==> Post-Iterations <==

    Orbital Energies [Eh]
    ---------------------

    Doubly Occupied:                                                      

       1Ap   -89.074514     2Ap   -19.273497     3Ap   -19.273324  
       4Ap    -8.210348     1App   -6.168682     5Ap    -6.164841  
       6Ap    -6.161256     7Ap    -1.288954     8Ap    -1.191685  
       9Ap    -0.759873     2App   -0.618724    10Ap    -0.618370  
      11Ap    -0.612457     3App   -0.488018    12Ap    -0.476877  
      13Ap    -0.445251  

    Virtual:                                                              

       4App   -0.040365    14Ap     0.052726    15Ap     0.061118  
      16Ap     0.063477     5App    0.067513    17Ap     0.125136  
      18Ap     0.133396    19Ap     0.142443     6App    0.149812  
      20Ap     0.160506     7App    0.168305    21Ap     0.172282  
      22Ap     0.201434     8App    0.215245    23Ap     0.235282  
      24Ap     0.267046     9App    0.272254    25Ap     0.285436  
      26Ap     0.300939    27Ap     0.307143    10App    0.327332  
      28Ap     0.364169    11App    0.431276    29Ap     0.443226  
      30Ap     0.446177    12App    0.451494    31Ap     0.461747  
      13App    0.485171    32Ap     0.494261    33Ap     0.544015  
      34Ap     0.564760    35Ap     0.577186    14App    0.585075  
      15App    0.586916    16App    0.599217    17App    0.623601  
      36Ap     0.627215    37Ap     0.638570    38Ap     0.649199  
      18App    0.655512    39Ap     0.683601    40Ap     0.707138  
      19App    0.738934    41Ap     0.763231    42Ap     0.771913  
      43Ap     0.785001    20App    0.855893    21App    0.860569  
      44Ap     0.880975    45Ap     0.977569    46Ap     1.012720  
      47Ap     1.053775    48Ap     1.107991    49Ap     1.121241  
      22App    1.138629    50Ap     1.139227    23App    1.218779  
      51Ap     1.233137    24App    1.257316    52Ap     1.279413  
      25App    1.290611    26App    1.315416    53Ap     1.331595  
      54Ap     1.344029    27App    1.347858    55Ap     1.390590  
      56Ap     1.397809    28App    1.402263    29App    1.426655  
      57Ap     1.440456    58Ap     1.446788    30App    1.487152  
      31App    1.518445    59Ap     1.527375    60Ap     1.545567  
      61Ap     1.558527    32App    1.585087    33App    1.601187  
      62Ap     1.613844    63Ap     1.630512    34App    1.693351  
      64Ap     1.698637    65Ap     1.700995    35App    1.714635  
      66Ap     1.728790    67Ap     1.837133    36App    1.932074  
      68Ap     1.944296    69Ap     1.975319    37App    1.987336  
      70Ap     2.071083    38App    2.109144    71Ap     2.130990  
      72Ap     2.133584    39App    2.148339    40App    2.156344  
      73Ap     2.160729    74Ap     2.170525    75Ap     2.221342  
      41App    2.251400    76Ap     2.456660    77Ap     2.615941  
      78Ap     2.648255    42App    2.739782    43App    2.755146  
      79Ap     2.842397    80Ap     3.043211    81Ap     3.062400  
      82Ap     3.202982    44App    3.225569    45App    3.233211  
      83Ap     3.237412    46App    3.246496    84Ap     3.309413  
      47App    3.313055    48App    3.319105    85Ap     3.366944  
      86Ap     3.372036    87Ap     3.406811    49App    3.458371  
      50App    3.470161    88Ap     3.473049    89Ap     3.525268  
      90Ap     3.549633    51App    3.561428    52App    3.584012  
      91Ap     3.648011    92Ap     3.653469    53App    3.686791  
      93Ap     3.752419    54App    3.783204    94Ap     3.852588  
      95Ap     3.867291    96Ap     3.896404    55App    3.898278  
      97Ap     3.918711    56App    3.934705    57App    3.950833  
      98Ap     3.990366    99Ap     4.001849    58App    4.014452  
     100Ap     4.039291   101Ap     4.106481   102Ap     4.106870  
      59App    4.128016    60App    4.153768    61App    4.274140  
     103Ap     4.320701    62App    4.342046   104Ap     4.361908  
      63App    4.379747   105Ap     4.380256   106Ap     4.431828  
     107Ap     4.545149   108Ap     4.563823   109Ap     4.606414  
      64App    4.631465   110Ap     4.639031    65App    4.788892  
     111Ap     4.804190   112Ap     4.902731    66App    4.923062  
      67App    4.969533    68App    5.064735   113Ap     5.105333  
      69App    5.218567   114Ap     5.260613   115Ap     5.367615  
     116Ap     5.411761    70App    5.571079   117Ap     5.714014  
     118Ap     5.721724   119Ap     6.090026   120Ap     6.159598  
      71App    6.520139   121Ap     7.398537   122Ap     8.209909  
      72App    8.827165   123Ap     8.843714    73App    9.017484  
     124Ap     9.189359   125Ap     9.922921    74App   10.212908  
     126Ap    10.224740    75App   10.233299   127Ap    10.246903  
     128Ap    10.322177    76App   10.382864   129Ap    10.396130  
      77App   10.397692    78App   10.495849    79App   10.502317  
     130Ap    10.514089    80App   10.533510   131Ap    10.545757  
      81App   10.546308   132Ap    10.552481    82App   10.560692  
     133Ap    10.628743    83App   10.640668   134Ap    10.656100  
     135Ap    10.703712   136Ap    10.713824   137Ap    11.073648  
     138Ap    11.285119   139Ap    11.322456    84App   11.422661  
     140Ap    11.427798   141Ap    11.428048    85App   11.435836  
      86App   11.592372   142Ap    11.611525    87App   11.665119  
     143Ap    11.722997    88App   12.090003   144Ap    12.109839  
      89App   12.140930   145Ap    12.208399   146Ap    12.364660  
     147Ap    12.407063    90App   12.426847    91App   12.506417  
     148Ap    12.605813    92App   12.754406    93App   12.756051  
     149Ap    12.836244   150Ap    12.861234   151Ap    12.894372  
     152Ap    13.486226   153Ap    13.801249   154Ap    23.863717  
     155Ap    41.820936   156Ap    42.126301  

    Final Occupation by Irrep:
             Ap   App 
    DOCC [    13,    3 ]

  @DF-RKS Final Energy:  -548.61083119931050

   => Energetics <=

    Nuclear Repulsion Energy =            108.7718738712622155
    One-Electron Energy =                -971.6060101303893362
    Two-Electron Energy =                 345.7913607306604717
    DFT Exchange-Correlation Energy =     -31.7006112445117481
    Empirical Dispersion Energy =           0.0000000000000000
    VV10 Nonlocal Energy =                  0.1325555736678943
    Total Energy =                       -548.6108311993104962

Computation Completed


Properties will be evaluated at   0.000000,   0.000000,   0.000000 [a0]

Properties computed using the SCF density matrix

  Nuclear Dipole Moment: [e a0]
     X:     0.0000      Y:    -0.0000      Z:    -0.0061

  Electronic Dipole Moment: [e a0]
     X:     0.0000      Y:    -0.0025      Z:    -0.6597

  Dipole Moment: [e a0]
     X:     0.0000      Y:    -0.0025      Z:    -0.6657     Total:     0.6657

  Dipole Moment: [D]
     X:     0.0000      Y:    -0.0064      Z:    -1.6921     Total:     1.6921


*** tstop() called on bp1-compute00047.data.bp.acrc.priv at Tue Apr 27 16:44:13 2021
Module time:
	user time   =     143.38 seconds =       2.39 minutes
	system time =       3.18 seconds =       0.05 minutes
	total time  =          7 seconds =       0.12 minutes
Total time:
	user time   =    3739.57 seconds =      62.33 minutes
	system time =     132.29 seconds =       2.20 minutes
	total time  =        176 seconds =       2.93 minutes

         ----------------------------------------------------------
                                   FINDIF
                     R. A. King and Jonathon Misiewicz
         ---------------------------------------------------------

  Computing second-derivative from energies using projected, 
  symmetry-adapted, cartesian coordinates.

  8 energies passed in, including the reference geometry.
    Using 3-point formula.
    Energy without displacement: -548.6108321783
    Check energies below for precision!
    0: -1        :      -548.6108317527
    0: 1         :      -548.6108318046
    1: -1        :      -548.6108317199
    1: 1         :      -548.6108316795
    0: 1, 1: 1   :      -548.6108319038
    0: -1, 1: -1 :      -548.6108318851
    2: -1        :      -548.6108311993

-------------------------------------------------------------


  ==> Harmonic Vibrational Analysis <==

  non-mass-weighted Hessian:       Symmetric? True   Hermitian? True   Lin Dep Dim?  6 (0)
  projection of translations (True) and rotations (True) removed 6 degrees of freedom (6)
  total projector:                 Symmetric? True   Hermitian? True   Lin Dep Dim?  6 (6)
  mass-weighted Hessian:           Symmetric? True   Hermitian? True   Lin Dep Dim?  6 (0)
  pre-proj  low-frequency mode:    0.0000i [cm^-1]
  pre-proj  low-frequency mode:    0.0000i [cm^-1]
  pre-proj  low-frequency mode:    0.0000i [cm^-1]
  pre-proj  low-frequency mode:    0.0000  [cm^-1]
  pre-proj  low-frequency mode:    0.0000  [cm^-1]
  pre-proj  low-frequency mode:    0.0000  [cm^-1]
  pre-proj  all modes:['0.0000i' '0.0000i' '0.0000i' '0.0000' '0.0000' '0.0000' '542.7426'
 '1249.8517' '1438.6268']
  projected mass-weighted Hessian: Symmetric? True   Hermitian? True   Lin Dep Dim?  6 (6)
  post-proj low-frequency mode:    0.0000i [cm^-1] (TR)
  post-proj low-frequency mode:    0.0000i [cm^-1] (TR)
  post-proj low-frequency mode:    0.0000i [cm^-1] (TR)
  post-proj low-frequency mode:    0.0000  [cm^-1] (TR)
  post-proj low-frequency mode:    0.0000  [cm^-1] (TR)
  post-proj low-frequency mode:    0.0000  [cm^-1] (TR)
  post-proj  all modes:['0.0000i' '0.0000i' '0.0000i' '0.0000' '0.0000' '0.0000' '542.7426'
 '1249.8517' '1438.6268']

  Vibration                       7                   8                   9           
  Freq [cm^-1]                 542.7426           1249.8517           1438.6268       
  Irrep                           A1                  A1                  B2          
  Reduced mass [u]             18.6296             17.9417             20.3240        
  Force const [mDyne/A]         3.2333             16.5132             24.7831        
  Turning point v=0 [a0]        0.1091              0.0733              0.0642        
  RMS dev v=0 [a0 u^1/2]        0.3330              0.2195              0.2046        
  Char temp [K]                780.8857           1798.2583           2069.8637       
  ----------------------------------------------------------------------------------
      1   S               -0.00  0.00  0.41   -0.00 -0.00 -0.35   -0.00  0.52 -0.00   
      2   O                0.00  0.50 -0.41    0.00  0.56  0.35   -0.00 -0.52 -0.31   
      3   O                0.00 -0.50 -0.41   -0.00 -0.56  0.35    0.00 -0.52  0.31   

  ==> Thermochemistry Components <==

  Entropy, S
    Electronic S            0.000 [cal/(mol K)]        0.000 [J/(mol K)]       0.00000000 [mEh/K] (multiplicity = 1)
    Translational S        38.386 [cal/(mol K)]      160.607 [J/(mol K)]       0.06117186 [mEh/K] (mol. weight = 63.9619 [u], P = 101325.00 [Pa])
    Rotational S           20.196 [cal/(mol K)]       84.499 [J/(mol K)]       0.03218381 [mEh/K] (symmetry no. = 2)
    Vibrational S           0.608 [cal/(mol K)]        2.545 [J/(mol K)]       0.00096941 [mEh/K]
  Total S                  59.190 [cal/(mol K)]      247.650 [J/(mol K)]       0.09432508 [mEh/K]
  Correction S              0.000 [cal/(mol K)]        0.000 [J/(mol K)]       0.00000000 [mEh/K]

  Constant volume heat capacity, Cv
    Electronic Cv           0.000 [cal/(mol K)]        0.000 [J/(mol K)]       0.00000000 [mEh/K]
    Translational Cv        2.981 [cal/(mol K)]       12.472 [J/(mol K)]       0.00475022 [mEh/K]
    Rotational Cv           2.981 [cal/(mol K)]       12.472 [J/(mol K)]       0.00475022 [mEh/K]
    Vibrational Cv          1.423 [cal/(mol K)]        5.953 [J/(mol K)]       0.00226733 [mEh/K]
  Total Cv                  7.384 [cal/(mol K)]       30.896 [J/(mol K)]       0.01176776 [mEh/K]
  Correction Cv             0.000 [cal/(mol K)]        0.000 [J/(mol K)]       0.00000000 [mEh/K]

  Constant pressure heat capacity, Cp
    Electronic Cp           0.000 [cal/(mol K)]        0.000 [J/(mol K)]       0.00000000 [mEh/K]
    Translational Cp        4.968 [cal/(mol K)]       20.786 [J/(mol K)]       0.00791703 [mEh/K]
    Rotational Cp           2.981 [cal/(mol K)]       12.472 [J/(mol K)]       0.00475022 [mEh/K]
    Vibrational Cp          1.423 [cal/(mol K)]        5.953 [J/(mol K)]       0.00226733 [mEh/K]
  Total Cp                  9.372 [cal/(mol K)]       39.211 [J/(mol K)]       0.01493457 [mEh/K]
  Correction Cp             0.000 [cal/(mol K)]        0.000 [J/(mol K)]       0.00000000 [mEh/K]

  ==> Thermochemistry Energy Analysis <==

  Raw electronic energy, E0
  Total E0, Electronic energy at well bottom at 0 [K]                 -548.61083218 [Eh]

  Zero-point energy, ZPE_vib = Sum_i nu_i / 2
    Electronic ZPE          0.000 [kcal/mol]        0.000 [kJ/mol]       0.00000000 [Eh]
    Translational ZPE       0.000 [kcal/mol]        0.000 [kJ/mol]       0.00000000 [Eh]
    Rotational ZPE          0.000 [kcal/mol]        0.000 [kJ/mol]       0.00000000 [Eh]
    Vibrational ZPE         4.619 [kcal/mol]       19.327 [kJ/mol]       0.00736126 [Eh]        1615.611 [cm^-1]
  Correction ZPE            4.619 [kcal/mol]       19.327 [kJ/mol]       0.00736126 [Eh]        1615.611 [cm^-1]
  Total ZPE, Electronic energy at 0 [K]                               -548.60347092 [Eh]

  Thermal Energy, E (includes ZPE)
    Electronic E            0.000 [kcal/mol]        0.000 [kJ/mol]       0.00000000 [Eh]
    Translational E         0.889 [kcal/mol]        3.718 [kJ/mol]       0.00141628 [Eh]
    Rotational E            0.889 [kcal/mol]        3.718 [kJ/mol]       0.00141628 [Eh]
    Vibrational E           4.754 [kcal/mol]       19.890 [kJ/mol]       0.00757567 [Eh]
  Correction E              6.531 [kcal/mol]       27.327 [kJ/mol]       0.01040823 [Eh]
  Total E, Electronic energy at  298.15 [K]                           -548.60042395 [Eh]

  Enthalpy, H_trans = E_trans + k_B * T
    Electronic H            0.000 [kcal/mol]        0.000 [kJ/mol]       0.00000000 [Eh]
    Translational H         1.481 [kcal/mol]        6.197 [kJ/mol]       0.00236046 [Eh]
    Rotational H            0.889 [kcal/mol]        3.718 [kJ/mol]       0.00141628 [Eh]
    Vibrational H           4.754 [kcal/mol]       19.890 [kJ/mol]       0.00757567 [Eh]
  Correction H              7.124 [kcal/mol]       29.806 [kJ/mol]       0.01135241 [Eh]
  Total H, Enthalpy at  298.15 [K]                                    -548.59947977 [Eh]

  Gibbs free energy, G = H - T * S
    Electronic G            0.000 [kcal/mol]        0.000 [kJ/mol]       0.00000000 [Eh]
    Translational G        -9.964 [kcal/mol]      -41.687 [kJ/mol]      -0.01587793 [Eh]
    Rotational G           -5.133 [kcal/mol]      -21.475 [kJ/mol]      -0.00817932 [Eh]
    Vibrational G           4.572 [kcal/mol]       19.131 [kJ/mol]       0.00728664 [Eh]
  Correction G            -10.524 [kcal/mol]      -44.031 [kJ/mol]      -0.01677061 [Eh]
  Total G, Free enthalpy at  298.15 [K]                               -548.62760279 [Eh]

    Psi4 stopped on: Tuesday, 27 April 2021 04:44PM
    Psi4 wall time for execution: 0:02:56.25

*** Psi4 exiting successfully. Buy a developer a beer!
