
    -----------------------------------------------------------------------
          Psi4: An Open-Source Ab Initio Electronic Structure Package
                               Psi4 1.3.2 release

                         Git: Rev {HEAD} ecbda83 


    R. M. Parrish, L. A. Burns, D. G. A. Smith, A. C. Simmonett,
    A. E. DePrince III, E. G. Hohenstein, U. Bozkaya, A. Yu. Sokolov,
    R. Di Remigio, R. M. Richard, J. F. Gonthier, A. M. James,
    H. R. McAlexander, A. Kumar, M. Saitow, X. Wang, B. P. Pritchard,
    P. Verma, H. F. Schaefer III, K. Patkowski, R. A. King, E. F. Valeev,
    F. A. Evangelista, J. M. Turney, T. D. Crawford, and C. D. Sherrill,
    J. Chem. Theory Comput. 13(7) pp 3185--3197 (2017).
    (doi: 10.1021/acs.jctc.7b00174)


                         Additional Contributions by
    P. Kraus, H. Kruse, M. H. Lechner, M. C. Schieber, R. A. Shaw,
    A. Alenaizan, R. Galvelis, Z. L. Glick, S. Lehtola, and J. P. Misiewicz

    -----------------------------------------------------------------------


    Psi4 started on: Wednesday, 28 April 2021 08:53AM

    Process ID: 43699
    Host:       bp1-compute00100.data.bp.acrc.priv
    PSIDATADIR: /work/zw18965/.conda/envs/p4env/share/psi4
    Memory:     500.0 MiB
    Threads:    24
    
  ==> Input File <==

--------------------------------------------------------------------------
memory 144 GB

molecule {
0 1
C 0.0000000000 0.0000000000 0.0000000000
O 0.0000000000 0.0000000000 1.1626000000
O 0.0000000000 0.0000000000 -1.1626000000
}

set dynamic_level 1
set basis cc-pV(Q+d)Z
 
optimize("wB97M-V")
frequencies("wB97M-V")
--------------------------------------------------------------------------

  Memory set to 134.110 GiB by Python driver.
gradient() will perform gradient computation by finite difference of analytic energies.

         ----------------------------------------------------------
                                   FINDIF
                     R. A. King and Jonathon Misiewicz
         ---------------------------------------------------------

  Using finite-differences of energies to determine gradients.
    Generating geometries for use with 3-point formula.
    Displacement size will be 5.00e-03.
    Number of atoms is 3.
    Number of symmetric SALCs is 1.
    Translations projected? 1. Rotations projected? 1.
    Number of geometries (including reference) is 3.

  //>>>>>>>>>>>>>>>>>>>>>>>>>>>>>>>>>>>//
  //    Loading displacement 1 of 3    //
  //<<<<<<<<<<<<<<<<<<<<<<<<<<<<<<<<<<<//

*** tstart() called on bp1-compute00100.data.bp.acrc.priv
*** at Wed Apr 28 08:53:06 2021

   => Loading Basis Set <=

    Name: CC-PV(Q+D)Z
    Role: ORBITAL
    Keyword: BASIS
    atoms 1   entry C          line   249 file /work/zw18965/.conda/envs/p4env/share/psi4/basis/cc-pv_qpd_z.gbs 
    atoms 2-3 entry O          line   349 file /work/zw18965/.conda/envs/p4env/share/psi4/basis/cc-pv_qpd_z.gbs 


         ---------------------------------------------------------
                                   SCF
               by Justin Turney, Rob Parrish, Andy Simmonett
                          and Daniel G. A. Smith
                              RKS Reference
                       24 Threads, 137329 MiB Core
         ---------------------------------------------------------

  ==> Geometry <==

    Molecular point group: d2h
    Full point group: D_inf_h

    Geometry (in Angstrom), charge = 0, multiplicity = 1:

       Center              X                  Y                   Z               Mass       
    ------------   -----------------  -----------------  -----------------  -----------------
         C            0.000000000000     0.000000000000     0.000000000000    12.000000000000
         O            0.000000000000     0.000000000000     1.162600000000    15.994914619570
         O            0.000000000000     0.000000000000    -1.162600000000    15.994914619570

  Running in d2h symmetry.

  Rotational constants: A = ************  B =      0.38987  C =      0.38987 [cm^-1]
  Rotational constants: A = ************  B =  11688.11942  C =  11688.11942 [MHz]
  Nuclear repulsion =   58.261382217237241

  Charge       = 0
  Multiplicity = 1
  Electrons    = 22
  Nalpha       = 11
  Nbeta        = 11

  ==> Algorithm <==

  SCF Algorithm Type is DF.
  DIIS enabled.
  MOM disabled.
  Fractional occupation disabled.
  Guess Type is SAD.
  Energy threshold   = 1.00e-08
  Density threshold  = 1.00e-08
  Integral threshold = 0.00e+00

  ==> Primary Basis <==

  Basis Set: CC-PV(Q+D)Z
    Blend: CC-PV(Q+D)Z
    Number of shells: 45
    Number of basis function: 165
    Number of Cartesian functions: 210
    Spherical Harmonics?: true
    Max angular momentum: 4

  ==> DFT Potential <==

   => Composite Functional: WB97M-V <= 

    wB97M-V Hyb-GGA Exchange-Correlation Functional

    N. Mardirossian and M. Head-Gordon, J. Chem. Phys. 144, 214110 (2016)

    Deriv               =              1
    GGA                 =           TRUE
    Meta                =           TRUE

    Exchange Hybrid     =           TRUE
    MP2 Hybrid          =          FALSE

   => Exchange-Correlation Functionals <=

    1.0000   wB97M-V exchange-correlation functional

   => Exact (HF) Exchange <=

    0.8500            HF,LR [omega = 0.3000]
    0.1500               HF 

   => VV10 Non-Local Parameters <=

    VV10 B              =     6.0000E+00
    VV10 C              =     1.0000E-02

   => Molecular Quadrature <=

    Radial Scheme          =       TREUTLER
    Pruning Scheme         =           FLAT
    Nuclear Scheme         =       TREUTLER

    BS radius alpha        =              1
    Pruning alpha          =              1
    Radial Points          =             75
    Spherical Points       =            302
    Total Points           =          66112
    Total Blocks           =            574
    Max Points             =            256
    Max Functions          =            165

   => Loading Basis Set <=

    Name: (CC-PV(Q+D)Z AUX)
    Role: JKFIT
    Keyword: DF_BASIS_SCF
    atoms 1   entry C          line   137 file /work/zw18965/.conda/envs/p4env/share/psi4/basis/cc-pvqz-jkfit.gbs 
    atoms 2-3 entry O          line   253 file /work/zw18965/.conda/envs/p4env/share/psi4/basis/cc-pvqz-jkfit.gbs 

  ==> Pre-Iterations <==

   -------------------------------------------------------
    Irrep   Nso     Nmo     Nalpha   Nbeta   Ndocc  Nsocc
   -------------------------------------------------------
     Ag        36      36       0       0       0       0
     B1g       12      12       0       0       0       0
     B2g       18      18       0       0       0       0
     B3g       18      18       0       0       0       0
     Au         9       9       0       0       0       0
     B1u       30      30       0       0       0       0
     B2u       21      21       0       0       0       0
     B3u       21      21       0       0       0       0
   -------------------------------------------------------
    Total     165     165      11      11      11       0
   -------------------------------------------------------

  ==> Integral Setup <==

  ==> DiskDFJK: Density-Fitted J/K Matrices <==

    J tasked:                  Yes
    K tasked:                  Yes
    wK tasked:                 Yes
    Omega:               3.000E-01
    OpenMP threads:             24
    Integrals threads:          24
    Memory [MiB]:           102337
    Algorithm:                Core
    Integral Cache:           NONE
    Schwarz Cutoff:          1E-12
    Fitting Condition:       1E-10

   => Auxiliary Basis Set <=

  Basis Set: (CC-PV(Q+D)Z AUX)
    Blend: CC-PVQZ-JKFIT
    Number of shells: 84
    Number of basis function: 318
    Number of Cartesian functions: 426
    Spherical Harmonics?: true
    Max angular momentum: 5

  Cached 100.0% of DFT collocation blocks in 0.644 [GiB].

  Minimum eigenvalue in the overlap matrix is 3.3858749819E-04.
  Using Symmetric Orthogonalization.

  SCF Guess: Superposition of Atomic Densities via on-the-fly atomic UHF.

  ==> Iterations <==

                           Total Energy        Delta E     RMS |[F,P]|

   @DF-RKS iter SAD:  -187.93954002623877   -1.87940e+02   0.00000e+00 
   @DF-RKS iter   1:  -188.51434203524477   -5.74802e-01   9.60527e-03 DIIS
   @DF-RKS iter   2:  -188.47508387178513    3.92582e-02   1.12815e-02 DIIS
   @DF-RKS iter   3:  -188.62857131864592   -1.53487e-01   4.62936e-04 DIIS
   @DF-RKS iter   4:  -188.62888257463945   -3.11256e-04   1.23347e-04 DIIS
   @DF-RKS iter   5:  -188.62890381546589   -2.12408e-05   9.32957e-06 DIIS
   @DF-RKS iter   6:  -188.62890401768547   -2.02220e-07   1.89526e-06 DIIS
   @DF-RKS iter   7:  -188.62890402698301   -9.29754e-09   3.26773e-07 DIIS
   @DF-RKS iter   8:  -188.62890402731708   -3.34069e-10   3.80986e-08 DIIS
   @DF-RKS iter   9:  -188.62890402732233   -5.25802e-12   5.16290e-09 DIIS
  Energy and wave function converged.


  ==> Post-Iterations <==

    Orbital Energies [Eh]
    ---------------------

    Doubly Occupied:                                                      

       1B1u  -19.413545     1Ag   -19.413515     2Ag   -10.537527  
       3Ag    -1.294830     2B1u   -1.251858     4Ag    -0.684241  
       3B1u   -0.635795     1B3u   -0.634705     1B2u   -0.634705  
       1B2g   -0.478516     1B3g   -0.478516  

    Virtual:                                                              

       5Ag     0.086616     2B3u    0.123352     2B2u    0.123352  
       4B1u    0.224362     3B2u    0.240563     3B3u    0.240563  
       6Ag     0.346588     7Ag     0.409014     2B3g    0.457854  
       2B2g    0.457854     5B1u    0.460355     1B1g    0.497416  
       8Ag     0.497417     4B2u    0.647914     4B3u    0.647914  
       9Ag     0.826462     3B2g    0.910273     3B3g    0.910273  
       6B1u    0.949435     7B1u    1.022311     1Au     1.076886  
       8B1u    1.076886    10Ag     1.156375     5B3u    1.236730  
       5B2u    1.236730     9B1u    1.295650     2B1g    1.336410  
      11Ag     1.336412    12Ag     1.349665     4B3g    1.489023  
       4B2g    1.489023     6B3u    1.550509     6B2u    1.550509  
       7B3u    1.687681     7B2u    1.687681    10B1u    1.797990  
       3B1g    1.813858    13Ag     1.813860     2Au     2.139423  
      11B1u    2.139427     5B2g    2.140224     5B3g    2.140224  
      14Ag     2.261540     8B3u    2.387778     8B2u    2.387778  
      12B1u    2.754117     6B3g    2.931566     6B2g    2.931566  
      15Ag     2.935829     9B3u    2.991360     9B2u    2.991360  
      16Ag     3.043870     7B3g    3.108234     7B2g    3.108234  
      10B2u    3.324981    10B3u    3.324981     4B1g    3.505520  
      17Ag     3.505522    13B1u    3.639167    18Ag     3.719393  
      14B1u    3.760326     3Au     3.760334     8B3g    3.860360  
       8B2g    3.860360    19Ag     3.923636     5B1g    3.923644  
      15B1u    3.975323    11B3u    3.998996    11B2u    3.998996  
      16B1u    4.024364     4Au     4.308260    17B1u    4.308264  
      12B3u    4.482320    12B2u    4.482320    20Ag     4.519795  
      21Ag     4.770429     6B1g    4.770446     9B3g    4.942863  
       9B2g    4.942863    10B2g    5.044093    10B3g    5.044093  
      18B1u    5.262796    22Ag     5.350225     7B1g    5.735838  
      23Ag     5.735852    11B2g    5.810534    11B3g    5.810534  
      13B3u    5.813825    13B2u    5.813825    14B3u    5.848209  
      14B2u    5.848209     5Au     5.898602    19B1u    5.898612  
      24Ag     6.392102     8B1g    6.392107    25Ag     6.468418  
      20B1u    6.609733    15B2u    7.060286    15B3u    7.060286  
      12B3g    8.132607    12B2g    8.132607    26Ag     8.243067  
      21B1u    8.788989    22B1u    8.909220     6Au     8.909237  
      27Ag     8.933433     9B1g    8.933450    16B3u    8.955508  
      16B2u    8.955508    13B2g    9.369349    13B3g    9.369349  
       7Au     9.660977    23B1u    9.660983    24B1u   10.127763  
      17B2u   10.134735    17B3u   10.134735    14B3g   10.239098  
      14B2g   10.239098    15B3g   10.271984    15B2g   10.271984  
      10B1g   10.660218    28Ag    10.660246    29Ag    10.730727  
      18B3u   10.980450    18B2u   10.980450    16B3g   11.026655  
      16B2g   11.026655    19B2u   11.044634    19B3u   11.044634  
      25B1u   11.080561    30Ag    11.085814    11B1g   11.260907  
      31Ag    11.260921     8Au    11.607280    26B1u   11.607316  
      20B2u   11.769470    20B3u   11.769470     9Au    12.027326  
      27B1u   12.027350    17B3g   12.212627    17B2g   12.212627  
      12B1g   12.449083    32Ag    12.449102    28B1u   12.657562  
      33Ag    12.884209    21B2u   13.512690    21B3u   13.512690  
      34Ag    13.957957    18B3g   15.042472    18B2g   15.042472  
      29B1u   15.880341    35Ag    24.912274    30B1u   41.415731  
      36Ag    42.672310  

    Final Occupation by Irrep:
             Ag   B1g   B2g   B3g    Au   B1u   B2u   B3u 
    DOCC [     4,    0,    1,    1,    0,    3,    1,    1 ]

  @DF-RKS Final Energy:  -188.62890402732233

   => Energetics <=

    Nuclear Repulsion Energy =             58.2613822172372409
    One-Electron Energy =                -372.5782514900485580
    Two-Electron Energy =                 141.9945031254956973
    DFT Exchange-Correlation Energy =     -16.3982905755721085
    Empirical Dispersion Energy =           0.0000000000000000
    VV10 Nonlocal Energy =                  0.0917526955654292
    Total Energy =                       -188.6289040273223350

Computation Completed


Properties will be evaluated at   0.000000,   0.000000,   0.000000 [a0]

Properties computed using the SCF density matrix

  Nuclear Dipole Moment: [e a0]
     X:     0.0000      Y:     0.0000      Z:     0.0000

  Electronic Dipole Moment: [e a0]
     X:     0.0000      Y:     0.0000      Z:     0.0000

  Dipole Moment: [e a0]
     X:     0.0000      Y:     0.0000      Z:     0.0000     Total:     0.0000

  Dipole Moment: [D]
     X:     0.0000      Y:     0.0000      Z:     0.0000     Total:     0.0000


*** tstop() called on bp1-compute00100.data.bp.acrc.priv at Wed Apr 28 08:53:11 2021
Module time:
	user time   =      87.99 seconds =       1.47 minutes
	system time =       4.72 seconds =       0.08 minutes
	total time  =          5 seconds =       0.08 minutes
Total time:
	user time   =      87.99 seconds =       1.47 minutes
	system time =       4.72 seconds =       0.08 minutes
	total time  =          5 seconds =       0.08 minutes

  //>>>>>>>>>>>>>>>>>>>>>>>>>>>>>>>>>>>//
  //    Loading displacement 2 of 3    //
  //<<<<<<<<<<<<<<<<<<<<<<<<<<<<<<<<<<<//

*** tstart() called on bp1-compute00100.data.bp.acrc.priv
*** at Wed Apr 28 08:53:11 2021

   => Loading Basis Set <=

    Name: CC-PV(Q+D)Z
    Role: ORBITAL
    Keyword: BASIS
    atoms 1   entry C          line   249 file /work/zw18965/.conda/envs/p4env/share/psi4/basis/cc-pv_qpd_z.gbs 
    atoms 2-3 entry O          line   349 file /work/zw18965/.conda/envs/p4env/share/psi4/basis/cc-pv_qpd_z.gbs 


         ---------------------------------------------------------
                                   SCF
               by Justin Turney, Rob Parrish, Andy Simmonett
                          and Daniel G. A. Smith
                              RKS Reference
                       24 Threads, 137329 MiB Core
         ---------------------------------------------------------

  ==> Geometry <==

    Molecular point group: d2h
    Full point group: D_inf_h

    Geometry (in Angstrom), charge = 0, multiplicity = 1:

       Center              X                  Y                   Z               Mass       
    ------------   -----------------  -----------------  -----------------  -----------------
         C            0.000000000000     0.000000000000     0.000000000000    12.000000000000
         O            0.000000000000     0.000000000000     1.162132194659    15.994914619570
         O            0.000000000000     0.000000000000    -1.162132194659    15.994914619570

  Running in d2h symmetry.

  Rotational constants: A = ************  B =      0.39019  C =      0.39019 [cm^-1]
  Rotational constants: A = ************  B =  11697.53120  C =  11697.53120 [MHz]
  Nuclear repulsion =   58.284834786504561

  Charge       = 0
  Multiplicity = 1
  Electrons    = 22
  Nalpha       = 11
  Nbeta        = 11

  ==> Algorithm <==

  SCF Algorithm Type is DF.
  DIIS enabled.
  MOM disabled.
  Fractional occupation disabled.
  Guess Type is SAD.
  Energy threshold   = 1.00e-08
  Density threshold  = 1.00e-08
  Integral threshold = 0.00e+00

  ==> Primary Basis <==

  Basis Set: CC-PV(Q+D)Z
    Blend: CC-PV(Q+D)Z
    Number of shells: 45
    Number of basis function: 165
    Number of Cartesian functions: 210
    Spherical Harmonics?: true
    Max angular momentum: 4

  ==> DFT Potential <==

   => Composite Functional: WB97M-V <= 

    wB97M-V Hyb-GGA Exchange-Correlation Functional

    N. Mardirossian and M. Head-Gordon, J. Chem. Phys. 144, 214110 (2016)

    Deriv               =              1
    GGA                 =           TRUE
    Meta                =           TRUE

    Exchange Hybrid     =           TRUE
    MP2 Hybrid          =          FALSE

   => Exchange-Correlation Functionals <=

    1.0000   wB97M-V exchange-correlation functional

   => Exact (HF) Exchange <=

    0.8500            HF,LR [omega = 0.3000]
    0.1500               HF 

   => VV10 Non-Local Parameters <=

    VV10 B              =     6.0000E+00
    VV10 C              =     1.0000E-02

   => Molecular Quadrature <=

    Radial Scheme          =       TREUTLER
    Pruning Scheme         =           FLAT
    Nuclear Scheme         =       TREUTLER

    BS radius alpha        =              1
    Pruning alpha          =              1
    Radial Points          =             75
    Spherical Points       =            302
    Total Points           =          66112
    Total Blocks           =            573
    Max Points             =            256
    Max Functions          =            165

   => Loading Basis Set <=

    Name: (CC-PV(Q+D)Z AUX)
    Role: JKFIT
    Keyword: DF_BASIS_SCF
    atoms 1   entry C          line   137 file /work/zw18965/.conda/envs/p4env/share/psi4/basis/cc-pvqz-jkfit.gbs 
    atoms 2-3 entry O          line   253 file /work/zw18965/.conda/envs/p4env/share/psi4/basis/cc-pvqz-jkfit.gbs 

  ==> Pre-Iterations <==

   -------------------------------------------------------
    Irrep   Nso     Nmo     Nalpha   Nbeta   Ndocc  Nsocc
   -------------------------------------------------------
     Ag        36      36       0       0       0       0
     B1g       12      12       0       0       0       0
     B2g       18      18       0       0       0       0
     B3g       18      18       0       0       0       0
     Au         9       9       0       0       0       0
     B1u       30      30       0       0       0       0
     B2u       21      21       0       0       0       0
     B3u       21      21       0       0       0       0
   -------------------------------------------------------
    Total     165     165      11      11      11       0
   -------------------------------------------------------

  ==> Integral Setup <==

  ==> DiskDFJK: Density-Fitted J/K Matrices <==

    J tasked:                  Yes
    K tasked:                  Yes
    wK tasked:                 Yes
    Omega:               3.000E-01
    OpenMP threads:             24
    Integrals threads:          24
    Memory [MiB]:           102337
    Algorithm:                Core
    Integral Cache:           NONE
    Schwarz Cutoff:          1E-12
    Fitting Condition:       1E-10

   => Auxiliary Basis Set <=

  Basis Set: (CC-PV(Q+D)Z AUX)
    Blend: CC-PVQZ-JKFIT
    Number of shells: 84
    Number of basis function: 318
    Number of Cartesian functions: 426
    Spherical Harmonics?: true
    Max angular momentum: 5

  Cached 100.0% of DFT collocation blocks in 0.644 [GiB].

  Minimum eigenvalue in the overlap matrix is 3.3821157920E-04.
  Using Symmetric Orthogonalization.

  SCF Guess: Superposition of Atomic Densities via on-the-fly atomic UHF.

  ==> Iterations <==

                           Total Energy        Delta E     RMS |[F,P]|

   @DF-RKS iter SAD:  -187.94118321478732   -1.87941e+02   0.00000e+00 
   @DF-RKS iter   1:  -188.51442578409436   -5.73243e-01   9.60448e-03 DIIS
   @DF-RKS iter   2:  -188.47550767426623    3.89181e-02   1.12688e-02 DIIS
   @DF-RKS iter   3:  -188.62859001888728   -1.53082e-01   4.63378e-04 DIIS
   @DF-RKS iter   4:  -188.62890184800196   -3.11829e-04   1.23335e-04 DIIS
   @DF-RKS iter   5:  -188.62892307107646   -2.12231e-05   9.30550e-06 DIIS
   @DF-RKS iter   6:  -188.62892327219691   -2.01120e-07   1.88408e-06 DIIS
   @DF-RKS iter   7:  -188.62892328138415   -9.18723e-09   3.23962e-07 DIIS
   @DF-RKS iter   8:  -188.62892328171256   -3.28413e-10   3.78527e-08 DIIS
   @DF-RKS iter   9:  -188.62892328171756   -5.00222e-12   5.14814e-09 DIIS
  Energy and wave function converged.


  ==> Post-Iterations <==

    Orbital Energies [Eh]
    ---------------------

    Doubly Occupied:                                                      

       1B1u  -19.413435     1Ag   -19.413406     2Ag   -10.537308  
       3Ag    -1.295043     2B1u   -1.252073     4Ag    -0.684157  
       3B1u   -0.635825     1B3u   -0.634870     1B2u   -0.634870  
       1B3g   -0.478537     1B2g   -0.478537  

    Virtual:                                                              

       5Ag     0.086685     2B2u    0.123665     2B3u    0.123665  
       4B1u    0.224372     3B2u    0.240534     3B3u    0.240534  
       6Ag     0.346920     7Ag     0.409094     2B2g    0.457767  
       2B3g    0.457767     5B1u    0.460409     1B1g    0.497419  
       8Ag     0.497420     4B2u    0.647959     4B3u    0.647959  
       9Ag     0.826542     3B2g    0.910619     3B3g    0.910619  
       6B1u    0.949656     7B1u    1.023237     1Au     1.076941  
       8B1u    1.076941    10Ag     1.156551     5B3u    1.236442  
       5B2u    1.236442     9B1u    1.295668     2B1g    1.336596  
      11Ag     1.336597    12Ag     1.349557     4B2g    1.488721  
       4B3g    1.488721     6B3u    1.550839     6B2u    1.550839  
       7B3u    1.687697     7B2u    1.687697    10B1u    1.798036  
       3B1g    1.813906    13Ag     1.813908     2Au     2.139766  
      11B1u    2.139770     5B3g    2.140629     5B2g    2.140629  
      14Ag     2.261528     8B3u    2.388210     8B2u    2.388210  
      12B1u    2.753695     6B2g    2.932239     6B3g    2.932239  
      15Ag     2.937382     9B3u    2.991450     9B2u    2.991450  
      16Ag     3.043947     7B3g    3.108229     7B2g    3.108229  
      10B3u    3.325264    10B2u    3.325264     4B1g    3.506250  
      17Ag     3.506252    13B1u    3.638364    18Ag     3.719678  
      14B1u    3.760421     3Au     3.760429     8B2g    3.859532  
       8B3g    3.859532    19Ag     3.923650     5B1g    3.923658  
      15B1u    3.974961    11B3u    3.998591    11B2u    3.998591  
      16B1u    4.025224     4Au     4.309077    17B1u    4.309081  
      12B3u    4.482610    12B2u    4.482610    20Ag     4.521234  
      21Ag     4.770464     6B1g    4.770481     9B2g    4.944747  
       9B3g    4.944747    10B3g    5.044716    10B2g    5.044716  
      18B1u    5.265519    22Ag     5.348902     7B1g    5.736104  
      23Ag     5.736118    11B3g    5.811112    11B2g    5.811112  
      13B2u    5.814772    13B3u    5.814772    14B3u    5.848220  
      14B2u    5.848220     5Au     5.898875    19B1u    5.898884  
      24Ag     6.393647     8B1g    6.393652    25Ag     6.470281  
      20B1u    6.611046    15B2u    7.063051    15B3u    7.063051  
      12B3g    8.133155    12B2g    8.133155    26Ag     8.246619  
      21B1u    8.791351    22B1u    8.909195     6Au     8.909212  
      27Ag     8.933510     9B1g    8.933526    16B2u    8.955720  
      16B3u    8.955720    13B3g    9.370596    13B2g    9.370596  
       7Au     9.663142    23B1u    9.663149    24B1u   10.125277  
      17B3u   10.134789    17B2u   10.134789    14B2g   10.239815  
      14B3g   10.239815    15B2g   10.271575    15B3g   10.271575  
      10B1g   10.662214    28Ag    10.662242    29Ag    10.732379  
      18B3u   10.982170    18B2u   10.982170    16B3g   11.026720  
      16B2g   11.026720    19B2u   11.044793    19B3u   11.044793  
      25B1u   11.081733    30Ag    11.087325    11B1g   11.260718  
      31Ag    11.260731     8Au    11.608201    26B1u   11.608237  
      20B3u   11.769523    20B2u   11.769523     9Au    12.027419  
      27B1u   12.027442    17B2g   12.215118    17B3g   12.215118  
      12B1g   12.451043    32Ag    12.451062    28B1u   12.661045  
      33Ag    12.882109    21B3u   13.516271    21B2u   13.516271  
      34Ag    13.961680    18B2g   15.045554    18B3g   15.045554  
      29B1u   15.885896    35Ag    24.918661    30B1u   41.416979  
      36Ag    42.679766  

    Final Occupation by Irrep:
             Ag   B1g   B2g   B3g    Au   B1u   B2u   B3u 
    DOCC [     4,    0,    1,    1,    0,    3,    1,    1 ]

  @DF-RKS Final Energy:  -188.62892328171756

   => Energetics <=

    Nuclear Repulsion Energy =             58.2848347865045611
    One-Electron Energy =                -372.6241306780634659
    Two-Electron Energy =                 142.0176868153750149
    DFT Exchange-Correlation Energy =     -16.3990667247449053
    Empirical Dispersion Energy =           0.0000000000000000
    VV10 Nonlocal Energy =                  0.0917525192112312
    Total Energy =                       -188.6289232817175332

Computation Completed


Properties will be evaluated at   0.000000,   0.000000,   0.000000 [a0]

Properties computed using the SCF density matrix

  Nuclear Dipole Moment: [e a0]
     X:     0.0000      Y:     0.0000      Z:     0.0000

  Electronic Dipole Moment: [e a0]
     X:     0.0000      Y:     0.0000      Z:     0.0000

  Dipole Moment: [e a0]
     X:     0.0000      Y:     0.0000      Z:     0.0000     Total:     0.0000

  Dipole Moment: [D]
     X:     0.0000      Y:     0.0000      Z:     0.0000     Total:     0.0000


*** tstop() called on bp1-compute00100.data.bp.acrc.priv at Wed Apr 28 08:53:15 2021
Module time:
	user time   =      94.95 seconds =       1.58 minutes
	system time =       3.84 seconds =       0.06 minutes
	total time  =          4 seconds =       0.07 minutes
Total time:
	user time   =     183.07 seconds =       3.05 minutes
	system time =       8.57 seconds =       0.14 minutes
	total time  =          9 seconds =       0.15 minutes

  //>>>>>>>>>>>>>>>>>>>>>>>>>>>>>>>>>>>//
  //    Loading displacement 3 of 3    //
  //<<<<<<<<<<<<<<<<<<<<<<<<<<<<<<<<<<<//

*** tstart() called on bp1-compute00100.data.bp.acrc.priv
*** at Wed Apr 28 08:53:15 2021

   => Loading Basis Set <=

    Name: CC-PV(Q+D)Z
    Role: ORBITAL
    Keyword: BASIS
    atoms 1   entry C          line   249 file /work/zw18965/.conda/envs/p4env/share/psi4/basis/cc-pv_qpd_z.gbs 
    atoms 2-3 entry O          line   349 file /work/zw18965/.conda/envs/p4env/share/psi4/basis/cc-pv_qpd_z.gbs 


         ---------------------------------------------------------
                                   SCF
               by Justin Turney, Rob Parrish, Andy Simmonett
                          and Daniel G. A. Smith
                              RKS Reference
                       24 Threads, 137329 MiB Core
         ---------------------------------------------------------

  ==> Geometry <==

    Molecular point group: d2h
    Full point group: D_inf_h

    Geometry (in Angstrom), charge = 0, multiplicity = 1:

       Center              X                  Y                   Z               Mass       
    ------------   -----------------  -----------------  -----------------  -----------------
         C            0.000000000000     0.000000000000     0.000000000000    12.000000000000
         O            0.000000000000     0.000000000000     1.163067805341    15.994914619570
         O            0.000000000000     0.000000000000    -1.163067805341    15.994914619570

  Running in d2h symmetry.

  Rotational constants: A = ************  B =      0.38956  C =      0.38956 [cm^-1]
  Rotational constants: A = ************  B =  11678.71900  C =  11678.71900 [MHz]
  Nuclear repulsion =   58.237948514001836

  Charge       = 0
  Multiplicity = 1
  Electrons    = 22
  Nalpha       = 11
  Nbeta        = 11

  ==> Algorithm <==

  SCF Algorithm Type is DF.
  DIIS enabled.
  MOM disabled.
  Fractional occupation disabled.
  Guess Type is SAD.
  Energy threshold   = 1.00e-08
  Density threshold  = 1.00e-08
  Integral threshold = 0.00e+00

  ==> Primary Basis <==

  Basis Set: CC-PV(Q+D)Z
    Blend: CC-PV(Q+D)Z
    Number of shells: 45
    Number of basis function: 165
    Number of Cartesian functions: 210
    Spherical Harmonics?: true
    Max angular momentum: 4

  ==> DFT Potential <==

   => Composite Functional: WB97M-V <= 

    wB97M-V Hyb-GGA Exchange-Correlation Functional

    N. Mardirossian and M. Head-Gordon, J. Chem. Phys. 144, 214110 (2016)

    Deriv               =              1
    GGA                 =           TRUE
    Meta                =           TRUE

    Exchange Hybrid     =           TRUE
    MP2 Hybrid          =          FALSE

   => Exchange-Correlation Functionals <=

    1.0000   wB97M-V exchange-correlation functional

   => Exact (HF) Exchange <=

    0.8500            HF,LR [omega = 0.3000]
    0.1500               HF 

   => VV10 Non-Local Parameters <=

    VV10 B              =     6.0000E+00
    VV10 C              =     1.0000E-02

   => Molecular Quadrature <=

    Radial Scheme          =       TREUTLER
    Pruning Scheme         =           FLAT
    Nuclear Scheme         =       TREUTLER

    BS radius alpha        =              1
    Pruning alpha          =              1
    Radial Points          =             75
    Spherical Points       =            302
    Total Points           =          66112
    Total Blocks           =            574
    Max Points             =            256
    Max Functions          =            165

   => Loading Basis Set <=

    Name: (CC-PV(Q+D)Z AUX)
    Role: JKFIT
    Keyword: DF_BASIS_SCF
    atoms 1   entry C          line   137 file /work/zw18965/.conda/envs/p4env/share/psi4/basis/cc-pvqz-jkfit.gbs 
    atoms 2-3 entry O          line   253 file /work/zw18965/.conda/envs/p4env/share/psi4/basis/cc-pvqz-jkfit.gbs 

  ==> Pre-Iterations <==

   -------------------------------------------------------
    Irrep   Nso     Nmo     Nalpha   Nbeta   Ndocc  Nsocc
   -------------------------------------------------------
     Ag        36      36       0       0       0       0
     B1g       12      12       0       0       0       0
     B2g       18      18       0       0       0       0
     B3g       18      18       0       0       0       0
     Au         9       9       0       0       0       0
     B1u       30      30       0       0       0       0
     B2u       21      21       0       0       0       0
     B3u       21      21       0       0       0       0
   -------------------------------------------------------
    Total     165     165      11      11      11       0
   -------------------------------------------------------

  ==> Integral Setup <==

  ==> DiskDFJK: Density-Fitted J/K Matrices <==

    J tasked:                  Yes
    K tasked:                  Yes
    wK tasked:                 Yes
    Omega:               3.000E-01
    OpenMP threads:             24
    Integrals threads:          24
    Memory [MiB]:           102337
    Algorithm:                Core
    Integral Cache:           NONE
    Schwarz Cutoff:          1E-12
    Fitting Condition:       1E-10

   => Auxiliary Basis Set <=

  Basis Set: (CC-PV(Q+D)Z AUX)
    Blend: CC-PVQZ-JKFIT
    Number of shells: 84
    Number of basis function: 318
    Number of Cartesian functions: 426
    Spherical Harmonics?: true
    Max angular momentum: 5

  Cached 100.0% of DFT collocation blocks in 0.644 [GiB].

  Minimum eigenvalue in the overlap matrix is 3.3896427034E-04.
  Using Symmetric Orthogonalization.

  SCF Guess: Superposition of Atomic Densities via on-the-fly atomic UHF.

  ==> Iterations <==

                           Total Energy        Delta E     RMS |[F,P]|

   @DF-RKS iter SAD:  -187.93789760113273   -1.87938e+02   0.00000e+00 
   @DF-RKS iter   1:  -188.51425606350119   -5.76358e-01   9.60607e-03 DIIS
   @DF-RKS iter   2:  -188.47465688485138    3.95992e-02   1.12942e-02 DIIS
   @DF-RKS iter   3:  -188.62855085173430   -1.53894e-01   4.62496e-04 DIIS
   @DF-RKS iter   4:  -188.62886153628878   -3.10685e-04   1.23360e-04 DIIS
   @DF-RKS iter   5:  -188.62888279509843   -2.12588e-05   9.35379e-06 DIIS
   @DF-RKS iter   6:  -188.62888299843215   -2.03334e-07   1.90653e-06 DIIS
   @DF-RKS iter   7:  -188.62888300784167   -9.40952e-09   3.29601e-07 DIIS
   @DF-RKS iter   8:  -188.62888300818179   -3.40123e-10   3.83424e-08 DIIS
   @DF-RKS iter   9:  -188.62888300818705   -5.25802e-12   5.17735e-09 DIIS
  Energy and wave function converged.


  ==> Post-Iterations <==

    Orbital Energies [Eh]
    ---------------------

    Doubly Occupied:                                                      

       1B1u  -19.413654     1Ag   -19.413625     2Ag   -10.537746  
       3Ag    -1.294617     2B1u   -1.251643     4Ag    -0.684325  
       3B1u   -0.635766     1B2u   -0.634541     1B3u   -0.634541  
       1B2g   -0.478495     1B3g   -0.478495  

    Virtual:                                                              

       5Ag     0.086546     2B3u    0.123039     2B2u    0.123039  
       4B1u    0.224352     3B2u    0.240592     3B3u    0.240592  
       6Ag     0.346254     7Ag     0.408936     2B3g    0.457942  
       2B2g    0.457942     5B1u    0.460301     1B1g    0.497413  
       8Ag     0.497414     4B3u    0.647870     4B2u    0.647870  
       9Ag     0.826383     3B2g    0.909927     3B3g    0.909927  
       6B1u    0.949207     7B1u    1.021392     1Au     1.076831  
       8B1u    1.076831    10Ag     1.156199     5B2u    1.237017  
       5B3u    1.237017     9B1u    1.295635     2B1g    1.336225  
      11Ag     1.336227    12Ag     1.349774     4B2g    1.489324  
       4B3g    1.489324     6B2u    1.550181     6B3u    1.550181  
       7B3u    1.687666     7B2u    1.687666    10B1u    1.797944  
       3B1g    1.813811    13Ag     1.813813     2Au     2.139081  
      11B1u    2.139085     5B3g    2.139819     5B2g    2.139819  
      14Ag     2.261551     8B2u    2.387346     8B3u    2.387346  
      12B1u    2.754541     6B3g    2.930892     6B2g    2.930892  
      15Ag     2.934276     9B2u    2.991268     9B3u    2.991268  
      16Ag     3.043795     7B3g    3.108240     7B2g    3.108240  
      10B3u    3.324699    10B2u    3.324699     4B1g    3.504791  
      17Ag     3.504792    13B1u    3.639961    18Ag     3.719109  
      14B1u    3.760231     3Au     3.760239     8B3g    3.861188  
       8B2g    3.861188    19Ag     3.923622     5B1g    3.923630  
      15B1u    3.975688    11B2u    3.999404    11B3u    3.999404  
      16B1u    4.023513     4Au     4.307444    17B1u    4.307448  
      12B2u    4.482030    12B3u    4.482030    20Ag     4.518357  
      21Ag     4.770395     6B1g    4.770412     9B3g    4.940979  
       9B2g    4.940979    10B2g    5.043471    10B3g    5.043471  
      18B1u    5.260076    22Ag     5.351547     7B1g    5.735571  
      23Ag     5.735586    11B3g    5.809957    11B2g    5.809957  
      13B2u    5.812879    13B3u    5.812879    14B3u    5.848197  
      14B2u    5.848197     5Au     5.898332    19B1u    5.898341  
      24Ag     6.390558     8B1g    6.390563    25Ag     6.466556  
      20B1u    6.608422    15B3u    7.057523    15B2u    7.057523  
      12B3g    8.132044    12B2g    8.132044    26Ag     8.239523  
      21B1u    8.786615    22B1u    8.909244     6Au     8.909261  
      27Ag     8.933356     9B1g    8.933373    16B3u    8.955297  
      16B2u    8.955297    13B3g    9.368105    13B2g    9.368105  
       7Au     9.658816    23B1u    9.658823    24B1u   10.130257  
      17B2u   10.134680    17B3u   10.134680    14B3g   10.238340  
      14B2g   10.238340    15B3g   10.272448    15B2g   10.272448  
      10B1g   10.658218    28Ag    10.658246    29Ag    10.729063  
      18B3u   10.978718    18B2u   10.978718    16B3g   11.026589  
      16B2g   11.026589    19B2u   11.044476    19B3u   11.044476  
      25B1u   11.079388    30Ag    11.084309    11B1g   11.261095  
      31Ag    11.261109     8Au    11.606359    26B1u   11.606395  
      20B2u   11.769426    20B3u   11.769426     9Au    12.027235  
      27B1u   12.027258    17B3g   12.210143    17B2g   12.210143  
      12B1g   12.447131    32Ag    12.447149    28B1u   12.654087  
      33Ag    12.886306    21B2u   13.509115    21B3u   13.509115  
      34Ag    13.954244    18B3g   15.039380    18B2g   15.039380  
      29B1u   15.874781    35Ag    24.905882    30B1u   41.414487  
      36Ag    42.664866  

    Final Occupation by Irrep:
             Ag   B1g   B2g   B3g    Au   B1u   B2u   B3u 
    DOCC [     4,    0,    1,    1,    0,    3,    1,    1 ]

  @DF-RKS Final Energy:  -188.62888300818705

   => Energetics <=

    Nuclear Repulsion Energy =             58.2379485140018360
    One-Electron Energy =                -372.5324061851639499
    Two-Electron Energy =                 141.9713371051967101
    DFT Exchange-Correlation Energy =     -16.3975153147612467
    Empirical Dispersion Energy =           0.0000000000000000
    VV10 Nonlocal Energy =                  0.0917528725395763
    Total Energy =                       -188.6288830081870458

Computation Completed


Properties will be evaluated at   0.000000,   0.000000,   0.000000 [a0]

Properties computed using the SCF density matrix

  Nuclear Dipole Moment: [e a0]
     X:     0.0000      Y:     0.0000      Z:     0.0000

  Electronic Dipole Moment: [e a0]
     X:     0.0000      Y:     0.0000      Z:     0.0000

  Dipole Moment: [e a0]
     X:     0.0000      Y:     0.0000      Z:     0.0000     Total:     0.0000

  Dipole Moment: [D]
     X:     0.0000      Y:     0.0000      Z:     0.0000     Total:     0.0000


*** tstop() called on bp1-compute00100.data.bp.acrc.priv at Wed Apr 28 08:53:19 2021
Module time:
	user time   =      87.90 seconds =       1.46 minutes
	system time =       2.92 seconds =       0.05 minutes
	total time  =          4 seconds =       0.07 minutes
Total time:
	user time   =     271.12 seconds =       4.52 minutes
	system time =      11.49 seconds =       0.19 minutes
	total time  =         13 seconds =       0.22 minutes

         ----------------------------------------------------------
                                   FINDIF
                     R. A. King and Jonathon Misiewicz
         ---------------------------------------------------------

  Computing gradient from energies.
    Using 3-point formula.
    Energy without displacement: -188.6289040273
    Check energies below for precision!
    Forces are for mass-weighted, symmetry-adapted cartesians (in au).

     Coord      Energy(-1)        Energy(+1)            Force
        0   -188.6289232817   -188.6288830082      0.0040273531


-------------------------------------------------------------
  ## New Matrix (Symmetry 0) ##
  Irrep: 1 Size: 3 x 3

                 1                   2                   3

    1     0.00000000000000     0.00000000000000     0.00000000000000
    2     0.00000000000000     0.00000000000000     0.01138926421979
    3     0.00000000000000     0.00000000000000    -0.01138926421979




			-----------------------------------------
			 OPTKING 2.0: for geometry optimizations 
			  - R.A. King,  Bethel University        
			-----------------------------------------
	At level 1: Red. Int., RFO, no backsteps, dynamic trust

	Internal coordinates to be generated automatically.
	Detected frag 1 with atoms:  1 2 3
	---Fragment 1 Bond Connectivity---
	 1 : 2 3
	 2 : 1
	 3 : 1

	---Fragment 1 Geometry and Gradient---
	 C           0.0000000000        0.0000000000        0.0000000000
	 O           0.0000000000        0.0000000000        2.1969955935
	 O           0.0000000000        0.0000000000       -2.1969955935
	             0.0000000000        0.0000000000        0.0000000000
	             0.0000000000        0.0000000000        0.0113892642
	             0.0000000000        0.0000000000       -0.0113892642

	Previous optimization step data not found.  Starting new optimization.

	---Fragment 1 Intrafragment Coordinates---
	 - Coordinate -           - BOHR/RAD -       - ANG/DEG -
	 R(1,2)           =         2.196996	       1.162600
	 R(1,3)           =         2.196996	       1.162600
	 L(2,1,3)         =         3.141593	     180.000000
	 l(2,1,3)         =         3.141593	     180.000000

	Current energy   :      -188.6289040273

	Generating empirical Hessian (Schlegel '84) for each fragment.
	Taking RFO optimization step.
	Going to follow RFO solution 1.
	Using RFO vector 1.
	Norm of target step-size    0.01277
	Projected energy change by RFO approximation:        -0.0002056552

	Back-transformation to cartesian coordinates...
	Successfully converged to displaced geometry.

	--- Internal Coordinate Step in ANG or DEG, aJ/ANG or AJ/DEG ---
	 ---------------------------------------------------------------------------
	   Coordinate                Previous        Force       Change         New 
	   ----------                --------       ------       ------       ------
	    1 R(1,2)          =      1.162600    -0.093833    -0.004778     1.157822
	    2 R(1,3)          =      1.162600    -0.093833    -0.004778     1.157822
	    3 L(2,1,3)        =    180.000000     0.000000     0.000000   180.000000
	    4 l(2,1,3)        =    180.000000     0.000000     0.000000   180.000000
	 ---------------------------------------------------------------------------
	Successfully symmetrized geometry.

  ==> Convergence Check <==

  Measures of convergence in internal coordinates in au.
  Criteria marked as inactive (o), active & met (*), and active & unmet ( ).
  --------------------------------------------------------------------------------------------- ~
   Step     Total Energy     Delta E     MAX Force     RMS Force      MAX Disp      RMS Disp    ~
  --------------------------------------------------------------------------------------------- ~
    Convergence Criteria    1.00e-06 *    3.00e-04 *             o    1.20e-03 *             o  ~
  --------------------------------------------------------------------------------------------- ~
      1    -188.62890403   -1.89e+02      1.14e-02      8.05e-03 o    9.03e-03      6.39e-03 o  ~
  ---------------------------------------------------------------------------------------------

	Writing optimization data to binary file.
	Structure for next step:
	Cartesian Geometry (in Angstrom)
	    C    -0.0000000000   0.0000000000   0.0000000000
	    O     0.0000000000  -0.0000000000   1.1578215561
	    O     0.0000000000  -0.0000000000  -1.1578215561
			--------------------------
			 OPTKING Finished Execution 
			--------------------------

    Structure for next step:
    Molecular point group: d2h
    Full point group: D_inf_h

    Geometry (in Angstrom), charge = 0, multiplicity = 1:

    C            0.000000000000     0.000000000000     0.000000000000
    O           -0.000000000000    -0.000000000000     1.157821560670
    O           -0.000000000000    -0.000000000000    -1.157821560670

gradient() will perform gradient computation by finite difference of analytic energies.

         ----------------------------------------------------------
                                   FINDIF
                     R. A. King and Jonathon Misiewicz
         ---------------------------------------------------------

  Using finite-differences of energies to determine gradients.
    Generating geometries for use with 3-point formula.
    Displacement size will be 5.00e-03.
    Number of atoms is 3.
    Number of symmetric SALCs is 1.
    Translations projected? 1. Rotations projected? 1.
    Number of geometries (including reference) is 3.

  //>>>>>>>>>>>>>>>>>>>>>>>>>>>>>>>>>>>//
  //    Loading displacement 1 of 3    //
  //<<<<<<<<<<<<<<<<<<<<<<<<<<<<<<<<<<<//

*** tstart() called on bp1-compute00100.data.bp.acrc.priv
*** at Wed Apr 28 08:53:19 2021

   => Loading Basis Set <=

    Name: CC-PV(Q+D)Z
    Role: ORBITAL
    Keyword: BASIS
    atoms 1   entry C          line   249 file /work/zw18965/.conda/envs/p4env/share/psi4/basis/cc-pv_qpd_z.gbs 
    atoms 2-3 entry O          line   349 file /work/zw18965/.conda/envs/p4env/share/psi4/basis/cc-pv_qpd_z.gbs 


         ---------------------------------------------------------
                                   SCF
               by Justin Turney, Rob Parrish, Andy Simmonett
                          and Daniel G. A. Smith
                              RKS Reference
                       24 Threads, 137329 MiB Core
         ---------------------------------------------------------

  ==> Geometry <==

    Molecular point group: d2h
    Full point group: D_inf_h

    Geometry (in Angstrom), charge = 0, multiplicity = 1:

       Center              X                  Y                   Z               Mass       
    ------------   -----------------  -----------------  -----------------  -----------------
         C           -0.000000000000    -0.000000000000     0.000000000000    12.000000000000
         O            0.000000000000     0.000000000000     1.157821560670    15.994914619570
         O            0.000000000000     0.000000000000    -1.157821560670    15.994914619570

  Running in d2h symmetry.

  Rotational constants: A = ************  B =      0.39310  C =      0.39310 [cm^-1]
  Rotational constants: A = ************  B =  11784.79446  C =  11784.79446 [MHz]
  Nuclear repulsion =   58.501832464190848

  Charge       = 0
  Multiplicity = 1
  Electrons    = 22
  Nalpha       = 11
  Nbeta        = 11

  ==> Algorithm <==

  SCF Algorithm Type is DF.
  DIIS enabled.
  MOM disabled.
  Fractional occupation disabled.
  Guess Type is READ.
  Energy threshold   = 1.00e-08
  Density threshold  = 1.00e-08
  Integral threshold = 0.00e+00

  ==> Primary Basis <==

  Basis Set: CC-PV(Q+D)Z
    Blend: CC-PV(Q+D)Z
    Number of shells: 45
    Number of basis function: 165
    Number of Cartesian functions: 210
    Spherical Harmonics?: true
    Max angular momentum: 4

  ==> DFT Potential <==

   => Composite Functional: WB97M-V <= 

    wB97M-V Hyb-GGA Exchange-Correlation Functional

    N. Mardirossian and M. Head-Gordon, J. Chem. Phys. 144, 214110 (2016)

    Deriv               =              1
    GGA                 =           TRUE
    Meta                =           TRUE

    Exchange Hybrid     =           TRUE
    MP2 Hybrid          =          FALSE

   => Exchange-Correlation Functionals <=

    1.0000   wB97M-V exchange-correlation functional

   => Exact (HF) Exchange <=

    0.8500            HF,LR [omega = 0.3000]
    0.1500               HF 

   => VV10 Non-Local Parameters <=

    VV10 B              =     6.0000E+00
    VV10 C              =     1.0000E-02

   => Molecular Quadrature <=

    Radial Scheme          =       TREUTLER
    Pruning Scheme         =           FLAT
    Nuclear Scheme         =       TREUTLER

    BS radius alpha        =              1
    Pruning alpha          =              1
    Radial Points          =             75
    Spherical Points       =            302
    Total Points           =          66112
    Total Blocks           =            573
    Max Points             =            256
    Max Functions          =            165

   => Loading Basis Set <=

    Name: (CC-PV(Q+D)Z AUX)
    Role: JKFIT
    Keyword: DF_BASIS_SCF
    atoms 1   entry C          line   137 file /work/zw18965/.conda/envs/p4env/share/psi4/basis/cc-pvqz-jkfit.gbs 
    atoms 2-3 entry O          line   253 file /work/zw18965/.conda/envs/p4env/share/psi4/basis/cc-pvqz-jkfit.gbs 

   => Loading Basis Set <=

    Name: CC-PV(Q+D)Z
    Role: ORBITAL
    Keyword: BASIS
    atoms 1   entry C          line   249 file /work/zw18965/.conda/envs/p4env/share/psi4/basis/cc-pv_qpd_z.gbs 
    atoms 2-3 entry O          line   349 file /work/zw18965/.conda/envs/p4env/share/psi4/basis/cc-pv_qpd_z.gbs 

  Reading orbitals from file 180, no projection.

  ==> Pre-Iterations <==

   -------------------------------------------------------
    Irrep   Nso     Nmo     Nalpha   Nbeta   Ndocc  Nsocc
   -------------------------------------------------------
     Ag        36      36       0       0       0       0
     B1g       12      12       0       0       0       0
     B2g       18      18       0       0       0       0
     B3g       18      18       0       0       0       0
     Au         9       9       0       0       0       0
     B1u       30      30       0       0       0       0
     B2u       21      21       0       0       0       0
     B3u       21      21       0       0       0       0
   -------------------------------------------------------
    Total     165     165      11      11      11       0
   -------------------------------------------------------

  ==> Integral Setup <==

  ==> DiskDFJK: Density-Fitted J/K Matrices <==

    J tasked:                  Yes
    K tasked:                  Yes
    wK tasked:                 Yes
    Omega:               3.000E-01
    OpenMP threads:             24
    Integrals threads:          24
    Memory [MiB]:           102334
    Algorithm:                Core
    Integral Cache:           NONE
    Schwarz Cutoff:          1E-12
    Fitting Condition:       1E-10

   => Auxiliary Basis Set <=

  Basis Set: (CC-PV(Q+D)Z AUX)
    Blend: CC-PVQZ-JKFIT
    Number of shells: 84
    Number of basis function: 318
    Number of Cartesian functions: 426
    Spherical Harmonics?: true
    Max angular momentum: 5

  Cached 100.0% of DFT collocation blocks in 0.647 [GiB].

  Minimum eigenvalue in the overlap matrix is 3.3478730550E-04.
  Using Symmetric Orthogonalization.

  SCF Guess: Orbitals guess was supplied from a previous computation.

  ==> Iterations <==

                           Total Energy        Delta E     RMS |[F,P]|

   @DF-RKS iter   0:  -188.63937190741834   -1.88639e+02   3.83490e-04 
   @DF-RKS iter   1:  -188.62900577527060    1.03661e-02   7.56373e-05 DIIS
   @DF-RKS iter   2:  -188.62901327506614   -7.49980e-06   4.93984e-05 DIIS
   @DF-RKS iter   3:  -188.62901638444734   -3.10938e-06   1.36210e-05 DIIS
   @DF-RKS iter   4:  -188.62901659900481   -2.14557e-07   3.56979e-06 DIIS
   @DF-RKS iter   5:  -188.62901662105170   -2.20469e-08   4.09345e-07 DIIS
   @DF-RKS iter   6:  -188.62901662187625   -8.24542e-10   7.23887e-08 DIIS
   @DF-RKS iter   7:  -188.62901662188938   -1.31308e-11   7.49945e-09 DIIS
  Energy and wave function converged.


  ==> Post-Iterations <==

    Orbital Energies [Eh]
    ---------------------

    Doubly Occupied:                                                      

       1B1u  -19.412420     1Ag   -19.412390     2Ag   -10.535284  
       3Ag    -1.297005     2B1u   -1.254065     4Ag    -0.683377  
       1B3u   -0.636397     1B2u   -0.636397     3B1u   -0.636091  
       1B2g   -0.478725     1B3g   -0.478725  

    Virtual:                                                              

       5Ag     0.087314     2B3u    0.126554     2B2u    0.126554  
       4B1u    0.224464     3B2u    0.240268     3B3u    0.240268  
       6Ag     0.349937     7Ag     0.409886     2B3g    0.456959  
       2B2g    0.456959     5B1u    0.460909     1B1g    0.497448  
       8Ag     0.497449     4B2u    0.648369     4B3u    0.648369  
       9Ag     0.827307     3B3g    0.913816     3B2g    0.913816  
       6B1u    0.951438     7B1u    1.032008     1Au     1.077453  
       8B1u    1.077453    10Ag     1.158177     5B2u    1.233737  
       5B3u    1.233737     9B1u    1.295923     2B1g    1.338302  
      11Ag     1.338304    12Ag     1.348593     4B3g    1.485932  
       4B2g    1.485932     6B3u    1.553917     6B2u    1.553917  
       7B2u    1.687843     7B3u    1.687843    10B1u    1.798450  
       3B1g    1.814354    13Ag     1.814356     2Au     2.142918  
      11B1u    2.142922     5B3g    2.144382     5B2g    2.144382  
      14Ag     2.261380     8B3u    2.392230     8B2u    2.392230  
      12B1u    2.749957     6B3g    2.938389     6B2g    2.938389  
      15Ag     2.951697     9B3u    2.992200     9B2u    2.992200  
      16Ag     3.044743     7B3g    3.108189     7B2g    3.108189  
      10B2u    3.327889    10B3u    3.327889     4B1g    3.513014  
      17Ag     3.513015    13B1u    3.630582    18Ag     3.722328  
      14B1u    3.761284     3Au     3.761291     8B3g    3.851867  
       8B2g    3.851867    19Ag     3.923756     5B1g    3.923765  
      15B1u    3.971759    11B3u    3.995009    11B2u    3.995009  
      16B1u    4.033541     4Au     4.316594    17B1u    4.316598  
      12B3u    4.485319    12B2u    4.485319    20Ag     4.534578  
      21Ag     4.770782     6B1g    4.770800     9B3g    4.962172  
       9B2g    4.962172    10B3g    5.050494    10B2g    5.050494  
      18B1u    5.290729    22Ag     5.336707     7B1g    5.738534  
      23Ag     5.738547    11B3g    5.816493    11B2g    5.816493  
      13B3u    5.823538    13B2u    5.823538    14B2u    5.848317  
      14B3u    5.848317     5Au     5.901508    19B1u    5.901518  
      24Ag     6.407949     8B1g    6.407955    25Ag     6.487566  
      20B1u    6.623240    15B3u    7.088605    15B2u    7.088605  
      12B3g    8.137509    12B2g    8.137509    26Ag     8.279670  
      21B1u    8.812553    22B1u    8.908969     6Au     8.908984  
      27Ag     8.934235     9B1g    8.934250    16B3u    8.957722  
      16B2u    8.957722    13B2g    9.382198    13B3g    9.382198  
       7Au     9.683288    23B1u    9.683294    24B1u   10.102827  
      17B2u   10.135262    17B3u   10.135262    14B3g   10.243892  
      14B2g   10.243892    15B3g   10.271051    15B2g   10.271051  
      10B1g   10.680412    28Ag    10.680440    29Ag    10.746996  
      18B3u   10.997453    18B2u   10.997453    16B3g   11.027318  
      16B2g   11.027318    19B2u   11.046270    19B3u   11.046270  
      25B1u   11.092540    30Ag    11.101486    11B1g   11.258928  
      31Ag    11.258940     8Au    11.616708    26B1u   11.616741  
      20B3u   11.770401    20B2u   11.770401     9Au    12.028312  
      27B1u   12.028337    17B3g   12.238340    17B2g   12.238340  
      12B1g   12.469430    32Ag    12.469451    28B1u   12.693457  
      33Ag    12.862622    21B3u   13.549603    21B2u   13.549603  
      34Ag    13.996489    18B3g   15.073456    18B2g   15.073456  
      29B1u   15.936820    35Ag    24.977312    30B1u   41.428682  
      36Ag    42.748965  

    Final Occupation by Irrep:
             Ag   B1g   B2g   B3g    Au   B1u   B2u   B3u 
    DOCC [     4,    0,    1,    1,    0,    3,    1,    1 ]

  @DF-RKS Final Energy:  -188.62901662188938

   => Energetics <=

    Nuclear Repulsion Energy =             58.5018324641908478
    One-Electron Energy =                -373.0484896509558439
    Two-Electron Energy =                 142.2321502116045906
    DFT Exchange-Correlation Energy =     -16.4062605699401942
    Empirical Dispersion Energy =           0.0000000000000000
    VV10 Nonlocal Energy =                  0.0917509232112250
    Total Energy =                       -188.6290166218893773

Computation Completed


Properties will be evaluated at   0.000000,   0.000000,   0.000000 [a0]

Properties computed using the SCF density matrix

  Nuclear Dipole Moment: [e a0]
     X:     0.0000      Y:    -0.0000      Z:     0.0000

  Electronic Dipole Moment: [e a0]
     X:     0.0000      Y:     0.0000      Z:     0.0000

  Dipole Moment: [e a0]
     X:     0.0000      Y:    -0.0000      Z:     0.0000     Total:     0.0000

  Dipole Moment: [D]
     X:     0.0000      Y:    -0.0000      Z:     0.0000     Total:     0.0000


*** tstop() called on bp1-compute00100.data.bp.acrc.priv at Wed Apr 28 08:53:23 2021
Module time:
	user time   =      68.63 seconds =       1.14 minutes
	system time =       2.17 seconds =       0.04 minutes
	total time  =          4 seconds =       0.07 minutes
Total time:
	user time   =     340.14 seconds =       5.67 minutes
	system time =      13.68 seconds =       0.23 minutes
	total time  =         17 seconds =       0.28 minutes

  //>>>>>>>>>>>>>>>>>>>>>>>>>>>>>>>>>>>//
  //    Loading displacement 2 of 3    //
  //<<<<<<<<<<<<<<<<<<<<<<<<<<<<<<<<<<<//

*** tstart() called on bp1-compute00100.data.bp.acrc.priv
*** at Wed Apr 28 08:53:23 2021

   => Loading Basis Set <=

    Name: CC-PV(Q+D)Z
    Role: ORBITAL
    Keyword: BASIS
    atoms 1   entry C          line   249 file /work/zw18965/.conda/envs/p4env/share/psi4/basis/cc-pv_qpd_z.gbs 
    atoms 2-3 entry O          line   349 file /work/zw18965/.conda/envs/p4env/share/psi4/basis/cc-pv_qpd_z.gbs 


         ---------------------------------------------------------
                                   SCF
               by Justin Turney, Rob Parrish, Andy Simmonett
                          and Daniel G. A. Smith
                              RKS Reference
                       24 Threads, 137329 MiB Core
         ---------------------------------------------------------

  ==> Geometry <==

    Molecular point group: d2h
    Full point group: D_inf_h

    Geometry (in Angstrom), charge = 0, multiplicity = 1:

       Center              X                  Y                   Z               Mass       
    ------------   -----------------  -----------------  -----------------  -----------------
         C           -0.000000000000    -0.000000000000     0.000000000000    12.000000000000
         O            0.000000000000     0.000000000000     1.157353755329    15.994914619570
         O            0.000000000000     0.000000000000    -1.157353755329    15.994914619570

  Running in d2h symmetry.

  Rotational constants: A = ************  B =      0.39342  C =      0.39342 [cm^-1]
  Rotational constants: A = ************  B =  11794.32327  C =  11794.32327 [MHz]
  Nuclear repulsion =   58.525479054161146

  Charge       = 0
  Multiplicity = 1
  Electrons    = 22
  Nalpha       = 11
  Nbeta        = 11

  ==> Algorithm <==

  SCF Algorithm Type is DF.
  DIIS enabled.
  MOM disabled.
  Fractional occupation disabled.
  Guess Type is READ.
  Energy threshold   = 1.00e-08
  Density threshold  = 1.00e-08
  Integral threshold = 0.00e+00

  ==> Primary Basis <==

  Basis Set: CC-PV(Q+D)Z
    Blend: CC-PV(Q+D)Z
    Number of shells: 45
    Number of basis function: 165
    Number of Cartesian functions: 210
    Spherical Harmonics?: true
    Max angular momentum: 4

  ==> DFT Potential <==

   => Composite Functional: WB97M-V <= 

    wB97M-V Hyb-GGA Exchange-Correlation Functional

    N. Mardirossian and M. Head-Gordon, J. Chem. Phys. 144, 214110 (2016)

    Deriv               =              1
    GGA                 =           TRUE
    Meta                =           TRUE

    Exchange Hybrid     =           TRUE
    MP2 Hybrid          =          FALSE

   => Exchange-Correlation Functionals <=

    1.0000   wB97M-V exchange-correlation functional

   => Exact (HF) Exchange <=

    0.8500            HF,LR [omega = 0.3000]
    0.1500               HF 

   => VV10 Non-Local Parameters <=

    VV10 B              =     6.0000E+00
    VV10 C              =     1.0000E-02

   => Molecular Quadrature <=

    Radial Scheme          =       TREUTLER
    Pruning Scheme         =           FLAT
    Nuclear Scheme         =       TREUTLER

    BS radius alpha        =              1
    Pruning alpha          =              1
    Radial Points          =             75
    Spherical Points       =            302
    Total Points           =          66112
    Total Blocks           =            573
    Max Points             =            256
    Max Functions          =            165

   => Loading Basis Set <=

    Name: (CC-PV(Q+D)Z AUX)
    Role: JKFIT
    Keyword: DF_BASIS_SCF
    atoms 1   entry C          line   137 file /work/zw18965/.conda/envs/p4env/share/psi4/basis/cc-pvqz-jkfit.gbs 
    atoms 2-3 entry O          line   253 file /work/zw18965/.conda/envs/p4env/share/psi4/basis/cc-pvqz-jkfit.gbs 

   => Loading Basis Set <=

    Name: CC-PV(Q+D)Z
    Role: ORBITAL
    Keyword: BASIS
    atoms 1   entry C          line   249 file /work/zw18965/.conda/envs/p4env/share/psi4/basis/cc-pv_qpd_z.gbs 
    atoms 2-3 entry O          line   349 file /work/zw18965/.conda/envs/p4env/share/psi4/basis/cc-pv_qpd_z.gbs 

  Reading orbitals from file 180, no projection.

  ==> Pre-Iterations <==

   -------------------------------------------------------
    Irrep   Nso     Nmo     Nalpha   Nbeta   Ndocc  Nsocc
   -------------------------------------------------------
     Ag        36      36       0       0       0       0
     B1g       12      12       0       0       0       0
     B2g       18      18       0       0       0       0
     B3g       18      18       0       0       0       0
     Au         9       9       0       0       0       0
     B1u       30      30       0       0       0       0
     B2u       21      21       0       0       0       0
     B3u       21      21       0       0       0       0
   -------------------------------------------------------
    Total     165     165      11      11      11       0
   -------------------------------------------------------

  ==> Integral Setup <==

  ==> DiskDFJK: Density-Fitted J/K Matrices <==

    J tasked:                  Yes
    K tasked:                  Yes
    wK tasked:                 Yes
    Omega:               3.000E-01
    OpenMP threads:             24
    Integrals threads:          24
    Memory [MiB]:           102333
    Algorithm:                Core
    Integral Cache:           NONE
    Schwarz Cutoff:          1E-12
    Fitting Condition:       1E-10

   => Auxiliary Basis Set <=

  Basis Set: (CC-PV(Q+D)Z AUX)
    Blend: CC-PVQZ-JKFIT
    Number of shells: 84
    Number of basis function: 318
    Number of Cartesian functions: 426
    Spherical Harmonics?: true
    Max angular momentum: 5

  Cached 100.0% of DFT collocation blocks in 0.648 [GiB].

  Minimum eigenvalue in the overlap matrix is 3.3441994379E-04.
  Using Symmetric Orthogonalization.

  SCF Guess: Orbitals guess was supplied from a previous computation.

  ==> Iterations <==

                           Total Energy        Delta E     RMS |[F,P]|

   @DF-RKS iter   0:  -188.63002446195347   -1.88630e+02   3.78178e-05 
   @DF-RKS iter   1:  -188.62901741419978    1.00705e-03   7.36239e-06 DIIS
   @DF-RKS iter   2:  -188.62901748547651   -7.12767e-08   4.79098e-06 DIIS
   @DF-RKS iter   3:  -188.62901751472103   -2.92445e-08   1.32051e-06 DIIS
   @DF-RKS iter   4:  -188.62901751673644   -2.01541e-09   3.51895e-07 DIIS
   @DF-RKS iter   5:  -188.62901751694875   -2.12310e-10   3.99755e-08 DIIS
   @DF-RKS iter   6:  -188.62901751695645   -7.70228e-12   7.07633e-09 DIIS
  Energy and wave function converged.


  ==> Post-Iterations <==

    Orbital Energies [Eh]
    ---------------------

    Doubly Occupied:                                                      

       1B1u  -19.412309     1Ag   -19.412279     2Ag   -10.535064  
       3Ag    -1.297218     2B1u   -1.254281     4Ag    -0.683293  
       1B2u   -0.636564     1B3u   -0.636564     3B1u   -0.636119  
       1B3g   -0.478746     1B2g   -0.478746  

    Virtual:                                                              

       5Ag     0.087382     2B2u    0.126868     2B3u    0.126868  
       4B1u    0.224474     3B2u    0.240240     3B3u    0.240240  
       6Ag     0.350259     7Ag     0.409979     2B2g    0.456871  
       2B3g    0.456871     5B1u    0.460964     1B1g    0.497451  
       8Ag     0.497452     4B2u    0.648414     4B3u    0.648414  
       9Ag     0.827393     3B2g    0.914163     3B3g    0.914163  
       6B1u    0.951607     7B1u    1.032983     1Au     1.077509  
       8B1u    1.077509    10Ag     1.158354     5B3u    1.233438  
       5B2u    1.233438     9B1u    1.295962     2B1g    1.338487  
      11Ag     1.338489    12Ag     1.348491     4B2g    1.485629  
       4B3g    1.485629     6B2u    1.554256     6B3u    1.554256  
       7B3u    1.687859     7B2u    1.687859    10B1u    1.798494  
       3B1g    1.814404    13Ag     1.814406     2Au     2.143260  
      11B1u    2.143264     5B3g    2.144791     5B2g    2.144791  
      14Ag     2.261360     8B3u    2.392670     8B2u    2.392670  
      12B1u    2.749566     6B2g    2.939051     6B3g    2.939051  
      15Ag     2.953250     9B3u    2.992273     9B2u    2.992273  
      16Ag     3.044839     7B3g    3.108186     7B2g    3.108186  
      10B3u    3.328176    10B2u    3.328176     4B1g    3.513751  
      17Ag     3.513753    13B1u    3.629698    18Ag     3.722618  
      14B1u    3.761376     3Au     3.761384     8B2g    3.851033  
       8B3g    3.851033    19Ag     3.923765     5B1g    3.923774  
      15B1u    3.971429    11B3u    3.994637    11B2u    3.994637  
      16B1u    4.034481     4Au     4.317410    17B1u    4.317413  
      12B3u    4.485617    12B2u    4.485617    20Ag     4.536034  
      21Ag     4.770817     6B1g    4.770834     9B2g    4.964070  
       9B3g    4.964070    10B3g    5.051125    10B2g    5.051125  
      18B1u    5.293477    22Ag     5.335384     7B1g    5.738795  
      23Ag     5.738809    11B2g    5.817084    11B3g    5.817084  
      13B3u    5.824494    13B2u    5.824494    14B3u    5.848326  
      14B2u    5.848326     5Au     5.901806    19B1u    5.901816  
      24Ag     6.409508     8B1g    6.409514    25Ag     6.489454  
      20B1u    6.624574    15B3u    7.091386    15B2u    7.091386  
      12B3g    8.137906    12B2g    8.137906    26Ag     8.283291  
      21B1u    8.814789    22B1u    8.908944     6Au     8.908959  
      27Ag     8.934316     9B1g    8.934331    16B2u    8.957945  
      16B3u    8.957945    13B3g    9.383469    13B2g    9.383469  
       7Au     9.685496    23B1u    9.685501    24B1u   10.100445  
      17B3u   10.135310    17B2u   10.135310    14B2g   10.244019  
      14B3g   10.244019    15B3g   10.271389    15B2g   10.271389  
      10B1g   10.682366    28Ag    10.682393    29Ag    10.748517  
      18B3u   10.999049    18B2u   10.999049    16B3g   11.027383  
      16B2g   11.027383    19B2u   11.046432    19B3u   11.046432  
      25B1u   11.093714    30Ag    11.103047    11B1g   11.258729  
      31Ag    11.258740     8Au    11.617632    26B1u   11.617666  
      20B3u   11.770540    20B2u   11.770540     9Au    12.028413  
      27B1u   12.028439    17B2g   12.240890    17B3g   12.240890  
      12B1g   12.471462    32Ag    12.471482    28B1u   12.697009  
      33Ag    12.860498    21B3u   13.553256    21B2u   13.553256  
      34Ag    14.000319    18B3g   15.076430    18B2g   15.076430  
      29B1u   15.942317    35Ag    24.983654    30B1u   41.429975  
      36Ag    42.756526  

    Final Occupation by Irrep:
             Ag   B1g   B2g   B3g    Au   B1u   B2u   B3u 
    DOCC [     4,    0,    1,    1,    0,    3,    1,    1 ]

  @DF-RKS Final Energy:  -188.62901751695645

   => Energetics <=

    Nuclear Repulsion Energy =             58.5254790541611456
    One-Electron Energy =                -373.0947148893571352
    Two-Electron Energy =                 142.2555132443571040
    DFT Exchange-Correlation Energy =     -16.4070456789514658
    Empirical Dispersion Energy =           0.0000000000000000
    VV10 Nonlocal Energy =                  0.0917507528339023
    Total Energy =                       -188.6290175169564520

Computation Completed


Properties will be evaluated at   0.000000,   0.000000,   0.000000 [a0]

Properties computed using the SCF density matrix

  Nuclear Dipole Moment: [e a0]
     X:     0.0000      Y:    -0.0000      Z:     0.0000

  Electronic Dipole Moment: [e a0]
     X:     0.0000      Y:     0.0000      Z:     0.0000

  Dipole Moment: [e a0]
     X:     0.0000      Y:    -0.0000      Z:     0.0000     Total:     0.0000

  Dipole Moment: [D]
     X:     0.0000      Y:    -0.0000      Z:     0.0000     Total:     0.0000


*** tstop() called on bp1-compute00100.data.bp.acrc.priv at Wed Apr 28 08:53:26 2021
Module time:
	user time   =      69.84 seconds =       1.16 minutes
	system time =       3.01 seconds =       0.05 minutes
	total time  =          3 seconds =       0.05 minutes
Total time:
	user time   =     410.12 seconds =       6.84 minutes
	system time =      16.70 seconds =       0.28 minutes
	total time  =         20 seconds =       0.33 minutes

  //>>>>>>>>>>>>>>>>>>>>>>>>>>>>>>>>>>>//
  //    Loading displacement 3 of 3    //
  //<<<<<<<<<<<<<<<<<<<<<<<<<<<<<<<<<<<//

*** tstart() called on bp1-compute00100.data.bp.acrc.priv
*** at Wed Apr 28 08:53:26 2021

   => Loading Basis Set <=

    Name: CC-PV(Q+D)Z
    Role: ORBITAL
    Keyword: BASIS
    atoms 1   entry C          line   249 file /work/zw18965/.conda/envs/p4env/share/psi4/basis/cc-pv_qpd_z.gbs 
    atoms 2-3 entry O          line   349 file /work/zw18965/.conda/envs/p4env/share/psi4/basis/cc-pv_qpd_z.gbs 


         ---------------------------------------------------------
                                   SCF
               by Justin Turney, Rob Parrish, Andy Simmonett
                          and Daniel G. A. Smith
                              RKS Reference
                       24 Threads, 137329 MiB Core
         ---------------------------------------------------------

  ==> Geometry <==

    Molecular point group: d2h
    Full point group: D_inf_h

    Geometry (in Angstrom), charge = 0, multiplicity = 1:

       Center              X                  Y                   Z               Mass       
    ------------   -----------------  -----------------  -----------------  -----------------
         C           -0.000000000000    -0.000000000000     0.000000000000    12.000000000000
         O            0.000000000000     0.000000000000     1.158289366012    15.994914619570
         O            0.000000000000     0.000000000000    -1.158289366012    15.994914619570

  Running in d2h symmetry.

  Rotational constants: A = ************  B =      0.39278  C =      0.39278 [cm^-1]
  Rotational constants: A = ************  B =  11775.27719  C =  11775.27719 [MHz]
  Nuclear repulsion =   58.478204974803560

  Charge       = 0
  Multiplicity = 1
  Electrons    = 22
  Nalpha       = 11
  Nbeta        = 11

  ==> Algorithm <==

  SCF Algorithm Type is DF.
  DIIS enabled.
  MOM disabled.
  Fractional occupation disabled.
  Guess Type is READ.
  Energy threshold   = 1.00e-08
  Density threshold  = 1.00e-08
  Integral threshold = 0.00e+00

  ==> Primary Basis <==

  Basis Set: CC-PV(Q+D)Z
    Blend: CC-PV(Q+D)Z
    Number of shells: 45
    Number of basis function: 165
    Number of Cartesian functions: 210
    Spherical Harmonics?: true
    Max angular momentum: 4

  ==> DFT Potential <==

   => Composite Functional: WB97M-V <= 

    wB97M-V Hyb-GGA Exchange-Correlation Functional

    N. Mardirossian and M. Head-Gordon, J. Chem. Phys. 144, 214110 (2016)

    Deriv               =              1
    GGA                 =           TRUE
    Meta                =           TRUE

    Exchange Hybrid     =           TRUE
    MP2 Hybrid          =          FALSE

   => Exchange-Correlation Functionals <=

    1.0000   wB97M-V exchange-correlation functional

   => Exact (HF) Exchange <=

    0.8500            HF,LR [omega = 0.3000]
    0.1500               HF 

   => VV10 Non-Local Parameters <=

    VV10 B              =     6.0000E+00
    VV10 C              =     1.0000E-02

   => Molecular Quadrature <=

    Radial Scheme          =       TREUTLER
    Pruning Scheme         =           FLAT
    Nuclear Scheme         =       TREUTLER

    BS radius alpha        =              1
    Pruning alpha          =              1
    Radial Points          =             75
    Spherical Points       =            302
    Total Points           =          66112
    Total Blocks           =            573
    Max Points             =            256
    Max Functions          =            165

   => Loading Basis Set <=

    Name: (CC-PV(Q+D)Z AUX)
    Role: JKFIT
    Keyword: DF_BASIS_SCF
    atoms 1   entry C          line   137 file /work/zw18965/.conda/envs/p4env/share/psi4/basis/cc-pvqz-jkfit.gbs 
    atoms 2-3 entry O          line   253 file /work/zw18965/.conda/envs/p4env/share/psi4/basis/cc-pvqz-jkfit.gbs 

   => Loading Basis Set <=

    Name: CC-PV(Q+D)Z
    Role: ORBITAL
    Keyword: BASIS
    atoms 1   entry C          line   249 file /work/zw18965/.conda/envs/p4env/share/psi4/basis/cc-pv_qpd_z.gbs 
    atoms 2-3 entry O          line   349 file /work/zw18965/.conda/envs/p4env/share/psi4/basis/cc-pv_qpd_z.gbs 

  Reading orbitals from file 180, no projection.

  ==> Pre-Iterations <==

   -------------------------------------------------------
    Irrep   Nso     Nmo     Nalpha   Nbeta   Ndocc  Nsocc
   -------------------------------------------------------
     Ag        36      36       0       0       0       0
     B1g       12      12       0       0       0       0
     B2g       18      18       0       0       0       0
     B3g       18      18       0       0       0       0
     Au         9       9       0       0       0       0
     B1u       30      30       0       0       0       0
     B2u       21      21       0       0       0       0
     B3u       21      21       0       0       0       0
   -------------------------------------------------------
    Total     165     165      11      11      11       0
   -------------------------------------------------------

  ==> Integral Setup <==

  ==> DiskDFJK: Density-Fitted J/K Matrices <==

    J tasked:                  Yes
    K tasked:                  Yes
    wK tasked:                 Yes
    Omega:               3.000E-01
    OpenMP threads:             24
    Integrals threads:          24
    Memory [MiB]:           102335
    Algorithm:                Core
    Integral Cache:           NONE
    Schwarz Cutoff:          1E-12
    Fitting Condition:       1E-10

   => Auxiliary Basis Set <=

  Basis Set: (CC-PV(Q+D)Z AUX)
    Blend: CC-PVQZ-JKFIT
    Number of shells: 84
    Number of basis function: 318
    Number of Cartesian functions: 426
    Spherical Harmonics?: true
    Max angular momentum: 5

  Cached 100.0% of DFT collocation blocks in 0.646 [GiB].

  Minimum eigenvalue in the overlap matrix is 3.3515549250E-04.
  Using Symmetric Orthogonalization.

  SCF Guess: Orbitals guess was supplied from a previous computation.

  ==> Iterations <==

                           Total Energy        Delta E     RMS |[F,P]|

   @DF-RKS iter   0:  -188.62800663455897   -1.88628e+02   3.77712e-05 
   @DF-RKS iter   1:  -188.62901380051349   -1.00717e-03   7.37041e-06 DIIS
   @DF-RKS iter   2:  -188.62901387187020   -7.13567e-08   4.80149e-06 DIIS
   @DF-RKS iter   3:  -188.62901390125546   -2.93853e-08   1.32808e-06 DIIS
   @DF-RKS iter   4:  -188.62901390329648   -2.04102e-09   3.50863e-07 DIIS
   @DF-RKS iter   5:  -188.62901390350831   -2.11827e-10   4.01136e-08 DIIS
   @DF-RKS iter   6:  -188.62901390351632   -8.01492e-12   7.10223e-09 DIIS
  Energy and wave function converged.


  ==> Post-Iterations <==

    Orbital Energies [Eh]
    ---------------------

    Doubly Occupied:                                                      

       1B1u  -19.412531     1Ag   -19.412501     2Ag   -10.535504  
       3Ag    -1.296792     2B1u   -1.253848     4Ag    -0.683462  
       1B2u   -0.636231     1B3u   -0.636231     3B1u   -0.636062  
       1B3g   -0.478705     1B2g   -0.478705  

    Virtual:                                                              

       5Ag     0.087247     2B2u    0.126240     2B3u    0.126240  
       4B1u    0.224454     3B2u    0.240297     3B3u    0.240297  
       6Ag     0.349614     7Ag     0.409795     2B2g    0.457047  
       2B3g    0.457047     5B1u    0.460854     1B1g    0.497445  
       8Ag     0.497446     4B2u    0.648324     4B3u    0.648324  
       9Ag     0.827221     3B3g    0.913468     3B2g    0.913468  
       6B1u    0.951265     7B1u    1.031036     1Au     1.077397  
       8B1u    1.077397    10Ag     1.158001     5B2u    1.234034  
       5B3u    1.234034     9B1u    1.295887     2B1g    1.338117  
      11Ag     1.338119    12Ag     1.348695     4B2g    1.486236  
       4B3g    1.486236     6B2u    1.553579     6B3u    1.553579  
       7B2u    1.687827     7B3u    1.687827    10B1u    1.798406  
       3B1g    1.814304    13Ag     1.814306     2Au     2.142576  
      11B1u    2.142580     5B2g    2.143973     5B3g    2.143973  
      14Ag     2.261399     8B2u    2.391791     8B3u    2.391791  
      12B1u    2.750350     6B2g    2.937726     6B3g    2.937726  
      15Ag     2.950143     9B3u    2.992126     9B2u    2.992126  
      16Ag     3.044648     7B3g    3.108192     7B2g    3.108192  
      10B2u    3.327602    10B3u    3.327602     4B1g    3.512277  
      17Ag     3.512278    13B1u    3.631459    18Ag     3.722037  
      14B1u    3.761191     3Au     3.761199     8B2g    3.852702  
       8B3g    3.852702    19Ag     3.923746     5B1g    3.923755  
      15B1u    3.972092    11B2u    3.995385    11B3u    3.995385  
      16B1u    4.032608     4Au     4.315779    17B1u    4.315783  
      12B3u    4.485023    12B2u    4.485023    20Ag     4.533123  
      21Ag     4.770748     6B1g    4.770765     9B2g    4.960276  
       9B3g    4.960276    10B3g    5.049863    10B2g    5.049863  
      18B1u    5.287983    22Ag     5.338031     7B1g    5.738272  
      23Ag     5.738286    11B3g    5.815904    11B2g    5.815904  
      13B2u    5.822583    13B3u    5.822583    14B3u    5.848307  
      14B2u    5.848307     5Au     5.901211    19B1u    5.901221  
      24Ag     6.406392     8B1g    6.406397    25Ag     6.485681  
      20B1u    6.621909    15B2u    7.085825    15B3u    7.085825  
      12B2g    8.137098    12B3g    8.137098    26Ag     8.276056  
      21B1u    8.810303    22B1u    8.908993     6Au     8.909009  
      27Ag     8.934155     9B1g    8.934170    16B3u    8.957501  
      16B2u    8.957501    13B2g    9.380928    13B3g    9.380928  
       7Au     9.681085    23B1u    9.681090    24B1u   10.105220  
      17B2u   10.135213    17B3u   10.135213    14B2g   10.243702  
      14B3g   10.243702    15B2g   10.270791    15B3g   10.270791  
      10B1g   10.678455    28Ag    10.678482    29Ag    10.745463  
      18B3u   10.995844    18B2u   10.995844    16B3g   11.027254  
      16B2g   11.027254    19B2u   11.046109    19B3u   11.046109  
      25B1u   11.091367    30Ag    11.099930    11B1g   11.259126  
      31Ag    11.259138     8Au    11.615783    26B1u   11.615817  
      20B2u   11.770271    20B3u   11.770271     9Au    12.028211  
      27B1u   12.028236    17B2g   12.235796    17B3g   12.235796  
      12B1g   12.467406    32Ag    12.467426    28B1u   12.689912  
      33Ag    12.864746    21B2u   13.545957    21B3u   13.545957  
      34Ag    13.992669    18B2g   15.070472    18B3g   15.070472  
      29B1u   15.931317    35Ag    24.970965    30B1u   41.427394  
      36Ag    42.741413  

    Final Occupation by Irrep:
             Ag   B1g   B2g   B3g    Au   B1u   B2u   B3u 
[...]
    atoms 2-3 entry O          line   349 file /work/zw18965/.conda/envs/p4env/share/psi4/basis/cc-pv_qpd_z.gbs 


         ---------------------------------------------------------
                                   SCF
               by Justin Turney, Rob Parrish, Andy Simmonett
                          and Daniel G. A. Smith
                              RKS Reference
                       24 Threads, 137329 MiB Core
         ---------------------------------------------------------

  ==> Geometry <==

    Molecular point group: c2v
    Full point group: C2v

    Geometry (in Angstrom), charge = 0, multiplicity = 1:

       Center              X                  Y                   Z               Mass       
    ------------   -----------------  -----------------  -----------------  -----------------
         C           -0.000651343880     0.000000000000     0.000000000000    12.000000000000
         O            0.000244331612     0.000000000000     1.157350569549    15.994914619570
         O            0.000244331612     0.000000000000    -1.157350569549    15.994914619570

  Running in c2v symmetry.

  Rotational constants: A = 2407987.46702  B =      0.39342  C =      0.39342 [cm^-1]
  Rotational constants: A = 72189648157.17372  B =  11794.38820  C =  11794.38627 [MHz]
  Nuclear repulsion =   58.525627009612577

  Charge       = 0
  Multiplicity = 1
  Electrons    = 22
  Nalpha       = 11
  Nbeta        = 11

  ==> Algorithm <==

  SCF Algorithm Type is DF.
  DIIS enabled.
  MOM disabled.
  Fractional occupation disabled.
  Guess Type is SAD.
  Energy threshold   = 1.00e-10
  Density threshold  = 1.00e-10
  Integral threshold = 0.00e+00

  ==> Primary Basis <==

  Basis Set: CC-PV(Q+D)Z
    Blend: CC-PV(Q+D)Z
    Number of shells: 45
    Number of basis function: 165
    Number of Cartesian functions: 210
    Spherical Harmonics?: true
    Max angular momentum: 4

  ==> DFT Potential <==

   => Composite Functional: WB97M-V <= 

    wB97M-V Hyb-GGA Exchange-Correlation Functional

    N. Mardirossian and M. Head-Gordon, J. Chem. Phys. 144, 214110 (2016)

    Deriv               =              1
    GGA                 =           TRUE
    Meta                =           TRUE

    Exchange Hybrid     =           TRUE
    MP2 Hybrid          =          FALSE

   => Exchange-Correlation Functionals <=

    1.0000   wB97M-V exchange-correlation functional

   => Exact (HF) Exchange <=

    0.8500            HF,LR [omega = 0.3000]
    0.1500               HF 

   => VV10 Non-Local Parameters <=

    VV10 B              =     6.0000E+00
    VV10 C              =     1.0000E-02

   => Molecular Quadrature <=

    Radial Scheme          =       TREUTLER
    Pruning Scheme         =           FLAT
    Nuclear Scheme         =       TREUTLER

    BS radius alpha        =              1
    Pruning alpha          =              1
    Radial Points          =             75
    Spherical Points       =            302
    Total Points           =          66112
    Total Blocks           =            574
    Max Points             =            256
    Max Functions          =            165

   => Loading Basis Set <=

    Name: (CC-PV(Q+D)Z AUX)
    Role: JKFIT
    Keyword: DF_BASIS_SCF
    atoms 1   entry C          line   137 file /work/zw18965/.conda/envs/p4env/share/psi4/basis/cc-pvqz-jkfit.gbs 
    atoms 2-3 entry O          line   253 file /work/zw18965/.conda/envs/p4env/share/psi4/basis/cc-pvqz-jkfit.gbs 

  ==> Pre-Iterations <==

   -------------------------------------------------------
    Irrep   Nso     Nmo     Nalpha   Nbeta   Ndocc  Nsocc
   -------------------------------------------------------
     A1        57      57       0       0       0       0
     A2        27      27       0       0       0       0
     B1        33      33       0       0       0       0
     B2        48      48       0       0       0       0
   -------------------------------------------------------
    Total     165     165      11      11      11       0
   -------------------------------------------------------

  ==> Integral Setup <==

  ==> DiskDFJK: Density-Fitted J/K Matrices <==

    J tasked:                  Yes
    K tasked:                  Yes
    wK tasked:                 Yes
    Omega:               3.000E-01
    OpenMP threads:             24
    Integrals threads:          24
    Memory [MiB]:           102332
    Algorithm:                Core
    Integral Cache:           NONE
    Schwarz Cutoff:          1E-12
    Fitting Condition:       1E-10

   => Auxiliary Basis Set <=

  Basis Set: (CC-PV(Q+D)Z AUX)
    Blend: CC-PVQZ-JKFIT
    Number of shells: 84
    Number of basis function: 318
    Number of Cartesian functions: 426
    Spherical Harmonics?: true
    Max angular momentum: 5

  Cached 100.0% of DFT collocation blocks in 0.649 [GiB].

  Minimum eigenvalue in the overlap matrix is 3.3441750825E-04.
  Using Symmetric Orthogonalization.

  SCF Guess: Superposition of Atomic Densities via on-the-fly atomic UHF.

  ==> Iterations <==

                           Total Energy        Delta E     RMS |[F,P]|

   @DF-RKS iter SAD:  -187.95802108153217   -1.87958e+02   0.00000e+00 
   @DF-RKS iter   1:  -188.51515240619091   -5.57131e-01   7.02660e-03 DIIS
   @DF-RKS iter   2:  -188.47965560623862    3.54968e-02   8.15642e-03 DIIS
   @DF-RKS iter   3:  -188.62867826120731   -1.49023e-01   3.42616e-04 DIIS
   @DF-RKS iter   4:  -188.62899604171983   -3.17781e-04   9.02212e-05 DIIS
   @DF-RKS iter   5:  -188.62901709664550   -2.10549e-05   6.63961e-06 DIIS
   @DF-RKS iter   6:  -188.62901728736981   -1.90724e-07   1.29970e-06 DIIS
   @DF-RKS iter   7:  -188.62901729553047   -8.16067e-09   2.16876e-07 DIIS
   @DF-RKS iter   8:  -188.62901729580497   -2.74497e-10   2.57877e-08 DIIS
   @DF-RKS iter   9:  -188.62901729580878   -3.80851e-12   3.64499e-09 DIIS
   @DF-RKS iter  10:  -188.62901729580921   -4.26326e-13   2.44616e-10 DIIS
   @DF-RKS iter  11:  -188.62901729580892    2.84217e-13   4.30614e-11 DIIS
  Energy and wave function converged.


  ==> Post-Iterations <==

    Orbital Energies [Eh]
    ---------------------

    Doubly Occupied:                                                      

       1B2   -19.412308     1A1   -19.412279     2A1   -10.535062  
       3A1    -1.297220     2B2    -1.254283     4A1    -0.683292  
       1B1    -0.636565     5A1    -0.636565     3B2    -0.636119  
       1A2    -0.478746     4B2    -0.478746  

    Virtual:                                                              

       6A1     0.087380     2B1     0.126870     7A1     0.126871  
       5B2     0.224474     8A1     0.240240     3B1     0.240240  
       9A1     0.350262    10A1     0.409980     6B2     0.456866  
       2A2     0.456871     7B2     0.460969     4B1     0.497452  
      11A1     0.497452    12A1     0.648413     5B1     0.648414  
      13A1     0.827394     8B2     0.914160     3A2     0.914164  
       9B2     0.951610    10B2     1.032990     4A2     1.077510  
      11B2     1.077510    14A1     1.158354     6B1     1.233436  
      15A1     1.233436    12B2     1.295963     7B1     1.338488  
      16A1     1.338490    17A1     1.348491    13B2     1.485626  
       5A2     1.485627     8B1     1.554259    18A1     1.554260  
       9B1     1.687860    19A1     1.687860    14B2     1.798495  
      10B1     1.814404    20A1     1.814406     6A2     2.143242  
      15B2     2.143246     7A2     2.144812    16B2     2.144813  
      21A1     2.261356    11B1     2.392672    22A1     2.392673  
      17B2     2.749566    18B2     2.939053     8A2     2.939054  
      23A1     2.953228    12B1     2.992272    24A1     2.992303  
      25A1     3.044842    19B2     3.108186     9A2     3.108186  
      26A1     3.328177    13B1     3.328177    14B1     3.513759  
      27A1     3.513761    20B2     3.629688    28A1     3.722621  
      21B2     3.761377    10A2     3.761385    11A2     3.851028  
      22B2     3.851030    29A1     3.923765    15B1     3.923774  
      23B2     3.971429    30A1     3.994634    16B1     3.994635  
      24B2     4.034487    12A2     4.317409    25B2     4.317412  
      31A1     4.485611    17B1     4.485618    32A1     4.536048  
      33A1     4.770817    18B1     4.770835    26B2     4.964080  
      13A2     4.964081    14A2     5.051134    27B2     5.051134  
      28B2     5.293494    34A1     5.335376    19B1     5.738796  
      35A1     5.738810    15A2     5.817087    29B2     5.817091  
      36A1     5.824495    20B1     5.824498    37A1     5.848326  
      21B1     5.848326    16A2     5.901811    30B2     5.901821  
      38A1     6.409516    22B1     6.409521    39A1     6.489468  
      31B2     6.624581    23B1     7.091406    40A1     7.091406  
      17A2     8.137903    32B2     8.137904    41A1     8.283312  
      33B2     8.814799    34B2     8.908944    18A2     8.908959  
      42A1     8.934316    24B1     8.934331    25B1     8.957948  
      43A1     8.957948    35B2     9.383474    19A2     9.383474  
      20A2     9.685517    36B2     9.685522    37B2    10.100427  
      44A1    10.135309    26B1    10.135310    21A2    10.244019  
      38B2    10.244026    22A2    10.271392    39B2    10.271394  
      27B1    10.682372    45A1    10.682399    46A1    10.748522  
      28B1    10.999055    47A1    10.999059    23A2    11.027383  
      40B2    11.027383    29B1    11.046433    48A1    11.046433  
      41B2    11.093722    49A1    11.103049    30B1    11.258729  
      50A1    11.258741    24A2    11.617637    42B2    11.617670  
      31B1    11.770543    51A1    11.770550    25A2    12.028413  
      43B2    12.028438    44B2    12.240904    26A2    12.240907  
      32B1    12.471471    52A1    12.471492    45B2    12.697037  
      53A1    12.860485    54A1    13.553273    33B1    13.553279  
      55A1    14.000347    46B2    15.076421    27A2    15.076437  
      47B2    15.942343    56A1    24.983694    48B2    41.429997  
      57A1    42.756562  

    Final Occupation by Irrep:
             A1    A2    B1    B2 
    DOCC [     5,    1,    1,    4 ]

  @DF-RKS Final Energy:  -188.62901729580892

   => Energetics <=

    Nuclear Repulsion Energy =             58.5256270096125775
    One-Electron Energy =                -373.0950058331984565
    Two-Electron Energy =                 142.2556613768608997
    DFT Exchange-Correlation Energy =     -16.4070506003976107
    Empirical Dispersion Energy =           0.0000000000000000
    VV10 Nonlocal Energy =                  0.0917507513136948
    Total Energy =                       -188.6290172958089215

Computation Completed


Properties will be evaluated at   0.000000,   0.000000,   0.000000 [a0]

Properties computed using the SCF density matrix

  Nuclear Dipole Moment: [e a0]
     X:     0.0000      Y:     0.0000      Z:     0.0000

  Electronic Dipole Moment: [e a0]
     X:    -0.0009      Y:     0.0000      Z:     0.0000

  Dipole Moment: [e a0]
     X:    -0.0009      Y:     0.0000      Z:     0.0000     Total:     0.0009

  Dipole Moment: [D]
     X:    -0.0023      Y:     0.0000      Z:     0.0000     Total:     0.0023


*** tstop() called on bp1-compute00100.data.bp.acrc.priv at Wed Apr 28 08:54:16 2021
Module time:
	user time   =      93.50 seconds =       1.56 minutes
	system time =       2.56 seconds =       0.04 minutes
	total time  =          5 seconds =       0.08 minutes
Total time:
	user time   =    1501.71 seconds =      25.03 minutes
	system time =      49.66 seconds =       0.83 minutes
	total time  =         70 seconds =       1.17 minutes

         ----------------------------------------------------------
                                   FINDIF
                     R. A. King and Jonathon Misiewicz
         ---------------------------------------------------------

  Computing second-derivative from energies using projected, 
  symmetry-adapted, cartesian coordinates.

  6 energies passed in, including the reference geometry.
    Using 3-point formula.
    Energy without displacement: -188.6290175165
    Check energies below for precision!
    0: -1 :      -188.6290165680
    0: 1  :      -188.6290166343
    1: -1 :      -188.6290147446
    2: -1 :      -188.6290172958
    3: -1 :      -188.6290172958

-------------------------------------------------------------


  ==> Harmonic Vibrational Analysis <==

  non-mass-weighted Hessian:       Symmetric? True   Hermitian? True   Lin Dep Dim?  5 (0)
  projection of translations (True) and rotations (True) removed 5 degrees of freedom (5)
  total projector:                 Symmetric? True   Hermitian? True   Lin Dep Dim?  5 (5)
  mass-weighted Hessian:           Symmetric? True   Hermitian? True   Lin Dep Dim?  5 (0)
  pre-proj  low-frequency mode:    0.0000i [cm^-1]
  pre-proj  low-frequency mode:    0.0000  [cm^-1]
  pre-proj  low-frequency mode:    0.0000  [cm^-1]
  pre-proj  low-frequency mode:    0.0000  [cm^-1]
  pre-proj  low-frequency mode:    0.0000  [cm^-1]
  pre-proj  all modes:['0.0000i' '0.0000' '0.0000' '0.0000' '0.0000' '682.9266' '682.9841'
 '1391.0237' '2420.6693']
  projected mass-weighted Hessian: Symmetric? True   Hermitian? True   Lin Dep Dim?  5 (5)
  post-proj low-frequency mode:    0.0000i [cm^-1] (TR)
  post-proj low-frequency mode:    0.0000i [cm^-1] (TR)
  post-proj low-frequency mode:    0.0000i [cm^-1] (TR)
  post-proj low-frequency mode:    0.0000  [cm^-1] (TR)
  post-proj low-frequency mode:    0.0000  [cm^-1] (TR)
  post-proj  all modes:['0.0000i' '0.0000i' '0.0000i' '0.0000' '0.0000' '682.9266' '682.9841'
 '1391.0237' '2420.6693']

  Vibration                       6                   7                   8           
  Freq [cm^-1]                 682.9266            682.9841           1391.0237       
  Irrep                          B2u                 B3u                  Ag          
  Reduced mass [u]             12.8774             12.8774             15.9949        
  Force const [mDyne/A]         3.5386              3.5391             18.2348        
  Turning point v=0 [a0]        0.1170              0.1170              0.0736        
  RMS dev v=0 [a0 u^1/2]        0.2969              0.2969              0.2080        
  Char temp [K]                982.5793            982.6620           2001.3734       
  ----------------------------------------------------------------------------------
      1   C                0.00  0.88  0.00    0.88  0.00 -0.00    0.00 -0.00  0.00   
      2   O               -0.00 -0.33  0.00   -0.33 -0.00  0.00   -0.00 -0.00  0.71   
      3   O                0.00 -0.33  0.00   -0.33  0.00  0.00    0.00 -0.00 -0.71   

  Vibration                       9           
  Freq [cm^-1]                2420.6693       
  Irrep                          B1u          
  Reduced mass [u]             12.8774        
  Force const [mDyne/A]        44.4578        
  Turning point v=0 [a0]        0.0621        
  RMS dev v=0 [a0 u^1/2]        0.1577        
  Char temp [K]               3482.8041       
  ----------------------------------------------------------------------------------
      1   C                0.00 -0.00  0.88   
      2   O               -0.00 -0.00 -0.33   
      3   O                0.00  0.00 -0.33   

  ==> Thermochemistry Components <==

  Entropy, S
    Electronic S            0.000 [cal/(mol K)]        0.000 [J/(mol K)]       0.00000000 [mEh/K] (multiplicity = 1)
    Translational S        37.270 [cal/(mol K)]      155.938 [J/(mol K)]       0.05939371 [mEh/K] (mol. weight = 43.9898 [u], P = 101325.00 [Pa])
    Rotational S           13.063 [cal/(mol K)]       54.655 [J/(mol K)]       0.02081715 [mEh/K] (symmetry no. = 2)
    Vibrational S           0.673 [cal/(mol K)]        2.815 [J/(mol K)]       0.00107205 [mEh/K]
  Total S                  51.006 [cal/(mol K)]      213.408 [J/(mol K)]       0.08128292 [mEh/K]
  Correction S              0.000 [cal/(mol K)]        0.000 [J/(mol K)]       0.00000000 [mEh/K]

  Constant volume heat capacity, Cv
    Electronic Cv           0.000 [cal/(mol K)]        0.000 [J/(mol K)]       0.00000000 [mEh/K]
    Translational Cv        2.981 [cal/(mol K)]       12.472 [J/(mol K)]       0.00475022 [mEh/K]
    Rotational Cv           1.987 [cal/(mol K)]        8.314 [J/(mol K)]       0.00316681 [mEh/K]
    Vibrational Cv          1.836 [cal/(mol K)]        7.681 [J/(mol K)]       0.00292555 [mEh/K]
  Total Cv                  6.804 [cal/(mol K)]       28.467 [J/(mol K)]       0.01084258 [mEh/K]
  Correction Cv             0.000 [cal/(mol K)]        0.000 [J/(mol K)]       0.00000000 [mEh/K]

  Constant pressure heat capacity, Cp
    Electronic Cp           0.000 [cal/(mol K)]        0.000 [J/(mol K)]       0.00000000 [mEh/K]
    Translational Cp        4.968 [cal/(mol K)]       20.786 [J/(mol K)]       0.00791703 [mEh/K]
    Rotational Cp           1.987 [cal/(mol K)]        8.314 [J/(mol K)]       0.00316681 [mEh/K]
    Vibrational Cp          1.836 [cal/(mol K)]        7.681 [J/(mol K)]       0.00292555 [mEh/K]
  Total Cp                  8.791 [cal/(mol K)]       36.782 [J/(mol K)]       0.01400939 [mEh/K]
  Correction Cp             0.000 [cal/(mol K)]        0.000 [J/(mol K)]       0.00000000 [mEh/K]

  ==> Thermochemistry Energy Analysis <==

  Raw electronic energy, E0
  Total E0, Electronic energy at well bottom at 0 [K]                 -188.62901752 [Eh]

  Zero-point energy, ZPE_vib = Sum_i nu_i / 2
    Electronic ZPE          0.000 [kcal/mol]        0.000 [kJ/mol]       0.00000000 [Eh]
    Translational ZPE       0.000 [kcal/mol]        0.000 [kJ/mol]       0.00000000 [Eh]
    Rotational ZPE          0.000 [kcal/mol]        0.000 [kJ/mol]       0.00000000 [Eh]
    Vibrational ZPE         7.402 [kcal/mol]       30.969 [kJ/mol]       0.01179545 [Eh]        2588.802 [cm^-1]
  Correction ZPE            7.402 [kcal/mol]       30.969 [kJ/mol]       0.01179545 [Eh]        2588.802 [cm^-1]
  Total ZPE, Electronic energy at 0 [K]                               -188.61722207 [Eh]

  Thermal Energy, E (includes ZPE)
    Electronic E            0.000 [kcal/mol]        0.000 [kJ/mol]       0.00000000 [Eh]
    Translational E         0.889 [kcal/mol]        3.718 [kJ/mol]       0.00141628 [Eh]
    Rotational E            0.592 [kcal/mol]        2.479 [kJ/mol]       0.00094418 [Eh]
    Vibrational E           7.557 [kcal/mol]       31.618 [kJ/mol]       0.01204265 [Eh]
  Correction E              9.038 [kcal/mol]       37.815 [kJ/mol]       0.01440311 [Eh]
  Total E, Electronic energy at  298.15 [K]                           -188.61461441 [Eh]

  Enthalpy, H_trans = E_trans + k_B * T
    Electronic H            0.000 [kcal/mol]        0.000 [kJ/mol]       0.00000000 [Eh]
    Translational H         1.481 [kcal/mol]        6.197 [kJ/mol]       0.00236046 [Eh]
    Rotational H            0.592 [kcal/mol]        2.479 [kJ/mol]       0.00094418 [Eh]
    Vibrational H           7.557 [kcal/mol]       31.618 [kJ/mol]       0.01204265 [Eh]
  Correction H              9.631 [kcal/mol]       40.294 [kJ/mol]       0.01534730 [Eh]
  Total H, Enthalpy at  298.15 [K]                                    -188.61367022 [Eh]

  Gibbs free energy, G = H - T * S
    Electronic G            0.000 [kcal/mol]        0.000 [kJ/mol]       0.00000000 [Eh]
    Translational G        -9.631 [kcal/mol]      -40.296 [kJ/mol]      -0.01534777 [Eh]
    Rotational G           -3.302 [kcal/mol]      -13.817 [kJ/mol]      -0.00526245 [Eh]
    Vibrational G           7.356 [kcal/mol]       30.779 [kJ/mol]       0.01172302 [Eh]
  Correction G             -5.577 [kcal/mol]      -23.333 [kJ/mol]      -0.00888721 [Eh]
  Total G, Free enthalpy at  298.15 [K]                               -188.63790472 [Eh]

    Psi4 stopped on: Wednesday, 28 April 2021 08:54AM
    Psi4 wall time for execution: 0:01:10.90

*** Psi4 exiting successfully. Buy a developer a beer!
