
    -----------------------------------------------------------------------
          Psi4: An Open-Source Ab Initio Electronic Structure Package
                               Psi4 1.3.2 release

                         Git: Rev {HEAD} ecbda83 


    R. M. Parrish, L. A. Burns, D. G. A. Smith, A. C. Simmonett,
    A. E. DePrince III, E. G. Hohenstein, U. Bozkaya, A. Yu. Sokolov,
    R. Di Remigio, R. M. Richard, J. F. Gonthier, A. M. James,
    H. R. McAlexander, A. Kumar, M. Saitow, X. Wang, B. P. Pritchard,
    P. Verma, H. F. Schaefer III, K. Patkowski, R. A. King, E. F. Valeev,
    F. A. Evangelista, J. M. Turney, T. D. Crawford, and C. D. Sherrill,
    J. Chem. Theory Comput. 13(7) pp 3185--3197 (2017).
    (doi: 10.1021/acs.jctc.7b00174)


                         Additional Contributions by
    P. Kraus, H. Kruse, M. H. Lechner, M. C. Schieber, R. A. Shaw,
    A. Alenaizan, R. Galvelis, Z. L. Glick, S. Lehtola, and J. P. Misiewicz

    -----------------------------------------------------------------------


    Psi4 started on: Tuesday, 27 April 2021 05:11PM

    Process ID: 252646
    Host:       bp1-compute00048.data.bp.acrc.priv
    PSIDATADIR: /work/zw18965/.conda/envs/p4env/share/psi4
    Memory:     500.0 MiB
    Threads:    24
    
  ==> Input File <==

--------------------------------------------------------------------------
memory 144 GB

molecule {
0 1
C 0.0000000000 0.0000000000 0.0000000000
S 0.0000000000 0.0000000000 1.5415329200
}

set dynamic_level 1
set basis cc-pV(Q+d)Z
 
optimize("wB97M-V")
frequencies("wB97M-V")
--------------------------------------------------------------------------

  Memory set to 134.110 GiB by Python driver.
gradient() will perform gradient computation by finite difference of analytic energies.

         ----------------------------------------------------------
                                   FINDIF
                     R. A. King and Jonathon Misiewicz
         ---------------------------------------------------------

  Using finite-differences of energies to determine gradients.
    Generating geometries for use with 3-point formula.
    Displacement size will be 5.00e-03.
    Number of atoms is 2.
    Number of symmetric SALCs is 1.
    Translations projected? 1. Rotations projected? 1.
    Number of geometries (including reference) is 3.

  //>>>>>>>>>>>>>>>>>>>>>>>>>>>>>>>>>>>//
  //    Loading displacement 1 of 3    //
  //<<<<<<<<<<<<<<<<<<<<<<<<<<<<<<<<<<<//

*** tstart() called on bp1-compute00048.data.bp.acrc.priv
*** at Tue Apr 27 17:11:02 2021

   => Loading Basis Set <=

    Name: CC-PV(Q+D)Z
    Role: ORBITAL
    Keyword: BASIS
    atoms 1 entry C          line   249 file /work/zw18965/.conda/envs/p4env/share/psi4/basis/cc-pv_qpd_z.gbs 
    atoms 2 entry S          line   978 file /work/zw18965/.conda/envs/p4env/share/psi4/basis/cc-pv_qpd_z.gbs 


         ---------------------------------------------------------
                                   SCF
               by Justin Turney, Rob Parrish, Andy Simmonett
                          and Daniel G. A. Smith
                              RKS Reference
                       24 Threads, 137329 MiB Core
         ---------------------------------------------------------

  ==> Geometry <==

    Molecular point group: c2v
    Full point group: C_inf_v

    Geometry (in Angstrom), charge = 0, multiplicity = 1:

       Center              X                  Y                   Z               Mass       
    ------------   -----------------  -----------------  -----------------  -----------------
         C            0.000000000000     0.000000000000    -1.120847822711    12.000000000000
         S            0.000000000000     0.000000000000     0.420685097289    31.972071174400

  Running in c2v symmetry.

  Rotational constants: A = ************  B =      0.81305  C =      0.81305 [cm^-1]
  Rotational constants: A = ************  B =  24374.54386  C =  24374.54386 [MHz]
  Nuclear repulsion =   32.954866915407813

  Charge       = 0
  Multiplicity = 1
  Electrons    = 22
  Nalpha       = 11
  Nbeta        = 11

  ==> Algorithm <==

  SCF Algorithm Type is DF.
  DIIS enabled.
  MOM disabled.
  Fractional occupation disabled.
  Guess Type is SAD.
  Energy threshold   = 1.00e-08
  Density threshold  = 1.00e-08
  Integral threshold = 0.00e+00

  ==> Primary Basis <==

  Basis Set: CC-PV(Q+D)Z
    Blend: CC-PV(Q+D)Z
    Number of shells: 33
    Number of basis function: 119
    Number of Cartesian functions: 150
    Spherical Harmonics?: true
    Max angular momentum: 4

  ==> DFT Potential <==

   => Composite Functional: WB97M-V <= 

    wB97M-V Hyb-GGA Exchange-Correlation Functional

    N. Mardirossian and M. Head-Gordon, J. Chem. Phys. 144, 214110 (2016)

    Deriv               =              1
    GGA                 =           TRUE
    Meta                =           TRUE

    Exchange Hybrid     =           TRUE
    MP2 Hybrid          =          FALSE

   => Exchange-Correlation Functionals <=

    1.0000   wB97M-V exchange-correlation functional

   => Exact (HF) Exchange <=

    0.8500            HF,LR [omega = 0.3000]
    0.1500               HF 

   => VV10 Non-Local Parameters <=

    VV10 B              =     6.0000E+00
    VV10 C              =     1.0000E-02

   => Molecular Quadrature <=

    Radial Scheme          =       TREUTLER
    Pruning Scheme         =           FLAT
    Nuclear Scheme         =       TREUTLER

    BS radius alpha        =              1
    Pruning alpha          =              1
    Radial Points          =             75
    Spherical Points       =            302
    Total Points           =          43438
    Total Blocks           =            402
    Max Points             =            256
    Max Functions          =            119

   => Loading Basis Set <=

    Name: (CC-PV(Q+D)Z AUX)
    Role: JKFIT
    Keyword: DF_BASIS_SCF
    atoms 1 entry C          line   137 file /work/zw18965/.conda/envs/p4env/share/psi4/basis/cc-pvqz-jkfit.gbs 
    atoms 2 entry S          line   673 file /work/zw18965/.conda/envs/p4env/share/psi4/basis/cc-pvqz-jkfit.gbs 

  ==> Pre-Iterations <==

   -------------------------------------------------------
    Irrep   Nso     Nmo     Nalpha   Nbeta   Ndocc  Nsocc
   -------------------------------------------------------
     A1        48      48       0       0       0       0
     A2        15      15       0       0       0       0
     B1        28      28       0       0       0       0
     B2        28      28       0       0       0       0
   -------------------------------------------------------
    Total     119     119      11      11      11       0
   -------------------------------------------------------

  ==> Integral Setup <==

  ==> DiskDFJK: Density-Fitted J/K Matrices <==

    J tasked:                  Yes
    K tasked:                  Yes
    wK tasked:                 Yes
    Omega:               3.000E-01
    OpenMP threads:             24
    Integrals threads:          24
    Memory [MiB]:           102646
    Algorithm:                Core
    Integral Cache:           NONE
    Schwarz Cutoff:          1E-12
    Fitting Condition:       1E-10

   => Auxiliary Basis Set <=

  Basis Set: (CC-PV(Q+D)Z AUX)
    Blend: CC-PVQZ-JKFIT
    Number of shells: 68
    Number of basis function: 254
    Number of Cartesian functions: 333
    Spherical Harmonics?: true
    Max angular momentum: 5

  Cached 100.0% of DFT collocation blocks in 0.342 [GiB].

  Minimum eigenvalue in the overlap matrix is 2.2148323130E-04.
  Using Symmetric Orthogonalization.

  SCF Guess: Superposition of Atomic Densities via on-the-fly atomic UHF.

  ==> Iterations <==

                           Total Energy        Delta E     RMS |[F,P]|

   @DF-RKS iter SAD:  -435.64797265848159   -4.35648e+02   0.00000e+00 
   @DF-RKS iter   1:  -436.17553316752560   -5.27561e-01   4.92668e-03 DIIS
   @DF-RKS iter   2:  -436.16387413660289    1.16590e-02   5.09166e-03 DIIS
   @DF-RKS iter   3:  -436.22043339993223   -5.65593e-02   9.98241e-04 DIIS
   @DF-RKS iter   4:  -436.22218985897922   -1.75646e-03   1.34216e-04 DIIS
   @DF-RKS iter   5:  -436.22224845098066   -5.85920e-05   4.05901e-05 DIIS
   @DF-RKS iter   6:  -436.22225329943649   -4.84846e-06   1.62587e-05 DIIS
   @DF-RKS iter   7:  -436.22225445131960   -1.15188e-06   1.92595e-06 DIIS
   @DF-RKS iter   8:  -436.22225448353049   -3.22109e-08   2.36861e-07 DIIS
   @DF-RKS iter   9:  -436.22225448390623   -3.75735e-10   3.40343e-08 DIIS
   @DF-RKS iter  10:  -436.22225448391362   -7.38964e-12   5.12839e-09 DIIS
  Energy and wave function converged.


  ==> Post-Iterations <==

    Orbital Energies [Eh]
    ---------------------

    Doubly Occupied:                                                      

       1A1   -89.252627     2A1   -10.446380     3A1    -8.170550  
       1B2    -6.077443     1B1    -6.077443     4A1    -6.076290  
       5A1    -0.953796     6A1    -0.630150     2B2    -0.448926  
       2B1    -0.448926     7A1    -0.414519  

    Virtual:                                                              

       3B2    -0.002102     3B1    -0.002102     8A1     0.116027  
       9A1     0.198591     4B2     0.239698     4B1     0.239698  
      10A1     0.278273     1A2     0.305639    11A1     0.305639  
       5B1     0.326339     5B2     0.326339    12A1     0.348863  
       6B2     0.435468     6B1     0.435468    13A1     0.504655  
      14A1     0.624020     2A2     0.624021    15A1     0.735222  
      16A1     0.782601     7B1     0.824951     7B2     0.824951  
       3A2     0.989056    17A1     0.989059     8B2     1.020117  
       8B1     1.020117     9B2     1.081810     9B1     1.081810  
      18A1     1.173211    19A1     1.203087     4A2     1.203087  
      20A1     1.211674    10B2     1.247542    10B1     1.247542  
      11B2     1.340850    11B1     1.340850    12B1     1.593179  
      12B2     1.593179    21A1     1.599503    22A1     1.645406  
      13B1     1.789176    13B2     1.789176    23A1     1.855769  
      24A1     1.901137     5A2     1.901143    25A1     2.047221  
      14B1     2.067068    14B2     2.067068     6A2     2.098840  
      26A1     2.098842    27A1     2.447078    15B1     2.497225  
      15B2     2.497225     7A2     2.676794    28A1     2.676794  
      16B2     2.772386    16B1     2.772386    29A1     2.981066  
       8A2     2.981074    17B1     3.023117    17B2     3.023117  
      30A1     3.059429    31A1     3.104171     9A2     3.163058  
      32A1     3.163082    18B2     3.170325    18B1     3.170325  
      19B2     3.414801    19B1     3.414801    10A2     3.447427  
      33A1     3.447429    34A1     3.721715    20B2     4.040341  
      20B1     4.040341    35A1     4.043433    36A1     4.835255  
      11A2     4.835265    21B1     4.961487    21B2     4.961487  
      22B2     5.123515    22B1     5.123515    12A2     5.432632  
      37A1     5.432644    23B1     5.433341    23B2     5.433341  
      38A1     5.438970    24B1     5.658195    24B2     5.658195  
      39A1     5.749322    25B2     5.938761    25B1     5.938761  
      40A1     6.018512    41A1     6.048858    13A2     6.048887  
      14A2     6.131761    42A1     6.131796    26B2     6.419660  
      26B1     6.419660    43A1     6.994130    27B2     7.166437  
      27B1     7.166437    44A1     8.269502    45A1     8.692299  
      15A2     8.692335    28B2     8.860268    28B1     8.860268  
      46A1     9.419933    47A1    18.708736    48A1    20.836688  

    Final Occupation by Irrep:
             A1    A2    B1    B2 
    DOCC [     7,    0,    2,    2 ]

  @DF-RKS Final Energy:  -436.22225448391362

   => Energetics <=

    Nuclear Repulsion Energy =             32.9548669154078127
    One-Electron Energy =                -665.6072881756550714
    Two-Electron Energy =                 219.8967495965595162
    DFT Exchange-Correlation Energy =     -23.5586304740239214
    Empirical Dispersion Energy =           0.0000000000000000
    VV10 Nonlocal Energy =                  0.0920476537980739
    Total Energy =                       -436.2222544839135594

Computation Completed


Properties will be evaluated at   0.000000,   0.000000,   0.000000 [a0]

Properties computed using the SCF density matrix

  Nuclear Dipole Moment: [e a0]
     X:     0.0000      Y:     0.0000      Z:     0.0111

  Electronic Dipole Moment: [e a0]
     X:     0.0000      Y:     0.0000      Z:     0.7349

  Dipole Moment: [e a0]
     X:     0.0000      Y:     0.0000      Z:     0.7460     Total:     0.7460

  Dipole Moment: [D]
     X:     0.0000      Y:     0.0000      Z:     1.8962     Total:     1.8962


*** tstop() called on bp1-compute00048.data.bp.acrc.priv at Tue Apr 27 17:11:06 2021
Module time:
	user time   =      70.39 seconds =       1.17 minutes
	system time =       4.45 seconds =       0.07 minutes
	total time  =          4 seconds =       0.07 minutes
Total time:
	user time   =      70.39 seconds =       1.17 minutes
	system time =       4.45 seconds =       0.07 minutes
	total time  =          4 seconds =       0.07 minutes

  //>>>>>>>>>>>>>>>>>>>>>>>>>>>>>>>>>>>//
  //    Loading displacement 2 of 3    //
  //<<<<<<<<<<<<<<<<<<<<<<<<<<<<<<<<<<<//

*** tstart() called on bp1-compute00048.data.bp.acrc.priv
*** at Tue Apr 27 17:11:06 2021

   => Loading Basis Set <=

    Name: CC-PV(Q+D)Z
    Role: ORBITAL
    Keyword: BASIS
    atoms 1 entry C          line   249 file /work/zw18965/.conda/envs/p4env/share/psi4/basis/cc-pv_qpd_z.gbs 
    atoms 2 entry S          line   978 file /work/zw18965/.conda/envs/p4env/share/psi4/basis/cc-pv_qpd_z.gbs 


         ---------------------------------------------------------
                                   SCF
               by Justin Turney, Rob Parrish, Andy Simmonett
                          and Daniel G. A. Smith
                              RKS Reference
                       24 Threads, 137329 MiB Core
         ---------------------------------------------------------

  ==> Geometry <==

    Molecular point group: c2v
    Full point group: C_inf_v

    Geometry (in Angstrom), charge = 0, multiplicity = 1:

       Center              X                  Y                   Z               Mass       
    ------------   -----------------  -----------------  -----------------  -----------------
         C            0.000000000000     0.000000000000    -1.121499117253    12.000000000000
         S            0.000000000000     0.000000000000     0.420929546091    31.972071174400

  Running in c2v symmetry.

  Rotational constants: A = ************  B =      0.81210  C =      0.81210 [cm^-1]
  Rotational constants: A = ************  B =  24346.24174  C =  24346.24174 [MHz]
  Nuclear repulsion =   32.935728848677002

  Charge       = 0
  Multiplicity = 1
  Electrons    = 22
  Nalpha       = 11
  Nbeta        = 11

  ==> Algorithm <==

  SCF Algorithm Type is DF.
  DIIS enabled.
  MOM disabled.
  Fractional occupation disabled.
  Guess Type is SAD.
  Energy threshold   = 1.00e-08
  Density threshold  = 1.00e-08
  Integral threshold = 0.00e+00

  ==> Primary Basis <==

  Basis Set: CC-PV(Q+D)Z
    Blend: CC-PV(Q+D)Z
    Number of shells: 33
    Number of basis function: 119
    Number of Cartesian functions: 150
    Spherical Harmonics?: true
    Max angular momentum: 4

  ==> DFT Potential <==

   => Composite Functional: WB97M-V <= 

    wB97M-V Hyb-GGA Exchange-Correlation Functional

    N. Mardirossian and M. Head-Gordon, J. Chem. Phys. 144, 214110 (2016)

    Deriv               =              1
    GGA                 =           TRUE
    Meta                =           TRUE

    Exchange Hybrid     =           TRUE
    MP2 Hybrid          =          FALSE

   => Exchange-Correlation Functionals <=

    1.0000   wB97M-V exchange-correlation functional

   => Exact (HF) Exchange <=

    0.8500            HF,LR [omega = 0.3000]
    0.1500               HF 

   => VV10 Non-Local Parameters <=

    VV10 B              =     6.0000E+00
    VV10 C              =     1.0000E-02

   => Molecular Quadrature <=

    Radial Scheme          =       TREUTLER
    Pruning Scheme         =           FLAT
    Nuclear Scheme         =       TREUTLER

    BS radius alpha        =              1
    Pruning alpha          =              1
    Radial Points          =             75
    Spherical Points       =            302
    Total Points           =          43438
    Total Blocks           =            402
    Max Points             =            256
    Max Functions          =            119

   => Loading Basis Set <=

    Name: (CC-PV(Q+D)Z AUX)
    Role: JKFIT
    Keyword: DF_BASIS_SCF
    atoms 1 entry C          line   137 file /work/zw18965/.conda/envs/p4env/share/psi4/basis/cc-pvqz-jkfit.gbs 
    atoms 2 entry S          line   673 file /work/zw18965/.conda/envs/p4env/share/psi4/basis/cc-pvqz-jkfit.gbs 

  ==> Pre-Iterations <==

   -------------------------------------------------------
    Irrep   Nso     Nmo     Nalpha   Nbeta   Ndocc  Nsocc
   -------------------------------------------------------
     A1        48      48       0       0       0       0
     A2        15      15       0       0       0       0
     B1        28      28       0       0       0       0
     B2        28      28       0       0       0       0
   -------------------------------------------------------
    Total     119     119      11      11      11       0
   -------------------------------------------------------

  ==> Integral Setup <==

  ==> DiskDFJK: Density-Fitted J/K Matrices <==

    J tasked:                  Yes
    K tasked:                  Yes
    wK tasked:                 Yes
    Omega:               3.000E-01
    OpenMP threads:             24
    Integrals threads:          24
    Memory [MiB]:           102647
    Algorithm:                Core
    Integral Cache:           NONE
    Schwarz Cutoff:          1E-12
    Fitting Condition:       1E-10

   => Auxiliary Basis Set <=

  Basis Set: (CC-PV(Q+D)Z AUX)
    Blend: CC-PVQZ-JKFIT
    Number of shells: 68
    Number of basis function: 254
    Number of Cartesian functions: 333
    Spherical Harmonics?: true
    Max angular momentum: 5

  Cached 100.0% of DFT collocation blocks in 0.342 [GiB].

  Minimum eigenvalue in the overlap matrix is 2.2214442097E-04.
  Using Symmetric Orthogonalization.

  SCF Guess: Superposition of Atomic Densities via on-the-fly atomic UHF.

  ==> Iterations <==

                           Total Energy        Delta E     RMS |[F,P]|

   @DF-RKS iter SAD:  -435.64667149017379   -4.35647e+02   0.00000e+00 
   @DF-RKS iter   1:  -436.17573707396656   -5.29066e-01   4.91446e-03 DIIS
   @DF-RKS iter   2:  -436.16414972778983    1.15873e-02   5.07721e-03 DIIS
   @DF-RKS iter   3:  -436.22039026056359   -5.62405e-02   9.99730e-04 DIIS
   @DF-RKS iter   4:  -436.22215397763455   -1.76372e-03   1.34228e-04 DIIS
   @DF-RKS iter   5:  -436.22221265387236   -5.86762e-05   4.06116e-05 DIIS
   @DF-RKS iter   6:  -436.22221751498898   -4.86112e-06   1.62687e-05 DIIS
   @DF-RKS iter   7:  -436.22221866997285   -1.15498e-06   1.92928e-06 DIIS
   @DF-RKS iter   8:  -436.22221870230203   -3.23292e-08   2.37132e-07 DIIS
   @DF-RKS iter   9:  -436.22221870267867   -3.76644e-10   3.40461e-08 DIIS
   @DF-RKS iter  10:  -436.22221870268623   -7.56017e-12   5.12880e-09 DIIS
  Energy and wave function converged.


  ==> Post-Iterations <==

    Orbital Energies [Eh]
    ---------------------

    Doubly Occupied:                                                      

       1A1   -89.252689     2A1   -10.446645     3A1    -8.170563  
       1B1    -6.077459     1B2    -6.077459     4A1    -6.076309  
       5A1    -0.953544     6A1    -0.630200     2B1    -0.448778  
       2B2    -0.448778     7A1    -0.414598  

    Virtual:                                                              

       3B1    -0.002235     3B2    -0.002235     8A1     0.115998  
       9A1     0.198617     4B1     0.239739     4B2     0.239739  
      10A1     0.278241     1A2     0.305680    11A1     0.305680  
       5B2     0.326332     5B1     0.326332    12A1     0.348621  
       6B1     0.435281     6B2     0.435281    13A1     0.504554  
      14A1     0.623900     2A2     0.623900    15A1     0.734949  
      16A1     0.782675     7B2     0.824891     7B1     0.824891  
       3A2     0.989117    17A1     0.989120     8B1     1.020060  
       8B2     1.020061     9B1     1.081863     9B2     1.081863  
      18A1     1.173203    19A1     1.202947     4A2     1.202948  
      20A1     1.210990    10B1     1.247629    10B2     1.247629  
      11B1     1.340620    11B2     1.340620    12B2     1.593026  
      12B1     1.593026    21A1     1.599678    22A1     1.645681  
      13B2     1.789024    13B1     1.789024    23A1     1.855098  
      24A1     1.900964     5A2     1.900971    25A1     2.046924  
      14B2     2.066780    14B1     2.066780     6A2     2.098424  
      26A1     2.098426    27A1     2.446817    15B2     2.496512  
      15B1     2.496512     7A2     2.676799    28A1     2.676800  
      16B1     2.772440    16B2     2.772440    29A1     2.981122  
       8A2     2.981130    17B2     3.022968    17B1     3.022968  
      30A1     3.058102    31A1     3.103708     9A2     3.162840  
      32A1     3.162864    18B1     3.170353    18B2     3.170353  
      19B1     3.414364    19B2     3.414364    10A2     3.446791  
      33A1     3.446793    34A1     3.721929    20B1     4.039512  
      20B2     4.039512    35A1     4.042553    36A1     4.835139  
      11A2     4.835150    21B2     4.960861    21B1     4.960861  
      22B1     5.123150    22B2     5.123150    12A2     5.431311  
      37A1     5.431323    23B2     5.433226    23B1     5.433226  
      38A1     5.440092    24B2     5.657698    24B1     5.657698  
      39A1     5.746928    25B1     5.938566    25B2     5.938566  
      40A1     6.017684    41A1     6.048320    13A2     6.048349  
      14A2     6.131339    42A1     6.131374    26B1     6.418747  
      26B2     6.418747    43A1     6.991755    27B1     7.164023  
      27B2     7.164023    44A1     8.268435    45A1     8.692301  
      15A2     8.692336    28B1     8.859780    28B2     8.859780  
      46A1     9.418269    47A1    18.703325    48A1    20.834762  

    Final Occupation by Irrep:
             A1    A2    B1    B2 
    DOCC [     7,    0,    2,    2 ]

  @DF-RKS Final Energy:  -436.22221870268623

   => Energetics <=

    Nuclear Repulsion Energy =             32.9357288486770017
    One-Electron Energy =                -665.5692664181854070
    Two-Electron Energy =                 219.8774294684630206
    DFT Exchange-Correlation Energy =     -23.5581585647329561
    Empirical Dispersion Energy =           0.0000000000000000
    VV10 Nonlocal Energy =                  0.0920479630921932
    Total Energy =                       -436.2222187026862343

Computation Completed


Properties will be evaluated at   0.000000,   0.000000,   0.000000 [a0]

Properties computed using the SCF density matrix

  Nuclear Dipole Moment: [e a0]
     X:     0.0000      Y:     0.0000      Z:     0.0111

  Electronic Dipole Moment: [e a0]
     X:     0.0000      Y:     0.0000      Z:     0.7333

  Dipole Moment: [e a0]
     X:     0.0000      Y:     0.0000      Z:     0.7444     Total:     0.7444

  Dipole Moment: [D]
     X:     0.0000      Y:     0.0000      Z:     1.8921     Total:     1.8921


*** tstop() called on bp1-compute00048.data.bp.acrc.priv at Tue Apr 27 17:11:09 2021
Module time:
	user time   =      75.47 seconds =       1.26 minutes
	system time =       3.74 seconds =       0.06 minutes
	total time  =          3 seconds =       0.05 minutes
Total time:
	user time   =     146.05 seconds =       2.43 minutes
	system time =       8.20 seconds =       0.14 minutes
	total time  =          7 seconds =       0.12 minutes

  //>>>>>>>>>>>>>>>>>>>>>>>>>>>>>>>>>>>//
  //    Loading displacement 3 of 3    //
  //<<<<<<<<<<<<<<<<<<<<<<<<<<<<<<<<<<<//

*** tstart() called on bp1-compute00048.data.bp.acrc.priv
*** at Tue Apr 27 17:11:09 2021

   => Loading Basis Set <=

    Name: CC-PV(Q+D)Z
    Role: ORBITAL
    Keyword: BASIS
    atoms 1 entry C          line   249 file /work/zw18965/.conda/envs/p4env/share/psi4/basis/cc-pv_qpd_z.gbs 
    atoms 2 entry S          line   978 file /work/zw18965/.conda/envs/p4env/share/psi4/basis/cc-pv_qpd_z.gbs 


         ---------------------------------------------------------
                                   SCF
               by Justin Turney, Rob Parrish, Andy Simmonett
                          and Daniel G. A. Smith
                              RKS Reference
                       24 Threads, 137329 MiB Core
         ---------------------------------------------------------

  ==> Geometry <==

    Molecular point group: c2v
    Full point group: C_inf_v

    Geometry (in Angstrom), charge = 0, multiplicity = 1:

       Center              X                  Y                   Z               Mass       
    ------------   -----------------  -----------------  -----------------  -----------------
         C            0.000000000000     0.000000000000    -1.120196528169    12.000000000000
         S            0.000000000000     0.000000000000     0.420440648487    31.972071174400

  Running in c2v symmetry.

  Rotational constants: A = ************  B =      0.81399  C =      0.81399 [cm^-1]
  Rotational constants: A = ************  B =  24402.89535  C =  24402.89535 [MHz]
  Nuclear repulsion =   32.974027236302241

  Charge       = 0
  Multiplicity = 1
  Electrons    = 22
  Nalpha       = 11
  Nbeta        = 11

  ==> Algorithm <==

  SCF Algorithm Type is DF.
  DIIS enabled.
  MOM disabled.
  Fractional occupation disabled.
  Guess Type is SAD.
  Energy threshold   = 1.00e-08
  Density threshold  = 1.00e-08
  Integral threshold = 0.00e+00

  ==> Primary Basis <==

  Basis Set: CC-PV(Q+D)Z
    Blend: CC-PV(Q+D)Z
    Number of shells: 33
    Number of basis function: 119
    Number of Cartesian functions: 150
    Spherical Harmonics?: true
    Max angular momentum: 4

  ==> DFT Potential <==

   => Composite Functional: WB97M-V <= 

    wB97M-V Hyb-GGA Exchange-Correlation Functional

    N. Mardirossian and M. Head-Gordon, J. Chem. Phys. 144, 214110 (2016)

    Deriv               =              1
    GGA                 =           TRUE
    Meta                =           TRUE

    Exchange Hybrid     =           TRUE
    MP2 Hybrid          =          FALSE

   => Exchange-Correlation Functionals <=

    1.0000   wB97M-V exchange-correlation functional

   => Exact (HF) Exchange <=

    0.8500            HF,LR [omega = 0.3000]
    0.1500               HF 

   => VV10 Non-Local Parameters <=

    VV10 B              =     6.0000E+00
    VV10 C              =     1.0000E-02

   => Molecular Quadrature <=

    Radial Scheme          =       TREUTLER
    Pruning Scheme         =           FLAT
    Nuclear Scheme         =       TREUTLER

    BS radius alpha        =              1
    Pruning alpha          =              1
    Radial Points          =             75
    Spherical Points       =            302
    Total Points           =          43438
    Total Blocks           =            402
    Max Points             =            256
    Max Functions          =            119

   => Loading Basis Set <=

    Name: (CC-PV(Q+D)Z AUX)
    Role: JKFIT
    Keyword: DF_BASIS_SCF
    atoms 1 entry C          line   137 file /work/zw18965/.conda/envs/p4env/share/psi4/basis/cc-pvqz-jkfit.gbs 
    atoms 2 entry S          line   673 file /work/zw18965/.conda/envs/p4env/share/psi4/basis/cc-pvqz-jkfit.gbs 

  ==> Pre-Iterations <==

   -------------------------------------------------------
    Irrep   Nso     Nmo     Nalpha   Nbeta   Ndocc  Nsocc
   -------------------------------------------------------
     A1        48      48       0       0       0       0
     A2        15      15       0       0       0       0
     B1        28      28       0       0       0       0
     B2        28      28       0       0       0       0
   -------------------------------------------------------
    Total     119     119      11      11      11       0
   -------------------------------------------------------

  ==> Integral Setup <==

  ==> DiskDFJK: Density-Fitted J/K Matrices <==

    J tasked:                  Yes
    K tasked:                  Yes
    wK tasked:                 Yes
    Omega:               3.000E-01
    OpenMP threads:             24
    Integrals threads:          24
    Memory [MiB]:           102646
    Algorithm:                Core
    Integral Cache:           NONE
    Schwarz Cutoff:          1E-12
    Fitting Condition:       1E-10

   => Auxiliary Basis Set <=

  Basis Set: (CC-PV(Q+D)Z AUX)
    Blend: CC-PVQZ-JKFIT
    Number of shells: 68
    Number of basis function: 254
    Number of Cartesian functions: 333
    Spherical Harmonics?: true
    Max angular momentum: 5

  Cached 100.0% of DFT collocation blocks in 0.342 [GiB].

  Minimum eigenvalue in the overlap matrix is 2.2082430950E-04.
  Using Symmetric Orthogonalization.

  SCF Guess: Superposition of Atomic Densities via on-the-fly atomic UHF.

  ==> Iterations <==

                           Total Energy        Delta E     RMS |[F,P]|

   @DF-RKS iter SAD:  -435.64923233426731   -4.35649e+02   0.00000e+00 
   @DF-RKS iter   1:  -436.17531846871566   -5.26086e-01   4.93912e-03 DIIS
   @DF-RKS iter   2:  -436.16357985492016    1.17386e-02   5.10679e-03 DIIS
   @DF-RKS iter   3:  -436.22047568423289   -5.68958e-02   9.96567e-04 DIIS
   @DF-RKS iter   4:  -436.22222413851540   -1.74845e-03   1.34225e-04 DIIS
   @DF-RKS iter   5:  -436.22228267462214   -5.85361e-05   4.05768e-05 DIIS
   @DF-RKS iter   6:  -436.22228751263037   -4.83801e-06   1.62536e-05 DIIS
   @DF-RKS iter   7:  -436.22228866208781   -1.14946e-06   1.92244e-06 DIIS
   @DF-RKS iter   8:  -436.22228869417938   -3.20916e-08   2.36652e-07 DIIS
   @DF-RKS iter   9:  -436.22228869455421   -3.74826e-10   3.40197e-08 DIIS
   @DF-RKS iter  10:  -436.22228869456114   -6.93490e-12   5.13132e-09 DIIS
  Energy and wave function converged.


  ==> Post-Iterations <==

    Orbital Energies [Eh]
    ---------------------

    Doubly Occupied:                                                      

       1A1   -89.252565     2A1   -10.446114     3A1    -8.170536  
       1B2    -6.077427     1B1    -6.077427     4A1    -6.076271  
       5A1    -0.954049     6A1    -0.630099     2B2    -0.449074  
       2B1    -0.449074     7A1    -0.414440  

    Virtual:                                                              

       3B2    -0.001969     3B1    -0.001969     8A1     0.116056  
       9A1     0.198566     4B2     0.239656     4B1     0.239656  
      10A1     0.278305     1A2     0.305598    11A1     0.305598  
       5B1     0.326346     5B2     0.326346    12A1     0.349105  
       6B2     0.435655     6B1     0.435655    13A1     0.504756  
      14A1     0.624140     2A2     0.624141    15A1     0.735495  
      16A1     0.782528     7B1     0.825012     7B2     0.825012  
       3A2     0.988995    17A1     0.988998     8B2     1.020175  
       8B1     1.020175     9B2     1.081757     9B1     1.081757  
      18A1     1.173219    19A1     1.203226     4A2     1.203227  
      20A1     1.212360    10B2     1.247456    10B1     1.247456  
      11B2     1.341081    11B1     1.341081    12B1     1.593332  
      12B2     1.593332    21A1     1.599327    22A1     1.645131  
      13B2     1.789328    13B1     1.789328    23A1     1.856440  
      24A1     1.901309     5A2     1.901316    25A1     2.047518  
      14B1     2.067357    14B2     2.067357     6A2     2.099257  
      26A1     2.099258    27A1     2.447340    15B1     2.497940  
      15B2     2.497940    28A1     2.676788     7A2     2.676788  
      16B2     2.772332    16B1     2.772332    29A1     2.981010  
       8A2     2.981017    17B1     3.023268    17B2     3.023268  
      30A1     3.060753    31A1     3.104636     9A2     3.163275  
      32A1     3.163299    18B2     3.170297    18B1     3.170297  
      19B2     3.415238    19B1     3.415238    10A2     3.448064  
      33A1     3.448066    34A1     3.721491    20B2     4.041168  
      20B1     4.041168    35A1     4.044328    36A1     4.835370  
      11A2     4.835380    21B1     4.962114    21B2     4.962114  
      22B2     5.123884    22B1     5.123884    23B1     5.433456  
      23B2     5.433456    12A2     5.433954    37A1     5.433966  
      38A1     5.437835    24B1     5.658691    24B2     5.658691  
      39A1     5.751721    25B2     5.938955    25B1     5.938955  
      40A1     6.019348    41A1     6.049397    13A2     6.049426  
      14A2     6.132184    42A1     6.132219    26B2     6.420575  
      26B1     6.420575    43A1     6.996513    27B2     7.168850  
      27B1     7.168850    44A1     8.270560    45A1     8.692298  
      15A2     8.692334    28B2     8.860762    28B1     8.860762  
      46A1     9.421596    47A1    18.714158    48A1    20.838628  

    Final Occupation by Irrep:
             A1    A2    B1    B2 
    DOCC [     7,    0,    2,    2 ]

  @DF-RKS Final Energy:  -436.22228869456114

   => Energetics <=

    Nuclear Repulsion Energy =             32.9740272363022413
    One-Electron Energy =                -665.6453520880168071
    Two-Electron Energy =                 219.9160920249989033
    DFT Exchange-Correlation Energy =     -23.5591032129484503
    Empirical Dispersion Energy =           0.0000000000000000
    VV10 Nonlocal Energy =                  0.0920473451029838
    Total Energy =                       -436.2222886945611435

Computation Completed


Properties will be evaluated at   0.000000,   0.000000,   0.000000 [a0]

Properties computed using the SCF density matrix

  Nuclear Dipole Moment: [e a0]
     X:     0.0000      Y:     0.0000      Z:     0.0111

  Electronic Dipole Moment: [e a0]
     X:     0.0000      Y:     0.0000      Z:     0.7365

  Dipole Moment: [e a0]
     X:     0.0000      Y:     0.0000      Z:     0.7476     Total:     0.7476

  Dipole Moment: [D]
     X:     0.0000      Y:     0.0000      Z:     1.9002     Total:     1.9002


*** tstop() called on bp1-compute00048.data.bp.acrc.priv at Tue Apr 27 17:11:12 2021
Module time:
	user time   =      69.03 seconds =       1.15 minutes
	system time =       2.27 seconds =       0.04 minutes
	total time  =          3 seconds =       0.05 minutes
Total time:
	user time   =     215.25 seconds =       3.59 minutes
	system time =      10.48 seconds =       0.17 minutes
	total time  =         10 seconds =       0.17 minutes

         ----------------------------------------------------------
                                   FINDIF
                     R. A. King and Jonathon Misiewicz
         ---------------------------------------------------------

  Computing gradient from energies.
    Using 3-point formula.
    Energy without displacement: -436.2222544839
    Check energies below for precision!
    Forces are for mass-weighted, symmetry-adapted cartesians (in au).

     Coord      Energy(-1)        Energy(+1)            Force
        0   -436.2222187027   -436.2222886946     -0.0069991875


-------------------------------------------------------------
  ## New Matrix (Symmetry 0) ##
  Irrep: 1 Size: 2 x 3

                 1                   2                   3

    1     0.00000000000000     0.00000000000000    -0.02067450759680
    2     0.00000000000000     0.00000000000000     0.02067450759680




			-----------------------------------------
			 OPTKING 2.0: for geometry optimizations 
			  - R.A. King,  Bethel University        
			-----------------------------------------
	At level 1: Red. Int., RFO, no backsteps, dynamic trust

	Internal coordinates to be generated automatically.
	Detected frag 1 with atoms:  1 2
	---Fragment 1 Bond Connectivity---
	 1 : 2
	 2 : 1

	---Fragment 1 Geometry and Gradient---
	 C           0.0000000000        0.0000000000       -2.1180954132
	 S           0.0000000000        0.0000000000        0.7949796189
	             0.0000000000        0.0000000000       -0.0206745076
	             0.0000000000        0.0000000000        0.0206745076

	Previous optimization step data not found.  Starting new optimization.

	---Fragment 1 Intrafragment Coordinates---
	 - Coordinate -           - BOHR/RAD -       - ANG/DEG -
	 R(1,2)           =         2.913075	       1.541533

	Current energy   :      -436.2222544839

	Generating empirical Hessian (Schlegel '84) for each fragment.
	Taking RFO optimization step.
	Going to follow RFO solution 1.
	Using RFO vector 1.
	Norm of target step-size    0.03206
	Projected energy change by RFO approximation:        -0.0001487269

	Back-transformation to cartesian coordinates...
	Successfully converged to displaced geometry.

	--- Internal Coordinate Step in ANG or DEG, aJ/ANG or AJ/DEG ---
	 ---------------------------------------------------------------------------
	   Coordinate                Previous        Force       Change         New 
	   ----------                --------       ------       ------       ------
	    1 R(1,2)          =      1.541533    -0.170332    -0.016966     1.524566
	 ---------------------------------------------------------------------------
	Successfully symmetrized geometry.

  ==> Convergence Check <==

  Measures of convergence in internal coordinates in au.
  Criteria marked as inactive (o), active & met (*), and active & unmet ( ).
  --------------------------------------------------------------------------------------------- ~
   Step     Total Energy     Delta E     MAX Force     RMS Force      MAX Disp      RMS Disp    ~
  --------------------------------------------------------------------------------------------- ~
    Convergence Criteria    1.00e-06 *    3.00e-04 *             o    1.20e-03 *             o  ~
  --------------------------------------------------------------------------------------------- ~
      1    -436.22225448   -4.36e+02      2.07e-02      2.07e-02 o    3.21e-02      3.21e-02 o  ~
  ---------------------------------------------------------------------------------------------

	Writing optimization data to binary file.
	Structure for next step:
	Cartesian Geometry (in Angstrom)
	    C     0.0000000000   0.0000000000  -1.1123645694
	    S     0.0000000000   0.0000000000   0.4122018467
			--------------------------
			 OPTKING Finished Execution 
			--------------------------

    Structure for next step:
    Molecular point group: c2v
    Full point group: C_inf_v

    Geometry (in Angstrom), charge = 0, multiplicity = 1:

    C            0.000000000000     0.000000000000    -1.108511490468
    S            0.000000000000     0.000000000000     0.416054931601

gradient() will perform gradient computation by finite difference of analytic energies.

         ----------------------------------------------------------
                                   FINDIF
                     R. A. King and Jonathon Misiewicz
         ---------------------------------------------------------

  Using finite-differences of energies to determine gradients.
    Generating geometries for use with 3-point formula.
    Displacement size will be 5.00e-03.
    Number of atoms is 2.
    Number of symmetric SALCs is 1.
    Translations projected? 1. Rotations projected? 1.
    Number of geometries (including reference) is 3.

  //>>>>>>>>>>>>>>>>>>>>>>>>>>>>>>>>>>>//
  //    Loading displacement 1 of 3    //
  //<<<<<<<<<<<<<<<<<<<<<<<<<<<<<<<<<<<//

*** tstart() called on bp1-compute00048.data.bp.acrc.priv
*** at Tue Apr 27 17:11:12 2021

   => Loading Basis Set <=

    Name: CC-PV(Q+D)Z
    Role: ORBITAL
    Keyword: BASIS
    atoms 1 entry C          line   249 file /work/zw18965/.conda/envs/p4env/share/psi4/basis/cc-pv_qpd_z.gbs 
    atoms 2 entry S          line   978 file /work/zw18965/.conda/envs/p4env/share/psi4/basis/cc-pv_qpd_z.gbs 


         ---------------------------------------------------------
                                   SCF
               by Justin Turney, Rob Parrish, Andy Simmonett
                          and Daniel G. A. Smith
                              RKS Reference
                       24 Threads, 137329 MiB Core
         ---------------------------------------------------------

  ==> Geometry <==

    Molecular point group: c2v
    Full point group: C_inf_v

    Geometry (in Angstrom), charge = 0, multiplicity = 1:

       Center              X                  Y                   Z               Mass       
    ------------   -----------------  -----------------  -----------------  -----------------
         C            0.000000000000     0.000000000000    -1.108511490468    12.000000000000
         S            0.000000000000     0.000000000000     0.416054931601    31.972071174400

  Running in c2v symmetry.

  Rotational constants: A = ************  B =      0.83124  C =      0.83124 [cm^-1]
  Rotational constants: A = ************  B =  24920.07836  C =  24920.07836 [MHz]
  Nuclear repulsion =   33.321612944473038

  Charge       = 0
  Multiplicity = 1
  Electrons    = 22
  Nalpha       = 11
  Nbeta        = 11

  ==> Algorithm <==

  SCF Algorithm Type is DF.
  DIIS enabled.
  MOM disabled.
  Fractional occupation disabled.
  Guess Type is READ.
  Energy threshold   = 1.00e-08
  Density threshold  = 1.00e-08
  Integral threshold = 0.00e+00

  ==> Primary Basis <==

  Basis Set: CC-PV(Q+D)Z
    Blend: CC-PV(Q+D)Z
    Number of shells: 33
    Number of basis function: 119
    Number of Cartesian functions: 150
    Spherical Harmonics?: true
    Max angular momentum: 4

  ==> DFT Potential <==

   => Composite Functional: WB97M-V <= 

    wB97M-V Hyb-GGA Exchange-Correlation Functional

    N. Mardirossian and M. Head-Gordon, J. Chem. Phys. 144, 214110 (2016)

    Deriv               =              1
    GGA                 =           TRUE
    Meta                =           TRUE

    Exchange Hybrid     =           TRUE
    MP2 Hybrid          =          FALSE

   => Exchange-Correlation Functionals <=

    1.0000   wB97M-V exchange-correlation functional

   => Exact (HF) Exchange <=

    0.8500            HF,LR [omega = 0.3000]
    0.1500               HF 

   => VV10 Non-Local Parameters <=

    VV10 B              =     6.0000E+00
    VV10 C              =     1.0000E-02

   => Molecular Quadrature <=

    Radial Scheme          =       TREUTLER
    Pruning Scheme         =           FLAT
    Nuclear Scheme         =       TREUTLER

    BS radius alpha        =              1
    Pruning alpha          =              1
    Radial Points          =             75
    Spherical Points       =            302
    Total Points           =          43438
    Total Blocks           =            401
    Max Points             =            256
    Max Functions          =            119

   => Loading Basis Set <=

    Name: (CC-PV(Q+D)Z AUX)
    Role: JKFIT
    Keyword: DF_BASIS_SCF
    atoms 1 entry C          line   137 file /work/zw18965/.conda/envs/p4env/share/psi4/basis/cc-pvqz-jkfit.gbs 
    atoms 2 entry S          line   673 file /work/zw18965/.conda/envs/p4env/share/psi4/basis/cc-pvqz-jkfit.gbs 

   => Loading Basis Set <=

    Name: CC-PV(Q+D)Z
    Role: ORBITAL
    Keyword: BASIS
    atoms 1 entry C          line   249 file /work/zw18965/.conda/envs/p4env/share/psi4/basis/cc-pv_qpd_z.gbs 
    atoms 2 entry S          line   978 file /work/zw18965/.conda/envs/p4env/share/psi4/basis/cc-pv_qpd_z.gbs 

  Reading orbitals from file 180, no projection.

  ==> Pre-Iterations <==

   -------------------------------------------------------
    Irrep   Nso     Nmo     Nalpha   Nbeta   Ndocc  Nsocc
   -------------------------------------------------------
     A1        48      48       0       0       0       0
     A2        15      15       0       0       0       0
     B1        28      28       0       0       0       0
     B2        28      28       0       0       0       0
   -------------------------------------------------------
    Total     119     119      11      11      11       0
   -------------------------------------------------------

  ==> Integral Setup <==

  ==> DiskDFJK: Density-Fitted J/K Matrices <==

    J tasked:                  Yes
    K tasked:                  Yes
    wK tasked:                 Yes
    Omega:               3.000E-01
    OpenMP threads:             24
    Integrals threads:          24
    Memory [MiB]:           102646
    Algorithm:                Core
    Integral Cache:           NONE
    Schwarz Cutoff:          1E-12
    Fitting Condition:       1E-10

   => Auxiliary Basis Set <=

  Basis Set: (CC-PV(Q+D)Z AUX)
    Blend: CC-PVQZ-JKFIT
    Number of shells: 68
    Number of basis function: 254
    Number of Cartesian functions: 333
    Spherical Harmonics?: true
    Max angular momentum: 5

  Cached 100.0% of DFT collocation blocks in 0.342 [GiB].

  Minimum eigenvalue in the overlap matrix is 2.0937978203E-04.
  Using Symmetric Orthogonalization.

  SCF Guess: Orbitals guess was supplied from a previous computation.

  ==> Iterations <==

                           Total Energy        Delta E     RMS |[F,P]|

   @DF-RKS iter   0:  -436.23975815111328   -4.36240e+02   8.37160e-04 
   @DF-RKS iter   1:  -436.22258085978456    1.71773e-02   1.33306e-04 DIIS
   @DF-RKS iter   2:  -436.22259250038121   -1.16406e-05   1.30862e-04 DIIS
   @DF-RKS iter   3:  -436.22262514026386   -3.26399e-05   3.14447e-05 DIIS
   @DF-RKS iter   4:  -436.22262695825503   -1.81799e-06   4.64953e-06 DIIS
   @DF-RKS iter   5:  -436.22262702644343   -6.81884e-08   1.18894e-06 DIIS
   @DF-RKS iter   6:  -436.22262703259543   -6.15199e-09   1.32801e-07 DIIS
   @DF-RKS iter   7:  -436.22262703272668   -1.31251e-10   1.97121e-08 DIIS
   @DF-RKS iter   8:  -436.22262703272941   -2.72848e-12   5.93477e-09 DIIS
  Energy and wave function converged.


  ==> Post-Iterations <==

    Orbital Energies [Eh]
    ---------------------

    Doubly Occupied:                                                      

       1A1   -89.251416     2A1   -10.441310     3A1    -8.170272  
       1B2    -6.077116     1B1    -6.077116     4A1    -6.075922  
       5A1    -0.958594     6A1    -0.629213     2B2    -0.451758  
       2B1    -0.451758     7A1    -0.412968  

    Virtual:                                                              

       3B2     0.000411     3B1     0.000411     8A1     0.116533  
       9A1     0.198110     4B2     0.238917     4B1     0.238917  
      10A1     0.278887     1A2     0.304861    11A1     0.304861  
       5B1     0.326449     5B2     0.326449    12A1     0.353419  
       6B2     0.439066     6B1     0.439066    13A1     0.506557  
      14A1     0.626311     2A2     0.626312    15A1     0.740231  
      16A1     0.781330     7B2     0.826004     7B1     0.826004  
       3A2     0.987896    17A1     0.987899     8B2     1.021263  
       8B1     1.021263     9B2     1.080816     9B1     1.080816  
      18A1     1.173485     4A2     1.205731    19A1     1.205731  
      20A1     1.225066    10B2     1.245892    10B1     1.245892  
      11B2     1.345298    11B1     1.345298    12B2     1.595993  
      12B1     1.595993    21A1     1.596126    22A1     1.640154  
      13B2     1.792105    13B1     1.792105    23A1     1.868604  
      24A1     1.904420     5A2     1.904427    25A1     2.052993  
      14B2     2.072498    14B1     2.072498    26A1     2.106769  
       6A2     2.106769    27A1     2.451985    15B2     2.511010  
      15B1     2.511010    28A1     2.676662     7A2     2.676665  
      16B2     2.771383    16B1     2.771383    29A1     2.979996  
       8A2     2.980005    17B1     3.026079    17B2     3.026079  
      30A1     3.083396    31A1     3.114054     9A2     3.167160  
      32A1     3.167185    18B1     3.169797    18B2     3.169797  
      19B2     3.423058    19B1     3.423058    10A2     3.459713  
      33A1     3.459717    34A1     3.716002    20B2     4.055507  
      20B1     4.055507    35A1     4.062913    36A1     4.837468  
      11A2     4.837472    21B1     4.973616    21B2     4.973616  
      22B2     5.131320    22B1     5.131320    37A1     5.415589  
      23B2     5.435510    23B1     5.435510    12A2     5.457597  
      38A1     5.457606    24B2     5.667375    24B1     5.667375  
      39A1     5.794972    25B2     5.942449    25B1     5.942449  
      40A1     6.035916    41A1     6.059305    13A2     6.059335  
      14A2     6.139985    42A1     6.140020    26B2     6.437191  
      26B1     6.437191    43A1     7.040577    27B2     7.212052  
      27B1     7.212052    44A1     8.287865    45A1     8.692288  
      15A2     8.692327    28B2     8.870562    28B1     8.870562  
      46A1     9.451179    47A1    18.813217    48A1    20.875847  

    Final Occupation by Irrep:
             A1    A2    B1    B2 
    DOCC [     7,    0,    2,    2 ]

  @DF-RKS Final Energy:  -436.22262703272941

   => Energetics <=

    Nuclear Repulsion Energy =             33.3216129444730385
    One-Electron Energy =                -666.3355049799031349
    Two-Electron Energy =                 220.2669509362898452
    DFT Exchange-Correlation Energy =     -23.5677278388046929
    Empirical Dispersion Energy =           0.0000000000000000
    VV10 Nonlocal Energy =                  0.0920419052156198
    Total Energy =                       -436.2226270327292923

Computation Completed


Properties will be evaluated at   0.000000,   0.000000,   0.000000 [a0]

Properties computed using the SCF density matrix

  Nuclear Dipole Moment: [e a0]
     X:     0.0000      Y:     0.0000      Z:     0.0110

  Electronic Dipole Moment: [e a0]
     X:     0.0000      Y:     0.0000      Z:     0.7651

  Dipole Moment: [e a0]
     X:     0.0000      Y:     0.0000      Z:     0.7760     Total:     0.7760

  Dipole Moment: [D]
     X:     0.0000      Y:     0.0000      Z:     1.9725     Total:     1.9725


*** tstop() called on bp1-compute00048.data.bp.acrc.priv at Tue Apr 27 17:11:15 2021
Module time:
	user time   =      53.16 seconds =       0.89 minutes
	system time =       2.20 seconds =       0.04 minutes
	total time  =          3 seconds =       0.05 minutes
Total time:
	user time   =     268.77 seconds =       4.48 minutes
	system time =      12.69 seconds =       0.21 minutes
	total time  =         13 seconds =       0.22 minutes

  //>>>>>>>>>>>>>>>>>>>>>>>>>>>>>>>>>>>//
  //    Loading displacement 2 of 3    //
  //<<<<<<<<<<<<<<<<<<<<<<<<<<<<<<<<<<<//

*** tstart() called on bp1-compute00048.data.bp.acrc.priv
*** at Tue Apr 27 17:11:15 2021

   => Loading Basis Set <=

    Name: CC-PV(Q+D)Z
    Role: ORBITAL
    Keyword: BASIS
    atoms 1 entry C          line   249 file /work/zw18965/.conda/envs/p4env/share/psi4/basis/cc-pv_qpd_z.gbs 
    atoms 2 entry S          line   978 file /work/zw18965/.conda/envs/p4env/share/psi4/basis/cc-pv_qpd_z.gbs 


         ---------------------------------------------------------
                                   SCF
               by Justin Turney, Rob Parrish, Andy Simmonett
                          and Daniel G. A. Smith
                              RKS Reference
                       24 Threads, 137329 MiB Core
         ---------------------------------------------------------

  ==> Geometry <==

    Molecular point group: c2v
    Full point group: C_inf_v

    Geometry (in Angstrom), charge = 0, multiplicity = 1:

       Center              X                  Y                   Z               Mass       
    ------------   -----------------  -----------------  -----------------  -----------------
         C            0.000000000000     0.000000000000    -1.109162785009    12.000000000000
         S            0.000000000000     0.000000000000     0.416299380403    31.972071174400

  Running in c2v symmetry.

  Rotational constants: A = ************  B =      0.83027  C =      0.83027 [cm^-1]
  Rotational constants: A = ************  B =  24890.82108  C =  24890.82108 [MHz]
  Nuclear repulsion =   33.302046668967982

  Charge       = 0
  Multiplicity = 1
  Electrons    = 22
  Nalpha       = 11
  Nbeta        = 11

  ==> Algorithm <==

  SCF Algorithm Type is DF.
  DIIS enabled.
  MOM disabled.
  Fractional occupation disabled.
  Guess Type is READ.
  Energy threshold   = 1.00e-08
  Density threshold  = 1.00e-08
  Integral threshold = 0.00e+00

  ==> Primary Basis <==

  Basis Set: CC-PV(Q+D)Z
    Blend: CC-PV(Q+D)Z
    Number of shells: 33
    Number of basis function: 119
    Number of Cartesian functions: 150
    Spherical Harmonics?: true
    Max angular momentum: 4

  ==> DFT Potential <==

   => Composite Functional: WB97M-V <= 

    wB97M-V Hyb-GGA Exchange-Correlation Functional

    N. Mardirossian and M. Head-Gordon, J. Chem. Phys. 144, 214110 (2016)

    Deriv               =              1
    GGA                 =           TRUE
    Meta                =           TRUE

    Exchange Hybrid     =           TRUE
    MP2 Hybrid          =          FALSE

   => Exchange-Correlation Functionals <=

    1.0000   wB97M-V exchange-correlation functional

   => Exact (HF) Exchange <=

    0.8500            HF,LR [omega = 0.3000]
    0.1500               HF 

   => VV10 Non-Local Parameters <=

    VV10 B              =     6.0000E+00
    VV10 C              =     1.0000E-02

   => Molecular Quadrature <=

    Radial Scheme          =       TREUTLER
    Pruning Scheme         =           FLAT
    Nuclear Scheme         =       TREUTLER

    BS radius alpha        =              1
    Pruning alpha          =              1
    Radial Points          =             75
    Spherical Points       =            302
    Total Points           =          43438
    Total Blocks           =            402
    Max Points             =            256
    Max Functions          =            119

   => Loading Basis Set <=

    Name: (CC-PV(Q+D)Z AUX)
    Role: JKFIT
    Keyword: DF_BASIS_SCF
    atoms 1 entry C          line   137 file /work/zw18965/.conda/envs/p4env/share/psi4/basis/cc-pvqz-jkfit.gbs 
    atoms 2 entry S          line   673 file /work/zw18965/.conda/envs/p4env/share/psi4/basis/cc-pvqz-jkfit.gbs 

   => Loading Basis Set <=

    Name: CC-PV(Q+D)Z
    Role: ORBITAL
    Keyword: BASIS
    atoms 1 entry C          line   249 file /work/zw18965/.conda/envs/p4env/share/psi4/basis/cc-pv_qpd_z.gbs 
    atoms 2 entry S          line   978 file /work/zw18965/.conda/envs/p4env/share/psi4/basis/cc-pv_qpd_z.gbs 

  Reading orbitals from file 180, no projection.

  ==> Pre-Iterations <==

   -------------------------------------------------------
    Irrep   Nso     Nmo     Nalpha   Nbeta   Ndocc  Nsocc
   -------------------------------------------------------
     A1        48      48       0       0       0       0
     A2        15      15       0       0       0       0
     B1        28      28       0       0       0       0
     B2        28      28       0       0       0       0
   -------------------------------------------------------
    Total     119     119      11      11      11       0
   -------------------------------------------------------

  ==> Integral Setup <==

  ==> DiskDFJK: Density-Fitted J/K Matrices <==

    J tasked:                  Yes
    K tasked:                  Yes
    wK tasked:                 Yes
    Omega:               3.000E-01
    OpenMP threads:             24
    Integrals threads:          24
    Memory [MiB]:           102646
    Algorithm:                Core
    Integral Cache:           NONE
    Schwarz Cutoff:          1E-12
    Fitting Condition:       1E-10

   => Auxiliary Basis Set <=

  Basis Set: (CC-PV(Q+D)Z AUX)
    Blend: CC-PVQZ-JKFIT
    Number of shells: 68
    Number of basis function: 254
    Number of Cartesian functions: 333
    Spherical Harmonics?: true
    Max angular momentum: 5

  Cached 100.0% of DFT collocation blocks in 0.342 [GiB].

  Minimum eigenvalue in the overlap matrix is 2.0999921936E-04.
  Using Symmetric Orthogonalization.

  SCF Guess: Orbitals guess was supplied from a previous computation.

  ==> Iterations <==

                           Total Energy        Delta E     RMS |[F,P]|

   @DF-RKS iter   0:  -436.22171708275937   -4.36222e+02   4.44661e-05 
   @DF-RKS iter   1:  -436.22262217112802   -9.05088e-04   7.06971e-06 DIIS
   @DF-RKS iter   2:  -436.22262220372448   -3.25965e-08   6.94818e-06 DIIS
   @DF-RKS iter   3:  -436.22262229578496   -9.20605e-08   1.67473e-06 DIIS
   @DF-RKS iter   4:  -436.22262230095532   -5.17036e-09   2.46881e-07 DIIS
   @DF-RKS iter   5:  -436.22262230114751   -1.92188e-10   6.38900e-08 DIIS
   @DF-RKS iter   6:  -436.22262230116547   -1.79625e-11   6.95330e-09 DIIS
  Energy and wave function converged.


  ==> Post-Iterations <==

    Orbital Energies [Eh]
    ---------------------

    Doubly Occupied:                                                      

       1A1   -89.251482     2A1   -10.441579     3A1    -8.170288  
       1B2    -6.077134     1B1    -6.077134     4A1    -6.075942  
       5A1    -0.958340     6A1    -0.629261     2B2    -0.451608  
       2B1    -0.451608     7A1    -0.413052  

    Virtual:                                                              

       3B1     0.000279     3B2     0.000279     8A1     0.116508  
       9A1     0.198135     4B2     0.238958     4B1     0.238958  
      10A1     0.278854     1A2     0.304902    11A1     0.304902  
       5B1     0.326445     5B2     0.326445    12A1     0.353180  
       6B2     0.438873     6B1     0.438873    13A1     0.506457  
      14A1     0.626189     2A2     0.626190    15A1     0.739976  
      16A1     0.781390     7B2     0.825953     7B1     0.825953  
       3A2     0.987957    17A1     0.987960     8B1     1.021199  
       8B2     1.021199     9B1     1.080868     9B2     1.080868  
      18A1     1.173465     4A2     1.205591    19A1     1.205591  
      20A1     1.224338    10B2     1.245980    10B1     1.245980  
      11B2     1.345059    11B1     1.345059    12B2     1.595849  
      12B1     1.595849    21A1     1.596307    22A1     1.640433  
      13B2     1.791948    13B1     1.791948    23A1     1.867921  
      24A1     1.904246     5A2     1.904253    25A1     2.052681  
      14B2     2.072214    14B1     2.072214    26A1     2.106348  
       6A2     2.106348    27A1     2.451728    15B2     2.510269  
      15B1     2.510269    28A1     2.676670     7A2     2.676672  
      16B1     2.771435    16B2     2.771435    29A1     2.980053  
       8A2     2.980062    17B2     3.025917    17B1     3.025917  
      30A1     3.082217    31A1     3.113448     9A2     3.166945  
      32A1     3.166970    18B1     3.169825    18B2     3.169825  
      19B2     3.422623    19B1     3.422623    10A2     3.459053  
      33A1     3.459057    34A1     3.716374    20B2     4.054733  
      20B1     4.054733    35A1     4.061759    36A1     4.837350  
      11A2     4.837354    21B2     4.972962    21B1     4.972962  
      22B1     5.130864    22B2     5.130864    37A1     5.416908  
      23B1     5.435396    23B2     5.435396    12A2     5.456283  
      38A1     5.456293    24B1     5.666901    24B2     5.666901  
      39A1     5.792575    25B2     5.942254    25B1     5.942254  
      40A1     6.034904    41A1     6.058741    13A2     6.058771  
      14A2     6.139538    42A1     6.139573    26B1     6.436255  
      26B2     6.436255    43A1     7.038054    27B1     7.209650  
      27B2     7.209650    44A1     8.286981    45A1     8.692288  
      15A2     8.692327    28B1     8.869966    28B2     8.869966  
      46A1     9.449547    47A1    18.807608    48A1    20.873651  

    Final Occupation by Irrep:
             A1    A2    B1    B2 
    DOCC [     7,    0,    2,    2 ]

  @DF-RKS Final Energy:  -436.22262230116547

   => Energetics <=

    Nuclear Repulsion Energy =             33.3020466689679822
    One-Electron Energy =                -666.2966740633158906
    Two-Electron Energy =                 220.2472028613505302
    DFT Exchange-Correlation Energy =     -23.5672399717982941
    Empirical Dispersion Energy =           0.0000000000000000
    VV10 Nonlocal Energy =                  0.0920422036302917
    Total Energy =                       -436.2226223011654724

Computation Completed


Properties will be evaluated at   0.000000,   0.000000,   0.000000 [a0]

Properties computed using the SCF density matrix

  Nuclear Dipole Moment: [e a0]
     X:     0.0000      Y:     0.0000      Z:     0.0110

  Electronic Dipole Moment: [e a0]
     X:     0.0000      Y:     0.0000      Z:     0.7635

  Dipole Moment: [e a0]
     X:     0.0000      Y:     0.0000      Z:     0.7745     Total:     0.7745

  Dipole Moment: [D]
     X:     0.0000      Y:     0.0000      Z:     1.9685     Total:     1.9685


*** tstop() called on bp1-compute00048.data.bp.acrc.priv at Tue Apr 27 17:11:17 2021
Module time:
	user time   =      51.51 seconds =       0.86 minutes
	system time =       2.06 seconds =       0.03 minutes
	total time  =          2 seconds =       0.03 minutes
Total time:
	user time   =     320.41 seconds =       5.34 minutes
	system time =      14.76 seconds =       0.25 minutes
	total time  =         15 seconds =       0.25 minutes

  //>>>>>>>>>>>>>>>>>>>>>>>>>>>>>>>>>>>//
  //    Loading displacement 3 of 3    //
  //<<<<<<<<<<<<<<<<<<<<<<<<<<<<<<<<<<<//

*** tstart() called on bp1-compute00048.data.bp.acrc.priv
*** at Tue Apr 27 17:11:17 2021

   => Loading Basis Set <=

    Name: CC-PV(Q+D)Z
    Role: ORBITAL
    Keyword: BASIS
    atoms 1 entry C          line   249 file /work/zw18965/.conda/envs/p4env/share/psi4/basis/cc-pv_qpd_z.gbs 
    atoms 2 entry S          line   978 file /work/zw18965/.conda/envs/p4env/share/psi4/basis/cc-pv_qpd_z.gbs 


         ---------------------------------------------------------
                                   SCF
               by Justin Turney, Rob Parrish, Andy Simmonett
                          and Daniel G. A. Smith
                              RKS Reference
                       24 Threads, 137329 MiB Core
         ---------------------------------------------------------

  ==> Geometry <==

    Molecular point group: c2v
    Full point group: C_inf_v

    Geometry (in Angstrom), charge = 0, multiplicity = 1:

       Center              X                  Y                   Z               Mass       
    ------------   -----------------  -----------------  -----------------  -----------------
         C            0.000000000000     0.000000000000    -1.107860195926    12.000000000000
         S            0.000000000000     0.000000000000     0.415810482799    31.972071174400

  Running in c2v symmetry.

  Rotational constants: A = ************  B =      0.83222  C =      0.83222 [cm^-1]
  Rotational constants: A = ************  B =  24949.38726  C =  24949.38726 [MHz]
  Nuclear repulsion =   33.341202225423174

  Charge       = 0
  Multiplicity = 1
  Electrons    = 22
  Nalpha       = 11
  Nbeta        = 11

  ==> Algorithm <==

  SCF Algorithm Type is DF.
  DIIS enabled.
  MOM disabled.
  Fractional occupation disabled.
  Guess Type is READ.
  Energy threshold   = 1.00e-08
  Density threshold  = 1.00e-08
  Integral threshold = 0.00e+00

  ==> Primary Basis <==

  Basis Set: CC-PV(Q+D)Z
    Blend: CC-PV(Q+D)Z
    Number of shells: 33
    Number of basis function: 119
    Number of Cartesian functions: 150
    Spherical Harmonics?: true
    Max angular momentum: 4

  ==> DFT Potential <==

   => Composite Functional: WB97M-V <= 

    wB97M-V Hyb-GGA Exchange-Correlation Functional

    N. Mardirossian and M. Head-Gordon, J. Chem. Phys. 144, 214110 (2016)

    Deriv               =              1
    GGA                 =           TRUE
    Meta                =           TRUE

    Exchange Hybrid     =           TRUE
    MP2 Hybrid          =          FALSE

   => Exchange-Correlation Functionals <=

    1.0000   wB97M-V exchange-correlation functional

   => Exact (HF) Exchange <=

    0.8500            HF,LR [omega = 0.3000]
    0.1500               HF 

   => VV10 Non-Local Parameters <=

    VV10 B              =     6.0000E+00
    VV10 C              =     1.0000E-02

   => Molecular Quadrature <=

    Radial Scheme          =       TREUTLER
    Pruning Scheme         =           FLAT
    Nuclear Scheme         =       TREUTLER

    BS radius alpha        =              1
    Pruning alpha          =              1
    Radial Points          =             75
    Spherical Points       =            302
    Total Points           =          43438
    Total Blocks           =            401
    Max Points             =            256
    Max Functions          =            119

   => Loading Basis Set <=

    Name: (CC-PV(Q+D)Z AUX)
    Role: JKFIT
    Keyword: DF_BASIS_SCF
    atoms 1 entry C          line   137 file /work/zw18965/.conda/envs/p4env/share/psi4/basis/cc-pvqz-jkfit.gbs 
    atoms 2 entry S          line   673 file /work/zw18965/.conda/envs/p4env/share/psi4/basis/cc-pvqz-jkfit.gbs 

   => Loading Basis Set <=

    Name: CC-PV(Q+D)Z
    Role: ORBITAL
    Keyword: BASIS
    atoms 1 entry C          line   249 file /work/zw18965/.conda/envs/p4env/share/psi4/basis/cc-pv_qpd_z.gbs 
    atoms 2 entry S          line   978 file /work/zw18965/.conda/envs/p4env/share/psi4/basis/cc-pv_qpd_z.gbs 

  Reading orbitals from file 180, no projection.

  ==> Pre-Iterations <==

   -------------------------------------------------------
    Irrep   Nso     Nmo     Nalpha   Nbeta   Ndocc  Nsocc
   -------------------------------------------------------
     A1        48      48       0       0       0       0
     A2        15      15       0       0       0       0
     B1        28      28       0       0       0       0
     B2        28      28       0       0       0       0
   -------------------------------------------------------
    Total     119     119      11      11      11       0
   -------------------------------------------------------

  ==> Integral Setup <==

  ==> DiskDFJK: Density-Fitted J/K Matrices <==

    J tasked:                  Yes
    K tasked:                  Yes
    wK tasked:                 Yes
    Omega:               3.000E-01
    OpenMP threads:             24
    Integrals threads:          24
    Memory [MiB]:           102646
    Algorithm:                Core
    Integral Cache:           NONE
    Schwarz Cutoff:          1E-12
    Fitting Condition:       1E-10

   => Auxiliary Basis Set <=

  Basis Set: (CC-PV(Q+D)Z AUX)
    Blend: CC-PVQZ-JKFIT
    Number of shells: 68
    Number of basis function: 254
    Number of Cartesian functions: 333
    Spherical Harmonics?: true
    Max angular momentum: 5

  Cached 100.0% of DFT collocation blocks in 0.342 [GiB].

  Minimum eigenvalue in the overlap matrix is 2.0876247798E-04.
  Using Symmetric Orthogonalization.

  SCF Guess: Orbitals guess was supplied from a previous computation.

  ==> Iterations <==

                           Total Energy        Delta E     RMS |[F,P]|

   @DF-RKS iter   0:  -436.22353624378246   -4.36224e+02   4.45564e-05 
   @DF-RKS iter   1:  -436.22262991681356    9.06327e-04   7.06538e-06 DIIS
   @DF-RKS iter   2:  -436.22262994962699   -3.28134e-08   6.93569e-06 DIIS
   @DF-RKS iter   3:  -436.22263004132429   -9.16973e-08   1.66886e-06 DIIS
   @DF-RKS iter   4:  -436.22263004645237   -5.12807e-09   2.46707e-07 DIIS
   @DF-RKS iter   5:  -436.22263004664416   -1.91790e-10   6.38651e-08 DIIS
   @DF-RKS iter   6:  -436.22263004666161   -1.74509e-11   6.96965e-09 DIIS
  Energy and wave function converged.


  ==> Post-Iterations <==

    Orbital Energies [Eh]
    ---------------------

    Doubly Occupied:                                                      

       1A1   -89.251350     2A1   -10.441040     3A1    -8.170257  
       1B1    -6.077097     1B2    -6.077097     4A1    -6.075902  
       5A1    -0.958848     6A1    -0.629164     2B1    -0.451909  
       2B2    -0.451909     7A1    -0.412883  

    Virtual:                                                              

       3B2     0.000544     3B1     0.000544     8A1     0.116557  
       9A1     0.198084     4B1     0.238876     4B2     0.238876  
      10A1     0.278919     1A2     0.304820    11A1     0.304820  
       5B1     0.326454     5B2     0.326454    12A1     0.353658  
       6B1     0.439260     6B2     0.439260    13A1     0.506656  
      14A1     0.626432     2A2     0.626433    15A1     0.740485  
      16A1     0.781271     7B1     0.826054     7B2     0.826054  
       3A2     0.987835    17A1     0.987837     8B2     1.021327  
       8B1     1.021327     9B1     1.080764     9B2     1.080764  
      18A1     1.173507     4A2     1.205870    19A1     1.205870  
      20A1     1.225797    10B2     1.245805    10B1     1.245805  
      11B2     1.345537    11B1     1.345537    21A1     1.595944  
      12B1     1.596137    12B2     1.596137    22A1     1.639875  
      13B1     1.792262    13B2     1.792262    23A1     1.869288  
      24A1     1.904594     5A2     1.904601    25A1     2.053307  
      14B1     2.072783    14B2     2.072783    26A1     2.107190  
       6A2     2.107190    27A1     2.452242    15B1     2.511753  
      15B2     2.511753    28A1     2.676654     7A2     2.676657  
      16B1     2.771332    16B2     2.771332    29A1     2.979939  
       8A2     2.979949    17B1     3.026242    17B2     3.026242  
      30A1     3.084562    31A1     3.114673     9A2     3.167376  
      32A1     3.167400    18B1     3.169770    18B2     3.169770  
      19B2     3.423493    19B1     3.423493    10A2     3.460375  
      33A1     3.460379    34A1     3.715623    20B1     4.056278  
      20B2     4.056278    35A1     4.064079    36A1     4.837587  
      11A2     4.837590    21B1     4.974271    21B2     4.974271  
      22B2     5.131780    22B1     5.131780    37A1     5.414262  
      23B2     5.435625    23B1     5.435625    12A2     5.458910  
      38A1     5.458919    24B2     5.667848    24B1     5.667848  
      39A1     5.797365    25B1     5.942644    25B2     5.942644  
      40A1     6.036940    41A1     6.059870    13A2     6.059900  
      14A2     6.140433    42A1     6.140468    26B1     6.438129  
      26B2     6.438129    43A1     7.043108    27B2     7.214452  
      27B1     7.214452    44A1     8.288739    45A1     8.692289  
      15A2     8.692328    28B2     8.871163    28B1     8.871163  
      46A1     9.452808    47A1    18.818836    48A1    20.878056  

    Final Occupation by Irrep:
             A1    A2    B1    B2 
    DOCC [     7,    0,    2,    2 ]

  @DF-RKS Final Energy:  -436.22263004666161

   => Energetics <=

    Nuclear Repulsion Energy =             33.3412022254231744
    One-Electron Energy =                -666.3743792989856729
    Two-Electron Energy =                 220.2867221005801071
    DFT Exchange-Correlation Energy =     -23.5682166811661631
    Empirical Dispersion Energy =           0.0000000000000000
    VV10 Nonlocal Energy =                  0.0920416074869495
    Total Energy =                       -436.2226300466615498

Computation Completed


Properties will be evaluated at   0.000000,   0.000000,   0.000000 [a0]

Properties computed using the SCF density matrix

  Nuclear Dipole Moment: [e a0]
     X:     0.0000      Y:     0.0000      Z:     0.0110

  Electronic Dipole Moment: [e a0]
     X:     0.0000      Y:     0.0000      Z:     0.7667

  Dipole Moment: [e a0]
     X:     0.0000      Y:     0.0000      Z:     0.7776     Total:     0.7776

  Dipole Moment: [D]
     X:     0.0000      Y:     0.0000      Z:     1.9765     Total:     1.9765


*** tstop() called on bp1-compute00048.data.bp.acrc.priv at Tue Apr 27 17:11:19 2021
Module time:
	user time   =      47.04 seconds =       0.78 minutes
	system time =       1.58 seconds =       0.03 minutes
	total time  =          2 seconds =       0.03 minutes
Total time:
	user time   =     367.58 seconds =       6.13 minutes
	system time =      16.35 seconds =       0.27 minutes
	total time  =         17 seconds =       0.28 minutes

         ----------------------------------------------------------
                                   FINDIF
                     R. A. King and Jonathon Misiewicz
         ---------------------------------------------------------

  Computing gradient from energies.
    Using 3-point formula.
    Energy without displacement: -436.2226270327
    Check energies below for precision!
    Forces are for mass-weighted, symmetry-adapted cartesians (in au).

     Coord      Energy(-1)        Energy(+1)            Force
        0   -436.2226223012   -436.2226300467     -0.0007745496


-------------------------------------------------------------
  ## New Matrix (Symmetry 0) ##
  Irrep: 1 Size: 2 x 3

                 1                   2                   3

    1     0.00000000000000     0.00000000000000    -0.00228789868647
    2     0.00000000000000     0.00000000000000     0.00228789868647




			-----------------------------------------
			 OPTKING 2.0: for geometry optimizations 
			  - R.A. King,  Bethel University        
			-----------------------------------------
	At level 1: Red. Int., RFO, no backsteps, dynamic trust

	Previous internal coordinate definitions found.
	---Fragment 1 Geometry and Gradient---
	 C           0.0000000000        0.0000000000       -2.0947831239
	 S           0.0000000000        0.0000000000        0.7862298739
	             0.0000000000        0.0000000000       -0.0022878987
	             0.0000000000        0.0000000000        0.0022878987

	---Fragment 1 Intrafragment Coordinates---
	 - Coordinate -           - BOHR/RAD -       - ANG/DEG -
	 R(1,2)           =         2.881013	       1.524566

	Current energy   :      -436.2226270327

	Energy change for the previous step:
		Projected    :        -0.0001487269
		Actual       :        -0.0003725488
	Energy ratio indicates good step: Trust radius increased to 1.000e+00.


	Performing BFGS update.
	Previous computed or guess Hessian on step 1.
	Steps to be used in Hessian update: 1
	Taking RFO optimization step.
	Going to follow RFO solution 1.
	Using RFO vector 1.
	Norm of target step-size    0.00399
	Projected energy change by RFO approximation:        -0.0000011695

	Back-transformation to cartesian coordinates...
	Successfully converged to displaced geometry.

	--- Internal Coordinate Step in ANG or DEG, aJ/ANG or AJ/DEG ---
	 ---------------------------------------------------------------------------
	   Coordinate                Previous        Force       Change         New 
	   ----------                --------       ------       ------       ------
	    1 R(1,2)          =      1.524566    -0.018849    -0.002111     1.522455
	 ---------------------------------------------------------------------------
	Successfully symmetrized geometry.

  ==> Convergence Check <==

  Measures of convergence in internal coordinates in au.
  Criteria marked as inactive (o), active & met (*), and active & unmet ( ).
  ---------------------------------------------------------------------------------------------
   Step     Total Energy     Delta E     MAX Force     RMS Force      MAX Disp      RMS Disp   
  ---------------------------------------------------------------------------------------------
    Convergence Criteria    1.00e-06 *    3.00e-04 *             o    1.20e-03 *             o
  ---------------------------------------------------------------------------------------------
      2    -436.22262703   -3.73e-04      2.29e-03      2.29e-03 o    3.99e-03      3.99e-03 o  ~
  ---------------------------------------------------------------------------------------------

	Writing optimization data to binary file.
	Structure for next step:
	Cartesian Geometry (in Angstrom)
	    C     0.0000000000   0.0000000000  -1.1074559078
	    S     0.0000000000   0.0000000000   0.4149993517
			--------------------------
			 OPTKING Finished Execution 
			--------------------------

    Structure for next step:
    Molecular point group: c2v
    Full point group: C_inf_v

    Geometry (in Angstrom), charge = 0, multiplicity = 1:

    C            0.000000000000     0.000000000000    -1.106976469559
    S            0.000000000000     0.000000000000     0.415478795923

gradient() will perform gradient computation by finite difference of analytic energies.

         ----------------------------------------------------------
                                   FINDIF
                     R. A. King and Jonathon Misiewicz
         ---------------------------------------------------------

  Using finite-differences of energies to determine gradients.
    Generating geometries for use with 3-point formula.
    Displacement size will be 5.00e-03.
    Number of atoms is 2.
    Number of symmetric SALCs is 1.
    Translations projected? 1. Rotations projected? 1.
    Number of geometries (including reference) is 3.

  //>>>>>>>>>>>>>>>>>>>>>>>>>>>>>>>>>>>//
  //    Loading displacement 1 of 3    //
  //<<<<<<<<<<<<<<<<<<<<<<<<<<<<<<<<<<<//

*** tstart() called on bp1-compute00048.data.bp.acrc.priv
*** at Tue Apr 27 17:11:19 2021

   => Loading Basis Set <=

    Name: CC-PV(Q+D)Z
    Role: ORBITAL
    Keyword: BASIS
    atoms 1 entry C          line   249 file /work/zw18965/.conda/envs/p4env/share/psi4/basis/cc-pv_qpd_z.gbs 
    atoms 2 entry S          line   978 file /work/zw18965/.conda/envs/p4env/share/psi4/basis/cc-pv_qpd_z.gbs 


         ---------------------------------------------------------
                                   SCF
               by Justin Turney, Rob Parrish, Andy Simmonett
                          and Daniel G. A. Smith
                              RKS Reference
                       24 Threads, 137329 MiB Core
         ---------------------------------------------------------

  ==> Geometry <==

    Molecular point group: c2v
    Full point group: C_inf_v

    Geometry (in Angstrom), charge = 0, multiplicity = 1:

       Center              X                  Y                   Z               Mass       
    ------------   -----------------  -----------------  -----------------  -----------------
         C            0.000000000000     0.000000000000    -1.106976469559    12.000000000000
         S            0.000000000000     0.000000000000     0.415478795923    31.972071174400

  Running in c2v symmetry.

  Rotational constants: A = ************  B =      0.83355  C =      0.83355 [cm^-1]
  Rotational constants: A = ************  B =  24989.23858  C =  24989.23858 [MHz]
  Nuclear repulsion =   33.367819321916144

  Charge       = 0
  Multiplicity = 1
  Electrons    = 22
  Nalpha       = 11
  Nbeta        = 11

  ==> Algorithm <==

  SCF Algorithm Type is DF.
  DIIS enabled.
  MOM disabled.
  Fractional occupation disabled.
  Guess Type is READ.
  Energy threshold   = 1.00e-08
  Density threshold  = 1.00e-08
  Integral threshold = 0.00e+00

  ==> Primary Basis <==

  Basis Set: CC-PV(Q+D)Z
    Blend: CC-PV(Q+D)Z
    Number of shells: 33
    Number of basis function: 119
    Number of Cartesian functions: 150
    Spherical Harmonics?: true
    Max angular momentum: 4

  ==> DFT Potential <==

   => Composite Functional: WB97M-V <= 

    wB97M-V Hyb-GGA Exchange-Correlation Functional

    N. Mardirossian and M. Head-Gordon, J. Chem. Phys. 144, 214110 (2016)

    Deriv               =              1
    GGA                 =           TRUE
    Meta                =           TRUE

    Exchange Hybrid     =           TRUE
    MP2 Hybrid          =          FALSE

   => Exchange-Correlation Functionals <=

[...]
      26B2     6.438464    43A1     7.044013    27B1     7.215308  
      27B2     7.215308    44A1     8.289049    45A1     8.692289  
      15A2     8.692328    28B1     8.871379    28B2     8.871379  
      46A1     9.453389    47A1    18.820844    48A1    20.878849  

    Final Occupation by Irrep:
             A1    A2    B1    B2 
    DOCC [     7,    0,    2,    2 ]

  @DF-RKS Final Energy:  -436.22263070475452

   => Energetics <=

    Nuclear Repulsion Energy =             33.3481987604809405
    One-Electron Energy =                -666.3882641301680678
    Two-Electron Energy =                 220.2937845292328518
    DFT Exchange-Correlation Energy =     -23.5683913654571988
    Empirical Dispersion Energy =           0.0000000000000000
    VV10 Nonlocal Energy =                  0.0920415011569143
    Total Energy =                       -436.2226307047545220

Computation Completed


Properties will be evaluated at   0.000000,   0.000000,   0.000000 [a0]

Properties computed using the SCF density matrix

  Nuclear Dipole Moment: [e a0]
     X:     0.0000      Y:     0.0000      Z:     0.0110

  Electronic Dipole Moment: [e a0]
     X:     0.0000      Y:     0.0000      Z:     0.7672

  Dipole Moment: [e a0]
     X:     0.0000      Y:     0.0000      Z:     0.7782     Total:     0.7782

  Dipole Moment: [D]
     X:     0.0000      Y:     0.0000      Z:     1.9780     Total:     1.9780


*** tstop() called on bp1-compute00048.data.bp.acrc.priv at Tue Apr 27 17:11:42 2021
Module time:
	user time   =      75.29 seconds =       1.25 minutes
	system time =       2.17 seconds =       0.04 minutes
	total time  =          4 seconds =       0.07 minutes
Total time:
	user time   =     875.82 seconds =      14.60 minutes
	system time =      32.66 seconds =       0.54 minutes
	total time  =         40 seconds =       0.67 minutes

  //>>>>>>>>>>>>>>>>>>>>>>>>>>>>>>>>>>>//
  //    Loading displacement 3 of 3    //
  //<<<<<<<<<<<<<<<<<<<<<<<<<<<<<<<<<<<//

*** tstart() called on bp1-compute00048.data.bp.acrc.priv
*** at Tue Apr 27 17:11:42 2021

   => Loading Basis Set <=

    Name: CC-PV(Q+D)Z
    Role: ORBITAL
    Keyword: BASIS
    atoms 1 entry C          line   249 file /work/zw18965/.conda/envs/p4env/share/psi4/basis/cc-pv_qpd_z.gbs 
    atoms 2 entry S          line   978 file /work/zw18965/.conda/envs/p4env/share/psi4/basis/cc-pv_qpd_z.gbs 


         ---------------------------------------------------------
                                   SCF
               by Justin Turney, Rob Parrish, Andy Simmonett
                          and Daniel G. A. Smith
                              RKS Reference
                       24 Threads, 137329 MiB Core
         ---------------------------------------------------------

  ==> Geometry <==

    Molecular point group: c2v
    Full point group: C_inf_v

    Geometry (in Angstrom), charge = 0, multiplicity = 1:

       Center              X                  Y                   Z               Mass       
    ------------   -----------------  -----------------  -----------------  -----------------
         C            0.000000000000     0.000000000000    -1.106325175018    12.000000000000
         S            0.000000000000     0.000000000000     0.415234347121    31.972071174400

  Running in c2v symmetry.

  Rotational constants: A = ************  B =      0.83453  C =      0.83453 [cm^-1]
  Rotational constants: A = ************  B =  25018.66961  C =  25018.66961 [MHz]
  Nuclear repulsion =   33.387462984632698

  Charge       = 0
  Multiplicity = 1
  Electrons    = 22
  Nalpha       = 11
  Nbeta        = 11

  ==> Algorithm <==

  SCF Algorithm Type is DF.
  DIIS enabled.
  MOM disabled.
  Fractional occupation disabled.
  Guess Type is SAD.
  Energy threshold   = 1.00e-10
  Density threshold  = 1.00e-10
  Integral threshold = 0.00e+00

  ==> Primary Basis <==

  Basis Set: CC-PV(Q+D)Z
    Blend: CC-PV(Q+D)Z
    Number of shells: 33
    Number of basis function: 119
    Number of Cartesian functions: 150
    Spherical Harmonics?: true
    Max angular momentum: 4

  ==> DFT Potential <==

   => Composite Functional: WB97M-V <= 

    wB97M-V Hyb-GGA Exchange-Correlation Functional

    N. Mardirossian and M. Head-Gordon, J. Chem. Phys. 144, 214110 (2016)

    Deriv               =              1
    GGA                 =           TRUE
    Meta                =           TRUE

    Exchange Hybrid     =           TRUE
    MP2 Hybrid          =          FALSE

   => Exchange-Correlation Functionals <=

    1.0000   wB97M-V exchange-correlation functional

   => Exact (HF) Exchange <=

    0.8500            HF,LR [omega = 0.3000]
    0.1500               HF 

   => VV10 Non-Local Parameters <=

    VV10 B              =     6.0000E+00
    VV10 C              =     1.0000E-02

   => Molecular Quadrature <=

    Radial Scheme          =       TREUTLER
    Pruning Scheme         =           FLAT
    Nuclear Scheme         =       TREUTLER

    BS radius alpha        =              1
    Pruning alpha          =              1
    Radial Points          =             75
    Spherical Points       =            302
    Total Points           =          43434
    Total Blocks           =            402
    Max Points             =            256
    Max Functions          =            119

   => Loading Basis Set <=

    Name: (CC-PV(Q+D)Z AUX)
    Role: JKFIT
    Keyword: DF_BASIS_SCF
    atoms 1 entry C          line   137 file /work/zw18965/.conda/envs/p4env/share/psi4/basis/cc-pvqz-jkfit.gbs 
    atoms 2 entry S          line   673 file /work/zw18965/.conda/envs/p4env/share/psi4/basis/cc-pvqz-jkfit.gbs 

  ==> Pre-Iterations <==

   -------------------------------------------------------
    Irrep   Nso     Nmo     Nalpha   Nbeta   Ndocc  Nsocc
   -------------------------------------------------------
     A1        48      48       0       0       0       0
     A2        15      15       0       0       0       0
     B1        28      28       0       0       0       0
     B2        28      28       0       0       0       0
   -------------------------------------------------------
    Total     119     119      11      11      11       0
   -------------------------------------------------------

  ==> Integral Setup <==

  ==> DiskDFJK: Density-Fitted J/K Matrices <==

    J tasked:                  Yes
    K tasked:                  Yes
    wK tasked:                 Yes
    Omega:               3.000E-01
    OpenMP threads:             24
    Integrals threads:          24
    Memory [MiB]:           102646
    Algorithm:                Core
    Integral Cache:           NONE
    Schwarz Cutoff:          1E-12
    Fitting Condition:       1E-10

   => Auxiliary Basis Set <=

  Basis Set: (CC-PV(Q+D)Z AUX)
    Blend: CC-PVQZ-JKFIT
    Number of shells: 68
    Number of basis function: 254
    Number of Cartesian functions: 333
    Spherical Harmonics?: true
    Max angular momentum: 5

  Cached 100.0% of DFT collocation blocks in 0.342 [GiB].

  Minimum eigenvalue in the overlap matrix is 2.0731596637E-04.
  Using Symmetric Orthogonalization.

  SCF Guess: Superposition of Atomic Densities via on-the-fly atomic UHF.

  ==> Iterations <==

                           Total Energy        Delta E     RMS |[F,P]|

   @DF-RKS iter SAD:  -435.67679040406659   -4.35677e+02   0.00000e+00 
   @DF-RKS iter   1:  -436.17025888817199   -4.93468e-01   5.20772e-03 DIIS
   @DF-RKS iter   2:  -436.15701767193326    1.32412e-02   5.41855e-03 DIIS
   @DF-RKS iter   3:  -436.22096239518652   -6.39447e-02   9.66504e-04 DIIS
   @DF-RKS iter   4:  -436.22256757270213   -1.60518e-03   1.34228e-04 DIIS
   @DF-RKS iter   5:  -436.22262458682815   -5.70141e-05   4.02002e-05 DIIS
   @DF-RKS iter   6:  -436.22262918459495   -4.59777e-06   1.60824e-05 DIIS
   @DF-RKS iter   7:  -436.22263027599286   -1.09140e-06   1.85388e-06 DIIS
   @DF-RKS iter   8:  -436.22263030573600   -2.97431e-08   2.32163e-07 DIIS
   @DF-RKS iter   9:  -436.22263030609531   -3.59307e-10   3.38138e-08 DIIS
   @DF-RKS iter  10:  -436.22263030610213   -6.82121e-12   5.16101e-09 DIIS
   @DF-RKS iter  11:  -436.22263030610196    1.70530e-13   7.99831e-10 DIIS
   @DF-RKS iter  12:  -436.22263030610219   -2.27374e-13   1.78030e-10 DIIS
   @DF-RKS iter  13:  -436.22263030610230   -1.13687e-13   2.79634e-11 DIIS
  Energy and wave function converged.


  ==> Post-Iterations <==

    Orbital Energies [Eh]
    ---------------------

    Doubly Occupied:                                                      

       1A1   -89.251192     2A1   -10.440403     3A1    -8.170220  
       1B1    -6.077053     1B2    -6.077053     4A1    -6.075854  
       5A1    -0.959447     6A1    -0.629050     2B1    -0.452266  
       2B2    -0.452266     7A1    -0.412683  

    Virtual:                                                              

       3B1     0.000856     3B2     0.000856     8A1     0.116613  
       9A1     0.198024     4B1     0.238780     4B2     0.238780  
      10A1     0.278997     1A2     0.304724    11A1     0.304724  
       5B2     0.326464     5B1     0.326464    12A1     0.354220  
       6B1     0.439716     6B2     0.439716    13A1     0.506891  
      14A1     0.626719     2A2     0.626720    15A1     0.741079  
      16A1     0.781137     7B2     0.826171     7B1     0.826171  
       3A2     0.987690    17A1     0.987692     8B1     1.021479  
       8B2     1.021479     9B1     1.080642     9B2     1.080642  
      18A1     1.173560     4A2     1.206199    19A1     1.206199  
      20A1     1.227527    10B1     1.245598    10B2     1.245598  
      11B1     1.346103    11B2     1.346103    21A1     1.595516  
      12B2     1.596474    12B1     1.596474    22A1     1.639217  
      13B2     1.792633    13B1     1.792633    23A1     1.870901  
      24A1     1.905005     5A2     1.905012    25A1     2.054050  
      14B2     2.073452    14B1     2.073452    26A1     2.108183  
       6A2     2.108184    27A1     2.452846    15B2     2.513508  
      15B1     2.513508    28A1     2.676635     7A2     2.676638  
      16B1     2.771213    16B2     2.771213    29A1     2.979806  
       8A2     2.979815    17B1     3.026630    17B2     3.026630  
      30A1     3.087246    31A1     3.116194     9A2     3.167882  
      32A1     3.167907    18B2     3.169704    18B1     3.169704  
      19B1     3.424517    19B2     3.424517    10A2     3.461940  
      33A1     3.461944    34A1     3.714702    20B1     4.058081  
      20B2     4.058081    35A1     4.066877    36A1     4.837867  
      11A2     4.837869    21B2     4.975822    21B1     4.975822  
      22B2     5.132885    22B1     5.132885    37A1     5.411104  
      23B2     5.435895    23B1     5.435895    12A2     5.462003  
      38A1     5.462012    24B2     5.668959    24B1     5.668959  
      39A1     5.802986    25B1     5.943104    25B2     5.943104  
      40A1     6.039402    41A1     6.061206    13A2     6.061236  
      14A2     6.141495    42A1     6.141530    26B1     6.440344  
      26B2     6.440344    43A1     7.049105    27B1     7.220105  
      27B2     7.220105    44A1     8.290763    45A1     8.692290  
      15A2     8.692330    28B1     8.872605    28B2     8.872605  
      46A1     9.456636    47A1    18.832119    48A1    20.883322  

    Final Occupation by Irrep:
             A1    A2    B1    B2 
    DOCC [     7,    0,    2,    2 ]

  @DF-RKS Final Energy:  -436.22263030610230

   => Energetics <=

    Nuclear Repulsion Energy =             33.3874629846326982
    One-Electron Energy =                -666.4661759661814813
    Two-Electron Energy =                 220.3334139946796597
    DFT Exchange-Correlation Energy =     -23.5693722264863084
    Empirical Dispersion Energy =           0.0000000000000000
    VV10 Nonlocal Energy =                  0.0920409072530920
    Total Energy =                       -436.2226303061023032

Computation Completed


Properties will be evaluated at   0.000000,   0.000000,   0.000000 [a0]

Properties computed using the SCF density matrix

  Nuclear Dipole Moment: [e a0]
     X:     0.0000      Y:     0.0000      Z:     0.0110

  Electronic Dipole Moment: [e a0]
     X:     0.0000      Y:     0.0000      Z:     0.7704

  Dipole Moment: [e a0]
     X:     0.0000      Y:     0.0000      Z:     0.7814     Total:     0.7814

  Dipole Moment: [D]
     X:     0.0000      Y:     0.0000      Z:     1.9860     Total:     1.9860


*** tstop() called on bp1-compute00048.data.bp.acrc.priv at Tue Apr 27 17:11:45 2021
Module time:
	user time   =      75.44 seconds =       1.26 minutes
	system time =       2.64 seconds =       0.04 minutes
	total time  =          3 seconds =       0.05 minutes
Total time:
	user time   =     951.40 seconds =      15.86 minutes
	system time =      35.31 seconds =       0.59 minutes
	total time  =         43 seconds =       0.72 minutes

         ----------------------------------------------------------
                                   FINDIF
                     R. A. King and Jonathon Misiewicz
         ---------------------------------------------------------

  Computing second-derivative from energies using projected, 
  symmetry-adapted, cartesian coordinates.

  3 energies passed in, including the reference geometry.
    Using 3-point formula.
    Energy without displacement: -436.2226313742
    Check energies below for precision!
    0: -1 :      -436.2226307048
    0: 1  :      -436.2226303061

-------------------------------------------------------------


  ==> Harmonic Vibrational Analysis <==

  non-mass-weighted Hessian:       Symmetric? True   Hermitian? True   Lin Dep Dim?  5 (0)
  projection of translations (True) and rotations (True) removed 5 degrees of freedom (5)
  total projector:                 Symmetric? True   Hermitian? True   Lin Dep Dim?  5 (5)
  mass-weighted Hessian:           Symmetric? True   Hermitian? True   Lin Dep Dim?  5 (0)
  pre-proj  low-frequency mode:    0.0000i [cm^-1]
  pre-proj  low-frequency mode:    0.0000  [cm^-1]
  pre-proj  low-frequency mode:    0.0000  [cm^-1]
  pre-proj  low-frequency mode:    0.0000  [cm^-1]
  pre-proj  low-frequency mode:    0.0000  [cm^-1]
  pre-proj  all modes:['0.0000i' '0.0000' '0.0000' '0.0000' '0.0000' '1355.2037']
  projected mass-weighted Hessian: Symmetric? True   Hermitian? True   Lin Dep Dim?  5 (5)
  post-proj low-frequency mode:    0.0000i [cm^-1] (TR)
  post-proj low-frequency mode:    0.0000  [cm^-1] (TR)
  post-proj low-frequency mode:    0.0000  [cm^-1] (TR)
  post-proj low-frequency mode:    0.0000  [cm^-1] (TR)
  post-proj low-frequency mode:    0.0000  [cm^-1] (TR)
  post-proj  all modes:['0.0000i' '0.0000' '0.0000' '0.0000' '0.0000' '1355.2037']

  Vibration                       6           
  Freq [cm^-1]                1355.2037       
  Irrep                           A1          
  Reduced mass [u]             14.4661        
  Force const [mDyne/A]        15.6535        
  Turning point v=0 [a0]        0.0784        
  RMS dev v=0 [a0 u^1/2]        0.2108        
  Char temp [K]               1949.8364       
  ----------------------------------------------------------------------------------
      1   C                0.00  0.00  0.94   
      2   S                0.00  0.00 -0.35   

  ==> Thermochemistry Components <==

  Entropy, S
    Electronic S            0.000 [cal/(mol K)]        0.000 [J/(mol K)]       0.00000000 [mEh/K] (multiplicity = 1)
    Translational S        37.269 [cal/(mol K)]      155.933 [J/(mol K)]       0.05939180 [mEh/K] (mol. weight = 43.9721 [u], P = 101325.00 [Pa])
    Rotational S           12.948 [cal/(mol K)]       54.176 [J/(mol K)]       0.02063450 [mEh/K] (symmetry no. = 1)
    Vibrational S           0.022 [cal/(mol K)]        0.091 [J/(mol K)]       0.00003454 [mEh/K]
  Total S                  50.239 [cal/(mol K)]      210.200 [J/(mol K)]       0.08006084 [mEh/K]
  Correction S              0.000 [cal/(mol K)]        0.000 [J/(mol K)]       0.00000000 [mEh/K]

  Constant volume heat capacity, Cv
    Electronic Cv           0.000 [cal/(mol K)]        0.000 [J/(mol K)]       0.00000000 [mEh/K]
    Translational Cv        2.981 [cal/(mol K)]       12.472 [J/(mol K)]       0.00475022 [mEh/K]
    Rotational Cv           1.987 [cal/(mol K)]        8.314 [J/(mol K)]       0.00316681 [mEh/K]
    Vibrational Cv          0.123 [cal/(mol K)]        0.515 [J/(mol K)]       0.00019625 [mEh/K]
  Total Cv                  5.091 [cal/(mol K)]       21.301 [J/(mol K)]       0.00811328 [mEh/K]
  Correction Cv             0.000 [cal/(mol K)]        0.000 [J/(mol K)]       0.00000000 [mEh/K]

  Constant pressure heat capacity, Cp
    Electronic Cp           0.000 [cal/(mol K)]        0.000 [J/(mol K)]       0.00000000 [mEh/K]
    Translational Cp        4.968 [cal/(mol K)]       20.786 [J/(mol K)]       0.00791703 [mEh/K]
    Rotational Cp           1.987 [cal/(mol K)]        8.314 [J/(mol K)]       0.00316681 [mEh/K]
    Vibrational Cp          0.123 [cal/(mol K)]        0.515 [J/(mol K)]       0.00019625 [mEh/K]
  Total Cp                  7.078 [cal/(mol K)]       29.616 [J/(mol K)]       0.01128009 [mEh/K]
  Correction Cp             0.000 [cal/(mol K)]        0.000 [J/(mol K)]       0.00000000 [mEh/K]

  ==> Thermochemistry Energy Analysis <==

  Raw electronic energy, E0
  Total E0, Electronic energy at well bottom at 0 [K]                 -436.22263137 [Eh]

  Zero-point energy, ZPE_vib = Sum_i nu_i / 2
    Electronic ZPE          0.000 [kcal/mol]        0.000 [kJ/mol]       0.00000000 [Eh]
    Translational ZPE       0.000 [kcal/mol]        0.000 [kJ/mol]       0.00000000 [Eh]
    Rotational ZPE          0.000 [kcal/mol]        0.000 [kJ/mol]       0.00000000 [Eh]
    Vibrational ZPE         1.937 [kcal/mol]        8.106 [kJ/mol]       0.00308738 [Eh]         677.602 [cm^-1]
  Correction ZPE            1.937 [kcal/mol]        8.106 [kJ/mol]       0.00308738 [Eh]         677.602 [cm^-1]
  Total ZPE, Electronic energy at 0 [K]                               -436.21954399 [Eh]

  Thermal Energy, E (includes ZPE)
    Electronic E            0.000 [kcal/mol]        0.000 [kJ/mol]       0.00000000 [Eh]
    Translational E         0.889 [kcal/mol]        3.718 [kJ/mol]       0.00141628 [Eh]
    Rotational E            0.592 [kcal/mol]        2.479 [kJ/mol]       0.00094418 [Eh]
    Vibrational E           1.943 [kcal/mol]        8.129 [kJ/mol]       0.00309632 [Eh]
  Correction E              3.424 [kcal/mol]       14.327 [kJ/mol]       0.00545678 [Eh]
  Total E, Electronic energy at  298.15 [K]                           -436.21717460 [Eh]

  Enthalpy, H_trans = E_trans + k_B * T
    Electronic H            0.000 [kcal/mol]        0.000 [kJ/mol]       0.00000000 [Eh]
    Translational H         1.481 [kcal/mol]        6.197 [kJ/mol]       0.00236046 [Eh]
    Rotational H            0.592 [kcal/mol]        2.479 [kJ/mol]       0.00094418 [Eh]
    Vibrational H           1.943 [kcal/mol]        8.129 [kJ/mol]       0.00309632 [Eh]
  Correction H              4.017 [kcal/mol]       16.806 [kJ/mol]       0.00640096 [Eh]
  Total H, Enthalpy at  298.15 [K]                                    -436.21623041 [Eh]

  Gibbs free energy, G = H - T * S
    Electronic G            0.000 [kcal/mol]        0.000 [kJ/mol]       0.00000000 [Eh]
    Translational G        -9.631 [kcal/mol]      -40.294 [kJ/mol]      -0.01534720 [Eh]
    Rotational G           -3.268 [kcal/mol]      -13.674 [kJ/mol]      -0.00520799 [Eh]
    Vibrational G           1.937 [kcal/mol]        8.102 [kJ/mol]       0.00308602 [Eh]
  Correction G            -10.962 [kcal/mol]      -45.865 [kJ/mol]      -0.01746918 [Eh]
  Total G, Free enthalpy at  298.15 [K]                               -436.24010055 [Eh]

    Psi4 stopped on: Tuesday, 27 April 2021 05:11PM
    Psi4 wall time for execution: 0:00:43.63

*** Psi4 exiting successfully. Buy a developer a beer!
