
    -----------------------------------------------------------------------
          Psi4: An Open-Source Ab Initio Electronic Structure Package
                               Psi4 1.3.2 release

                         Git: Rev {HEAD} ecbda83 


    R. M. Parrish, L. A. Burns, D. G. A. Smith, A. C. Simmonett,
    A. E. DePrince III, E. G. Hohenstein, U. Bozkaya, A. Yu. Sokolov,
    R. Di Remigio, R. M. Richard, J. F. Gonthier, A. M. James,
    H. R. McAlexander, A. Kumar, M. Saitow, X. Wang, B. P. Pritchard,
    P. Verma, H. F. Schaefer III, K. Patkowski, R. A. King, E. F. Valeev,
    F. A. Evangelista, J. M. Turney, T. D. Crawford, and C. D. Sherrill,
    J. Chem. Theory Comput. 13(7) pp 3185--3197 (2017).
    (doi: 10.1021/acs.jctc.7b00174)


                         Additional Contributions by
    P. Kraus, H. Kruse, M. H. Lechner, M. C. Schieber, R. A. Shaw,
    A. Alenaizan, R. Galvelis, Z. L. Glick, S. Lehtola, and J. P. Misiewicz

    -----------------------------------------------------------------------


    Psi4 started on: Wednesday, 28 April 2021 08:53AM

    Process ID: 203008
    Host:       bp1-compute00105.data.bp.acrc.priv
    PSIDATADIR: /work/zw18965/.conda/envs/p4env/share/psi4
    Memory:     500.0 MiB
    Threads:    24
    
  ==> Input File <==

--------------------------------------------------------------------------
memory 144 GB

molecule {
0 1
O 0.0000000000 0.0000000000 0.0000000000
C 0.0000000000 0.0000000000 1.2066000000
H 0.9369544103 0.0000000000 1.7870836544
H -0.9369544103 0.0000000000 1.7870836544
}

set dynamic_level 1
set basis cc-pV(Q+d)Z
 
optimize("wB97M-V")
frequencies("wB97M-V")
--------------------------------------------------------------------------

  Memory set to 134.110 GiB by Python driver.
gradient() will perform gradient computation by finite difference of analytic energies.

         ----------------------------------------------------------
                                   FINDIF
                     R. A. King and Jonathon Misiewicz
         ---------------------------------------------------------

  Using finite-differences of energies to determine gradients.
    Generating geometries for use with 3-point formula.
    Displacement size will be 5.00e-03.
    Number of atoms is 4.
    Number of symmetric SALCs is 3.
    Translations projected? 1. Rotations projected? 1.
    Number of geometries (including reference) is 7.

  //>>>>>>>>>>>>>>>>>>>>>>>>>>>>>>>>>>>//
  //    Loading displacement 1 of 7    //
  //<<<<<<<<<<<<<<<<<<<<<<<<<<<<<<<<<<<//

*** tstart() called on bp1-compute00105.data.bp.acrc.priv
*** at Wed Apr 28 08:53:06 2021

   => Loading Basis Set <=

    Name: CC-PV(Q+D)Z
    Role: ORBITAL
    Keyword: BASIS
    atoms 1   entry O          line   349 file /work/zw18965/.conda/envs/p4env/share/psi4/basis/cc-pv_qpd_z.gbs 
    atoms 2   entry C          line   249 file /work/zw18965/.conda/envs/p4env/share/psi4/basis/cc-pv_qpd_z.gbs 
    atoms 3-4 entry H          line    32 file /work/zw18965/.conda/envs/p4env/share/psi4/basis/cc-pv_qpd_z.gbs 


         ---------------------------------------------------------
                                   SCF
               by Justin Turney, Rob Parrish, Andy Simmonett
                          and Daniel G. A. Smith
                              RKS Reference
                       24 Threads, 137329 MiB Core
         ---------------------------------------------------------

  ==> Geometry <==

    Molecular point group: c2v
    Full point group: C2v

    Geometry (in Angstrom), charge = 0, multiplicity = 1:

       Center              X                  Y                   Z               Mass       
    ------------   -----------------  -----------------  -----------------  -----------------
         O            0.000000000000    -0.000000000000    -0.602499002387    15.994914619570
         C            0.000000000000    -0.000000000000     0.604100997613    12.000000000000
         H            0.936954410300     0.000000000000     1.184584652013     1.007825032230
         H           -0.936954410300    -0.000000000000     1.184584652013     1.007825032230

  Running in c2v symmetry.

  Rotational constants: A =      9.52674  B =      1.29535  C =      1.14030 [cm^-1]
  Rotational constants: A = 285604.56383  B =  38833.68662  C =  34185.48249 [MHz]
  Nuclear repulsion =   31.291072839251608

  Charge       = 0
  Multiplicity = 1
  Electrons    = 16
  Nalpha       = 8
  Nbeta        = 8

  ==> Algorithm <==

  SCF Algorithm Type is DF.
  DIIS enabled.
  MOM disabled.
  Fractional occupation disabled.
  Guess Type is SAD.
  Energy threshold   = 1.00e-08
  Density threshold  = 1.00e-08
  Integral threshold = 0.00e+00

  ==> Primary Basis <==

  Basis Set: CC-PV(Q+D)Z
    Blend: CC-PV(Q+D)Z
    Number of shells: 50
    Number of basis function: 170
    Number of Cartesian functions: 210
    Spherical Harmonics?: true
    Max angular momentum: 4

  ==> DFT Potential <==

   => Composite Functional: WB97M-V <= 

    wB97M-V Hyb-GGA Exchange-Correlation Functional

    N. Mardirossian and M. Head-Gordon, J. Chem. Phys. 144, 214110 (2016)

    Deriv               =              1
    GGA                 =           TRUE
    Meta                =           TRUE

    Exchange Hybrid     =           TRUE
    MP2 Hybrid          =          FALSE

   => Exchange-Correlation Functionals <=

    1.0000   wB97M-V exchange-correlation functional

   => Exact (HF) Exchange <=

    0.8500            HF,LR [omega = 0.3000]
    0.1500               HF 

   => VV10 Non-Local Parameters <=

    VV10 B              =     6.0000E+00
    VV10 C              =     1.0000E-02

   => Molecular Quadrature <=

    Radial Scheme          =       TREUTLER
    Pruning Scheme         =           FLAT
    Nuclear Scheme         =       TREUTLER

    BS radius alpha        =              1
    Pruning alpha          =              1
    Radial Points          =             75
    Spherical Points       =            302
    Total Points           =          89185
    Total Blocks           =            745
    Max Points             =            256
    Max Functions          =            170

   => Loading Basis Set <=

    Name: (CC-PV(Q+D)Z AUX)
    Role: JKFIT
    Keyword: DF_BASIS_SCF
    atoms 1   entry O          line   253 file /work/zw18965/.conda/envs/p4env/share/psi4/basis/cc-pvqz-jkfit.gbs 
    atoms 2   entry C          line   137 file /work/zw18965/.conda/envs/p4env/share/psi4/basis/cc-pvqz-jkfit.gbs 
    atoms 3-4 entry H          line    51 file /work/zw18965/.conda/envs/p4env/share/psi4/basis/cc-pvqz-jkfit.gbs 

  ==> Pre-Iterations <==

   -------------------------------------------------------
    Irrep   Nso     Nmo     Nalpha   Nbeta   Ndocc  Nsocc
   -------------------------------------------------------
     A1        64      64       0       0       0       0
     A2        24      24       0       0       0       0
     B1        46      46       0       0       0       0
     B2        36      36       0       0       0       0
   -------------------------------------------------------
    Total     170     170       8       8       8       0
   -------------------------------------------------------

  ==> Integral Setup <==

  ==> DiskDFJK: Density-Fitted J/K Matrices <==

    J tasked:                  Yes
    K tasked:                  Yes
    wK tasked:                 Yes
    Omega:               3.000E-01
    OpenMP threads:             24
    Integrals threads:          24
    Memory [MiB]:           102039
    Algorithm:                Core
    Integral Cache:           NONE
    Schwarz Cutoff:          1E-12
    Fitting Condition:       1E-10

   => Auxiliary Basis Set <=

  Basis Set: (CC-PV(Q+D)Z AUX)
    Blend: CC-PVQZ-JKFIT
    Number of shells: 82
    Number of basis function: 314
    Number of Cartesian functions: 416
    Spherical Harmonics?: true
    Max angular momentum: 5

  Cached 100.0% of DFT collocation blocks in 0.934 [GiB].

  Minimum eigenvalue in the overlap matrix is 2.4313948767E-04.
  Using Symmetric Orthogonalization.

  SCF Guess: Superposition of Atomic Densities via on-the-fly atomic UHF.

  ==> Iterations <==

                           Total Energy        Delta E     RMS |[F,P]|

   @DF-RKS iter SAD:  -113.86332376153152   -1.13863e+02   0.00000e+00 
   @DF-RKS iter   1:  -114.42960223988251   -5.66278e-01   5.19724e-03 DIIS
   @DF-RKS iter   2:  -114.39619942136353    3.34028e-02   6.53273e-03 DIIS
   @DF-RKS iter   3:  -114.51115524998967   -1.14956e-01   6.48824e-04 DIIS
   @DF-RKS iter   4:  -114.51256505867354   -1.40981e-03   1.69181e-04 DIIS
   @DF-RKS iter   5:  -114.51266795676989   -1.02898e-04   2.26581e-05 DIIS
   @DF-RKS iter   6:  -114.51267082103494   -2.86427e-06   4.64428e-06 DIIS
   @DF-RKS iter   7:  -114.51267103469932   -2.13664e-07   8.55447e-07 DIIS
   @DF-RKS iter   8:  -114.51267104211435   -7.41503e-09   2.35837e-07 DIIS
   @DF-RKS iter   9:  -114.51267104242233   -3.07978e-10   2.17360e-08 DIIS
   @DF-RKS iter  10:  -114.51267104242811   -5.78382e-12   6.41404e-09 DIIS
  Energy and wave function converged.


  ==> Post-Iterations <==

    Orbital Energies [Eh]
    ---------------------

    Doubly Occupied:                                                      

       1A1   -19.350480     2A1   -10.442584     3A1    -1.191400  
       4A1    -0.755824     1B1    -0.609730     5A1    -0.564935  
       1B2    -0.508797     2B1    -0.377122  

    Virtual:                                                              

       2B2     0.038337     6A1     0.088095     3B1     0.141996  
       7A1     0.173999     3B2     0.268393     8A1     0.294851  
       4B1     0.302604     9A1     0.388585    10A1     0.418834  
       5B1     0.442863     1A2     0.472826    11A1     0.523008  
       4B2     0.569682     6B1     0.608145     5B2     0.656995  
      12A1     0.671924     7B1     0.739626     2A2     0.794147  
       6B2     0.820816    13A1     0.849527    14A1     0.919482  
       8B1     0.926488     9B1     1.013481    15A1     1.030874  
      16A1     1.107906    17A1     1.206631     7B2     1.321612  
      18A1     1.336594     3A2     1.368660    10B1     1.409398  
       8B2     1.478970    19A1     1.488640    11B1     1.583364  
      12B1     1.640046     4A2     1.709182    20A1     1.765509  
      21A1     1.849211     9B2     1.876211    10B2     1.891692  
      13B1     1.905341     5A2     1.949446    22A1     1.953998  
      14B1     2.104155    11B2     2.157709    23A1     2.180306  
       6A2     2.216119    15B1     2.287186    12B2     2.412424  
      24A1     2.420925    25A1     2.470999    16B1     2.478701  
      26A1     2.588819     7A2     2.625956    17B1     2.658233  
      13B2     2.710755    14B2     2.855547    27A1     2.890513  
      18B1     2.985559    15B2     3.002382    28A1     3.207135  
      19B1     3.236694    29A1     3.333356     8A2     3.343997  
      20B1     3.414754    21B1     3.456001    30A1     3.469010  
      16B2     3.492344    31A1     3.645783    32A1     3.749476  
      22B1     3.797355     9A2     3.835275    17B2     4.059713  
      10A2     4.093817    33A1     4.095478    18B2     4.268653  
      34A1     4.303868    35A1     4.414373    23B1     4.467603  
      36A1     4.670686    24B1     4.738009    37A1     5.091275  
      25B1     5.101625    19B2     5.194038    11A2     5.234757  
      12A2     5.357362    20B2     5.427361    38A1     5.525621  
      21B2     5.674547    13A2     5.680470    26B1     5.792773  
      27B1     5.824488    28B1     5.922521    39A1     5.932300  
      22B2     5.959311    29B1     6.027918    14A2     6.048952  
      23B2     6.081295    40A1     6.139819    41A1     6.255967  
      42A1     6.378649    30B1     6.402345    24B2     6.421866  
      43A1     6.532734    15A2     6.681738    31B1     6.758714  
      25B2     7.090369    44A1     7.183646    45A1     7.313395  
      26B2     7.318117    32B1     7.377482    16A2     7.434545  
      46A1     7.512749    27B2     7.554446    17A2     7.558010  
      47A1     7.701279    33B1     7.706842    48A1     7.941605  
      34B1     7.953057    49A1     8.084362    28B2     8.138138  
      35B1     8.148503    18A2     8.162509    19A2     8.351303  
      50A1     8.450556    29B2     8.469192    36B1     8.478568  
      51A1     8.893332    37B1     8.905552    20A2     8.968379  
      52A1     9.026499    30B2     9.152743    38B1     9.222553  
      53A1     9.406849    21A2     9.655576    54A1     9.703635  
      31B2     9.754161    39B1     9.811545    32B2    10.069305  
      55A1    10.073477    40B1    10.194074    22A2    10.221693  
      33B2    10.456824    41B1    10.516122    42B1    10.773319  
      56A1    10.829713    57A1    11.043082    34B2    11.130528  
      43B1    11.153692    58A1    11.346596    23A2    11.515613  
      59A1    11.713846    35B2    11.887472    44B1    11.929864  
      24A2    12.248130    45B1    12.355911    60A1    12.371205  
      61A1    12.748460    36B2    13.304014    46B1    13.808880  
      62A1    14.018174    63A1    24.831215    64A1    41.619609  

    Final Occupation by Irrep:
             A1    A2    B1    B2 
    DOCC [     5,    0,    2,    1 ]

  @DF-RKS Final Energy:  -114.51267104242811

   => Energetics <=

    Nuclear Repulsion Energy =             31.2910728392516084
    One-Electron Energy =                -217.4623327272924200
    Two-Electron Energy =                  82.0741754431470270
    DFT Exchange-Correlation Energy =     -10.4820840728145033
    Empirical Dispersion Energy =           0.0000000000000000
    VV10 Nonlocal Energy =                  0.0664974752801805
    Total Energy =                       -114.5126710424281100

Computation Completed


Properties will be evaluated at   0.000000,   0.000000,   0.000000 [a0]

Properties computed using the SCF density matrix

  Nuclear Dipole Moment: [e a0]
     X:     0.0000      Y:     0.0000      Z:     2.2181

  Electronic Dipole Moment: [e a0]
     X:     0.0000      Y:     0.0000      Z:    -1.2745

  Dipole Moment: [e a0]
     X:     0.0000      Y:     0.0000      Z:     0.9436     Total:     0.9436

  Dipole Moment: [D]
     X:     0.0000      Y:     0.0000      Z:     2.3984     Total:     2.3984


*** tstop() called on bp1-compute00105.data.bp.acrc.priv at Wed Apr 28 08:53:12 2021
Module time:
	user time   =     119.80 seconds =       2.00 minutes
	system time =       6.70 seconds =       0.11 minutes
	total time  =          6 seconds =       0.10 minutes
Total time:
	user time   =     119.80 seconds =       2.00 minutes
	system time =       6.70 seconds =       0.11 minutes
	total time  =          6 seconds =       0.10 minutes

  //>>>>>>>>>>>>>>>>>>>>>>>>>>>>>>>>>>>//
  //    Loading displacement 2 of 7    //
  //<<<<<<<<<<<<<<<<<<<<<<<<<<<<<<<<<<<//

*** tstart() called on bp1-compute00105.data.bp.acrc.priv
*** at Wed Apr 28 08:53:12 2021

   => Loading Basis Set <=

    Name: CC-PV(Q+D)Z
    Role: ORBITAL
    Keyword: BASIS
    atoms 1   entry O          line   349 file /work/zw18965/.conda/envs/p4env/share/psi4/basis/cc-pv_qpd_z.gbs 
    atoms 2   entry C          line   249 file /work/zw18965/.conda/envs/p4env/share/psi4/basis/cc-pv_qpd_z.gbs 
    atoms 3-4 entry H          line    32 file /work/zw18965/.conda/envs/p4env/share/psi4/basis/cc-pv_qpd_z.gbs 


         ---------------------------------------------------------
                                   SCF
               by Justin Turney, Rob Parrish, Andy Simmonett
                          and Daniel G. A. Smith
                              RKS Reference
                       24 Threads, 137329 MiB Core
         ---------------------------------------------------------

  ==> Geometry <==

    Molecular point group: c2v
    Full point group: C2v

    Geometry (in Angstrom), charge = 0, multiplicity = 1:

       Center              X                  Y                   Z               Mass       
    ------------   -----------------  -----------------  -----------------  -----------------
         O            0.000000000000    -0.000000000000    -0.602951118217    15.994914619570
         C            0.000000000000    -0.000000000000     0.604616960417    12.000000000000
         H            0.936954410300     0.000000000000     1.185100614817     1.007825032230
         H           -0.936954410300    -0.000000000000     1.185100614817     1.007825032230

  Running in c2v symmetry.

  Rotational constants: A =      9.52674  B =      1.29350  C =      1.13887 [cm^-1]
  Rotational constants: A = 285604.56383  B =  38778.06810  C =  34142.37427 [MHz]
  Nuclear repulsion =   31.272414220564698

  Charge       = 0
  Multiplicity = 1
  Electrons    = 16
  Nalpha       = 8
  Nbeta        = 8

  ==> Algorithm <==

  SCF Algorithm Type is DF.
  DIIS enabled.
  MOM disabled.
  Fractional occupation disabled.
  Guess Type is SAD.
  Energy threshold   = 1.00e-08
  Density threshold  = 1.00e-08
  Integral threshold = 0.00e+00

  ==> Primary Basis <==

  Basis Set: CC-PV(Q+D)Z
    Blend: CC-PV(Q+D)Z
    Number of shells: 50
    Number of basis function: 170
    Number of Cartesian functions: 210
    Spherical Harmonics?: true
    Max angular momentum: 4

  ==> DFT Potential <==

   => Composite Functional: WB97M-V <= 

    wB97M-V Hyb-GGA Exchange-Correlation Functional

    N. Mardirossian and M. Head-Gordon, J. Chem. Phys. 144, 214110 (2016)

    Deriv               =              1
    GGA                 =           TRUE
    Meta                =           TRUE

    Exchange Hybrid     =           TRUE
    MP2 Hybrid          =          FALSE

   => Exchange-Correlation Functionals <=

    1.0000   wB97M-V exchange-correlation functional

   => Exact (HF) Exchange <=

    0.8500            HF,LR [omega = 0.3000]
    0.1500               HF 

   => VV10 Non-Local Parameters <=

    VV10 B              =     6.0000E+00
    VV10 C              =     1.0000E-02

   => Molecular Quadrature <=

    Radial Scheme          =       TREUTLER
    Pruning Scheme         =           FLAT
    Nuclear Scheme         =       TREUTLER

    BS radius alpha        =              1
    Pruning alpha          =              1
    Radial Points          =             75
    Spherical Points       =            302
    Total Points           =          89185
    Total Blocks           =            748
    Max Points             =            256
    Max Functions          =            170

   => Loading Basis Set <=

    Name: (CC-PV(Q+D)Z AUX)
    Role: JKFIT
    Keyword: DF_BASIS_SCF
    atoms 1   entry O          line   253 file /work/zw18965/.conda/envs/p4env/share/psi4/basis/cc-pvqz-jkfit.gbs 
    atoms 2   entry C          line   137 file /work/zw18965/.conda/envs/p4env/share/psi4/basis/cc-pvqz-jkfit.gbs 
    atoms 3-4 entry H          line    51 file /work/zw18965/.conda/envs/p4env/share/psi4/basis/cc-pvqz-jkfit.gbs 

  ==> Pre-Iterations <==

   -------------------------------------------------------
    Irrep   Nso     Nmo     Nalpha   Nbeta   Ndocc  Nsocc
   -------------------------------------------------------
     A1        64      64       0       0       0       0
     A2        24      24       0       0       0       0
     B1        46      46       0       0       0       0
     B2        36      36       0       0       0       0
   -------------------------------------------------------
    Total     170     170       8       8       8       0
   -------------------------------------------------------

  ==> Integral Setup <==

  ==> DiskDFJK: Density-Fitted J/K Matrices <==

    J tasked:                  Yes
    K tasked:                  Yes
    wK tasked:                 Yes
    Omega:               3.000E-01
    OpenMP threads:             24
    Integrals threads:          24
    Memory [MiB]:           102040
    Algorithm:                Core
    Integral Cache:           NONE
    Schwarz Cutoff:          1E-12
    Fitting Condition:       1E-10

   => Auxiliary Basis Set <=

  Basis Set: (CC-PV(Q+D)Z AUX)
    Blend: CC-PVQZ-JKFIT
    Number of shells: 82
    Number of basis function: 314
    Number of Cartesian functions: 416
    Spherical Harmonics?: true
    Max angular momentum: 5

  Cached 100.0% of DFT collocation blocks in 0.934 [GiB].

  Minimum eigenvalue in the overlap matrix is 2.4323417117E-04.
  Using Symmetric Orthogonalization.

  SCF Guess: Superposition of Atomic Densities via on-the-fly atomic UHF.

  ==> Iterations <==

                           Total Energy        Delta E     RMS |[F,P]|

   @DF-RKS iter SAD:  -113.86161832499963   -1.13862e+02   0.00000e+00 
   @DF-RKS iter   1:  -114.42961873864850   -5.68000e-01   5.19475e-03 DIIS
   @DF-RKS iter   2:  -114.39591655932531    3.37022e-02   6.53853e-03 DIIS
   @DF-RKS iter   3:  -114.51112438122129   -1.15208e-01   6.48607e-04 DIIS
   @DF-RKS iter   4:  -114.51253419560604   -1.40981e-03   1.69286e-04 DIIS
   @DF-RKS iter   5:  -114.51263722475369   -1.03029e-04   2.27200e-05 DIIS
   @DF-RKS iter   6:  -114.51264010234473   -2.87759e-06   4.66271e-06 DIIS
   @DF-RKS iter   7:  -114.51264031752243   -2.15178e-07   8.63064e-07 DIIS
   @DF-RKS iter   8:  -114.51264032504835   -7.52593e-09   2.38184e-07 DIIS
   @DF-RKS iter   9:  -114.51264032536247   -3.14117e-10   2.18729e-08 DIIS
   @DF-RKS iter  10:  -114.51264032536839   -5.92593e-12   6.45224e-09 DIIS
  Energy and wave function converged.


  ==> Post-Iterations <==

    Orbital Energies [Eh]
    ---------------------

    Doubly Occupied:                                                      

       1A1   -19.350543     2A1   -10.442753     3A1    -1.190874  
       4A1    -0.755973     1B1    -0.609571     5A1    -0.564781  
       1B2    -0.508471     2B1    -0.377199  

    Virtual:                                                              

       2B2     0.038083     6A1     0.088051     3B1     0.141935  
       7A1     0.173959     3B2     0.268403     8A1     0.294836  
       4B1     0.302637     9A1     0.388535    10A1     0.418868  
       5B1     0.442700     1A2     0.472805    11A1     0.522458  
       4B2     0.569743     6B1     0.608177     5B2     0.656854  
      12A1     0.671933     7B1     0.739637     2A2     0.794137  
       6B2     0.820756    13A1     0.849120    14A1     0.919063  
       8B1     0.926278     9B1     1.013408    15A1     1.030815  
      16A1     1.107859    17A1     1.206549     7B2     1.321728  
      18A1     1.336809     3A2     1.368384    10B1     1.409323  
       8B2     1.478841    19A1     1.488469    11B1     1.583349  
      12B1     1.640380     4A2     1.709186    20A1     1.765374  
      21A1     1.848958     9B2     1.876044    10B2     1.891711  
      13B1     1.905164     5A2     1.949411    22A1     1.954090  
      14B1     2.103734    11B2     2.157431    23A1     2.180066  
       6A2     2.215989    15B1     2.287055    12B2     2.412372  
      24A1     2.420292    25A1     2.470824    16B1     2.478636  
      26A1     2.588421     7A2     2.625557    17B1     2.657999  
      13B2     2.710420    14B2     2.855268    27A1     2.890398  
      18B1     2.985503    15B2     3.002361    28A1     3.207526  
      19B1     3.236050    29A1     3.332400     8A2     3.343770  
      20B1     3.414546    21B1     3.455540    30A1     3.468923  
      16B2     3.491701    31A1     3.645955    32A1     3.749198  
      22B1     3.797352     9A2     3.834658    17B2     4.059751  
      10A2     4.093355    33A1     4.095133    18B2     4.268209  
      34A1     4.302268    35A1     4.414414    23B1     4.467693  
      36A1     4.669069    24B1     4.737164    37A1     5.091217  
      25B1     5.101215    19B2     5.193358    11A2     5.234723  
      12A2     5.357128    20B2     5.427107    38A1     5.524456  
      21B2     5.674522    13A2     5.679618    26B1     5.792758  
      27B1     5.823447    28B1     5.922507    39A1     5.932002  
      22B2     5.959195    29B1     6.027915    14A2     6.048513  
      23B2     6.080348    40A1     6.139255    41A1     6.254757  
      42A1     6.378199    30B1     6.402181    24B2     6.421524  
      43A1     6.531789    15A2     6.681495    31B1     6.756793  
      25B2     7.090081    44A1     7.182189    45A1     7.312141  
      26B2     7.316444    32B1     7.376570    16A2     7.434401  
      46A1     7.512404    27B2     7.553123    17A2     7.557675  
      47A1     7.701529    33B1     7.706330    48A1     7.941874  
      34B1     7.953042    49A1     8.084268    28B2     8.138026  
      35B1     8.148400    18A2     8.161871    19A2     8.351129  
      50A1     8.450414    29B2     8.469107    36B1     8.477694  
      51A1     8.893287    37B1     8.904749    20A2     8.968466  
      52A1     9.026153    30B2     9.151984    38B1     9.222083  
      53A1     9.404814    21A2     9.655137    54A1     9.702613  
      31B2     9.752952    39B1     9.810581    32B2    10.068523  
      55A1    10.071292    40B1    10.193477    22A2    10.218518  
      33B2    10.454744    41B1    10.514128    42B1    10.772787  
      56A1    10.828225    57A1    11.041354    34B2    11.130260  
      43B1    11.153388    58A1    11.345798    23A2    11.514835  
      59A1    11.712378    35B2    11.886987    44B1    11.929451  
      24A2    12.247153    45B1    12.353664    60A1    12.369472  
      61A1    12.745541    36B2    13.299283    46B1    13.804058  
      62A1    14.014013    63A1    24.823655    64A1    41.614764  

    Final Occupation by Irrep:
             A1    A2    B1    B2 
    DOCC [     5,    0,    2,    1 ]

  @DF-RKS Final Energy:  -114.51264032536839

   => Energetics <=

    Nuclear Repulsion Energy =             31.2724142205646984
    One-Electron Energy =                -217.4267733238438041
    Two-Electron Energy =                  82.0566167895313612
    DFT Exchange-Correlation Energy =     -10.4813955828103662
    Empirical Dispersion Energy =           0.0000000000000000
    VV10 Nonlocal Energy =                  0.0664975711897036
    Total Energy =                       -114.5126403253683947

Computation Completed


Properties will be evaluated at   0.000000,   0.000000,   0.000000 [a0]

Properties computed using the SCF density matrix

  Nuclear Dipole Moment: [e a0]
     X:     0.0000      Y:     0.0000      Z:     2.2191

  Electronic Dipole Moment: [e a0]
     X:     0.0000      Y:     0.0000      Z:    -1.2738

  Dipole Moment: [e a0]
     X:     0.0000      Y:     0.0000      Z:     0.9453     Total:     0.9453

  Dipole Moment: [D]
     X:     0.0000      Y:     0.0000      Z:     2.4027     Total:     2.4027


*** tstop() called on bp1-compute00105.data.bp.acrc.priv at Wed Apr 28 08:53:18 2021
Module time:
	user time   =     120.70 seconds =       2.01 minutes
	system time =       5.29 seconds =       0.09 minutes
	total time  =          6 seconds =       0.10 minutes
Total time:
	user time   =     240.68 seconds =       4.01 minutes
	system time =      12.00 seconds =       0.20 minutes
	total time  =         12 seconds =       0.20 minutes

  //>>>>>>>>>>>>>>>>>>>>>>>>>>>>>>>>>>>//
  //    Loading displacement 3 of 7    //
  //<<<<<<<<<<<<<<<<<<<<<<<<<<<<<<<<<<<//

*** tstart() called on bp1-compute00105.data.bp.acrc.priv
*** at Wed Apr 28 08:53:18 2021

   => Loading Basis Set <=

    Name: CC-PV(Q+D)Z
    Role: ORBITAL
    Keyword: BASIS
    atoms 1   entry O          line   349 file /work/zw18965/.conda/envs/p4env/share/psi4/basis/cc-pv_qpd_z.gbs 
    atoms 2   entry C          line   249 file /work/zw18965/.conda/envs/p4env/share/psi4/basis/cc-pv_qpd_z.gbs 
    atoms 3-4 entry H          line    32 file /work/zw18965/.conda/envs/p4env/share/psi4/basis/cc-pv_qpd_z.gbs 


         ---------------------------------------------------------
                                   SCF
               by Justin Turney, Rob Parrish, Andy Simmonett
                          and Daniel G. A. Smith
                              RKS Reference
                       24 Threads, 137329 MiB Core
         ---------------------------------------------------------

  ==> Geometry <==

    Molecular point group: c2v
    Full point group: C2v

    Geometry (in Angstrom), charge = 0, multiplicity = 1:

       Center              X                  Y                   Z               Mass       
    ------------   -----------------  -----------------  -----------------  -----------------
         O            0.000000000000    -0.000000000000    -0.602046886557    15.994914619570
         C            0.000000000000    -0.000000000000     0.603585034810    12.000000000000
         H            0.936954410300     0.000000000000     1.184068689210     1.007825032230
         H           -0.936954410300    -0.000000000000     1.184068689210     1.007825032230

  Running in c2v symmetry.

  Rotational constants: A =      9.52674  B =      1.29721  C =      1.14175 [cm^-1]
  Rotational constants: A = 285604.56383  B =  38889.42301  C =  34228.66724 [MHz]
  Nuclear repulsion =   31.309759867027449

  Charge       = 0
  Multiplicity = 1
  Electrons    = 16
  Nalpha       = 8
  Nbeta        = 8

  ==> Algorithm <==

  SCF Algorithm Type is DF.
  DIIS enabled.
  MOM disabled.
  Fractional occupation disabled.
  Guess Type is SAD.
  Energy threshold   = 1.00e-08
  Density threshold  = 1.00e-08
  Integral threshold = 0.00e+00

  ==> Primary Basis <==

  Basis Set: CC-PV(Q+D)Z
    Blend: CC-PV(Q+D)Z
    Number of shells: 50
    Number of basis function: 170
    Number of Cartesian functions: 210
    Spherical Harmonics?: true
    Max angular momentum: 4

  ==> DFT Potential <==

   => Composite Functional: WB97M-V <= 

    wB97M-V Hyb-GGA Exchange-Correlation Functional

    N. Mardirossian and M. Head-Gordon, J. Chem. Phys. 144, 214110 (2016)

    Deriv               =              1
    GGA                 =           TRUE
    Meta                =           TRUE

    Exchange Hybrid     =           TRUE
    MP2 Hybrid          =          FALSE

   => Exchange-Correlation Functionals <=

    1.0000   wB97M-V exchange-correlation functional

   => Exact (HF) Exchange <=

    0.8500            HF,LR [omega = 0.3000]
    0.1500               HF 

   => VV10 Non-Local Parameters <=

    VV10 B              =     6.0000E+00
    VV10 C              =     1.0000E-02

   => Molecular Quadrature <=

    Radial Scheme          =       TREUTLER
    Pruning Scheme         =           FLAT
    Nuclear Scheme         =       TREUTLER

    BS radius alpha        =              1
    Pruning alpha          =              1
    Radial Points          =             75
    Spherical Points       =            302
    Total Points           =          89185
    Total Blocks           =            746
    Max Points             =            254
    Max Functions          =            170

   => Loading Basis Set <=

    Name: (CC-PV(Q+D)Z AUX)
    Role: JKFIT
    Keyword: DF_BASIS_SCF
    atoms 1   entry O          line   253 file /work/zw18965/.conda/envs/p4env/share/psi4/basis/cc-pvqz-jkfit.gbs 
    atoms 2   entry C          line   137 file /work/zw18965/.conda/envs/p4env/share/psi4/basis/cc-pvqz-jkfit.gbs 
    atoms 3-4 entry H          line    51 file /work/zw18965/.conda/envs/p4env/share/psi4/basis/cc-pvqz-jkfit.gbs 

  ==> Pre-Iterations <==

   -------------------------------------------------------
    Irrep   Nso     Nmo     Nalpha   Nbeta   Ndocc  Nsocc
   -------------------------------------------------------
     A1        64      64       0       0       0       0
     A2        24      24       0       0       0       0
     B1        46      46       0       0       0       0
     B2        36      36       0       0       0       0
   -------------------------------------------------------
    Total     170     170       8       8       8       0
   -------------------------------------------------------

  ==> Integral Setup <==

  ==> DiskDFJK: Density-Fitted J/K Matrices <==

    J tasked:                  Yes
    K tasked:                  Yes
    wK tasked:                 Yes
    Omega:               3.000E-01
    OpenMP threads:             24
    Integrals threads:          24
    Memory [MiB]:           102040
    Algorithm:                Core
    Integral Cache:           NONE
    Schwarz Cutoff:          1E-12
    Fitting Condition:       1E-10

   => Auxiliary Basis Set <=

  Basis Set: (CC-PV(Q+D)Z AUX)
    Blend: CC-PVQZ-JKFIT
    Number of shells: 82
    Number of basis function: 314
    Number of Cartesian functions: 416
    Spherical Harmonics?: true
    Max angular momentum: 5

  Cached 100.0% of DFT collocation blocks in 0.934 [GiB].

  Minimum eigenvalue in the overlap matrix is 2.4304451092E-04.
  Using Symmetric Orthogonalization.

  SCF Guess: Superposition of Atomic Densities via on-the-fly atomic UHF.

  ==> Iterations <==

                           Total Energy        Delta E     RMS |[F,P]|

   @DF-RKS iter SAD:  -113.86503100833842   -1.13865e+02   0.00000e+00 
   @DF-RKS iter   1:  -114.42958203003954   -5.64551e-01   5.19976e-03 DIIS
   @DF-RKS iter   2:  -114.39647738350745    3.31046e-02   6.52696e-03 DIIS
   @DF-RKS iter   3:  -114.51118325617075   -1.14706e-01   6.49044e-04 DIIS
   @DF-RKS iter   4:  -114.51259306291091   -1.40981e-03   1.69077e-04 DIIS
   @DF-RKS iter   5:  -114.51269583123351   -1.02768e-04   2.25965e-05 DIIS
   @DF-RKS iter   6:  -114.51269868230025   -2.85107e-06   4.62601e-06 DIIS
   @DF-RKS iter   7:  -114.51269889447306   -2.12173e-07   8.47885e-07 DIIS
   @DF-RKS iter   8:  -114.51269890177883   -7.30577e-09   2.33495e-07 DIIS
   @DF-RKS iter   9:  -114.51269890208130   -3.02464e-10   2.15979e-08 DIIS
   @DF-RKS iter  10:  -114.51269890208681   -5.51381e-12   6.37514e-09 DIIS
  Energy and wave function converged.


  ==> Post-Iterations <==

    Orbital Energies [Eh]
    ---------------------

    Doubly Occupied:                                                      

       1A1   -19.350417     2A1   -10.442414     3A1    -1.191927  
       4A1    -0.755675     1B1    -0.609889     5A1    -0.565090  
       1B2    -0.509125     2B1    -0.377044  

    Virtual:                                                              

       2B2     0.038591     6A1     0.088139     3B1     0.142057  
       7A1     0.174038     3B2     0.268384     8A1     0.294866  
       4B1     0.302571     9A1     0.388636    10A1     0.418799  
       5B1     0.443027     1A2     0.472847    11A1     0.523557  
       4B2     0.569620     6B1     0.608112     5B2     0.657137  
      12A1     0.671916     7B1     0.739614     2A2     0.794158  
       6B2     0.820876    13A1     0.849929    14A1     0.919909  
       8B1     0.926697     9B1     1.013555    15A1     1.030933  
      16A1     1.107952    17A1     1.206714     7B2     1.321494  
      18A1     1.336379     3A2     1.368937    10B1     1.409472  
       8B2     1.479100    19A1     1.488812    11B1     1.583376  
      12B1     1.639714     4A2     1.709177    20A1     1.765640  
      21A1     1.849467     9B2     1.876378    10B2     1.891674  
      13B1     1.905517     5A2     1.949480    22A1     1.953908  
      14B1     2.104577    11B2     2.157989    23A1     2.180545  
       6A2     2.216250    15B1     2.287318    12B2     2.412476  
      24A1     2.421555    25A1     2.471173    16B1     2.478767  
      26A1     2.589218     7A2     2.626356    17B1     2.658467  
      13B2     2.711089    14B2     2.855826    27A1     2.890627  
      18B1     2.985616    15B2     3.002404    28A1     3.206744  
      19B1     3.237335    29A1     3.334314     8A2     3.344223  
      20B1     3.414960    21B1     3.456463    30A1     3.469096  
      16B2     3.492988    31A1     3.645609    32A1     3.749754  
      22B1     3.797358     9A2     3.835891    17B2     4.059661  
      10A2     4.094279    33A1     4.095822    18B2     4.269111  
      34A1     4.305463    35A1     4.414315    23B1     4.467513  
      36A1     4.672335    24B1     4.738856    37A1     5.091333  
      25B1     5.102037    19B2     5.194720    11A2     5.234791  
      12A2     5.357591    20B2     5.427615    38A1     5.526780  
      21B2     5.674574    13A2     5.681328    26B1     5.792780  
      27B1     5.825536    28B1     5.922536    39A1     5.932599  
      22B2     5.959430    29B1     6.027922    14A2     6.049393  
      23B2     6.082243    40A1     6.140384    41A1     6.257176  
      42A1     6.379101    30B1     6.402509    24B2     6.422208  
      43A1     6.533684    15A2     6.681980    31B1     6.760637  
      25B2     7.090650    44A1     7.185068    45A1     7.314681  
      26B2     7.319780    32B1     7.378394    16A2     7.434690  
      46A1     7.513100    27B2     7.555787    17A2     7.558345  
      47A1     7.701029    33B1     7.707355    48A1     7.941334  
      34B1     7.953075    49A1     8.084455    28B2     8.138250  
      35B1     8.148606    18A2     8.163149    19A2     8.351478  
      50A1     8.450699    29B2     8.469277    36B1     8.479443  
      51A1     8.893375    37B1     8.906356    20A2     8.968292  
      52A1     9.026846    30B2     9.153505    38B1     9.223018  
      53A1     9.408889    21A2     9.656012    54A1     9.704652  
      31B2     9.755375    39B1     9.812513    32B2    10.070083  
      55A1    10.075675    40B1    10.194656    22A2    10.224871  
      33B2    10.458906    41B1    10.518121    42B1    10.773864  
      56A1    10.831169    57A1    11.044829    34B2    11.130797  
      43B1    11.153997    58A1    11.347377    23A2    11.516390  
      59A1    11.715317    35B2    11.887969    44B1    11.930279  
      24A2    12.249114    45B1    12.358169    60A1    12.372950  
      61A1    12.751394    36B2    13.308750    46B1    13.813703  
      62A1    14.022343    63A1    24.838796    64A1    41.624469  

    Final Occupation by Irrep:
             A1    A2    B1    B2 
    DOCC [     5,    0,    2,    1 ]

  @DF-RKS Final Energy:  -114.51269890208681

   => Energetics <=

    Nuclear Repulsion Energy =             31.3097598670274486
    One-Electron Energy =                -217.4979388889414054
    Two-Electron Energy =                  82.0917568464452643
    DFT Exchange-Correlation Energy =     -10.4827741083476074
    Empirical Dispersion Energy =           0.0000000000000000
    VV10 Nonlocal Energy =                  0.0664973817294828
    Total Energy =                       -114.5126989020868251

Computation Completed


Properties will be evaluated at   0.000000,   0.000000,   0.000000 [a0]

Properties computed using the SCF density matrix

  Nuclear Dipole Moment: [e a0]
     X:     0.0000      Y:     0.0000      Z:     2.2172

  Electronic Dipole Moment: [e a0]
     X:     0.0000      Y:     0.0000      Z:    -1.2753

  Dipole Moment: [e a0]
     X:     0.0000      Y:     0.0000      Z:     0.9419     Total:     0.9419

  Dipole Moment: [D]
     X:     0.0000      Y:     0.0000      Z:     2.3940     Total:     2.3940


*** tstop() called on bp1-compute00105.data.bp.acrc.priv at Wed Apr 28 08:53:23 2021
Module time:
	user time   =     114.29 seconds =       1.90 minutes
	system time =       4.13 seconds =       0.07 minutes
	total time  =          5 seconds =       0.08 minutes
Total time:
	user time   =     355.13 seconds =       5.92 minutes
	system time =      16.13 seconds =       0.27 minutes
	total time  =         17 seconds =       0.28 minutes

  //>>>>>>>>>>>>>>>>>>>>>>>>>>>>>>>>>>>//
  //    Loading displacement 4 of 7    //
  //<<<<<<<<<<<<<<<<<<<<<<<<<<<<<<<<<<<//

*** tstart() called on bp1-compute00105.data.bp.acrc.priv
*** at Wed Apr 28 08:53:23 2021

   => Loading Basis Set <=

    Name: CC-PV(Q+D)Z
    Role: ORBITAL
    Keyword: BASIS
    atoms 1   entry O          line   349 file /work/zw18965/.conda/envs/p4env/share/psi4/basis/cc-pv_qpd_z.gbs 
    atoms 2   entry C          line   249 file /work/zw18965/.conda/envs/p4env/share/psi4/basis/cc-pv_qpd_z.gbs 
    atoms 3-4 entry H          line    32 file /work/zw18965/.conda/envs/p4env/share/psi4/basis/cc-pv_qpd_z.gbs 


         ---------------------------------------------------------
                                   SCF
               by Justin Turney, Rob Parrish, Andy Simmonett
                          and Daniel G. A. Smith
                              RKS Reference
                       24 Threads, 137329 MiB Core
         ---------------------------------------------------------

  ==> Geometry <==

    Molecular point group: c2v
    Full point group: C2v

    Geometry (in Angstrom), charge = 0, multiplicity = 1:

       Center              X                  Y                   Z               Mass       
    ------------   -----------------  -----------------  -----------------  -----------------
         O            0.000000000000    -0.000000000000    -0.602499002387    15.994914619570
         C            0.000000000000    -0.000000000000     0.603811342327    12.000000000000
         H            0.936954410300     0.000000000000     1.186309089952     1.007825032230
         H           -0.936954410300    -0.000000000000     1.186309089952     1.007825032230

  Running in c2v symmetry.

  Rotational constants: A =      9.52674  B =      1.29495  C =      1.13999 [cm^-1]
  Rotational constants: A = 285604.56383  B =  38821.62792  C =  34176.13741 [MHz]
  Nuclear repulsion =   31.287407525849975

  Charge       = 0
  Multiplicity = 1
  Electrons    = 16
  Nalpha       = 8
  Nbeta        = 8

  ==> Algorithm <==

  SCF Algorithm Type is DF.
  DIIS enabled.
  MOM disabled.
  Fractional occupation disabled.
  Guess Type is SAD.
  Energy threshold   = 1.00e-08
  Density threshold  = 1.00e-08
  Integral threshold = 0.00e+00

  ==> Primary Basis <==

  Basis Set: CC-PV(Q+D)Z
    Blend: CC-PV(Q+D)Z
    Number of shells: 50
    Number of basis function: 170
    Number of Cartesian functions: 210
    Spherical Harmonics?: true
    Max angular momentum: 4

  ==> DFT Potential <==

   => Composite Functional: WB97M-V <= 

    wB97M-V Hyb-GGA Exchange-Correlation Functional

    N. Mardirossian and M. Head-Gordon, J. Chem. Phys. 144, 214110 (2016)

    Deriv               =              1
    GGA                 =           TRUE
    Meta                =           TRUE

    Exchange Hybrid     =           TRUE
    MP2 Hybrid          =          FALSE

   => Exchange-Correlation Functionals <=

    1.0000   wB97M-V exchange-correlation functional

   => Exact (HF) Exchange <=

    0.8500            HF,LR [omega = 0.3000]
    0.1500               HF 

   => VV10 Non-Local Parameters <=

    VV10 B              =     6.0000E+00
    VV10 C              =     1.0000E-02

   => Molecular Quadrature <=

    Radial Scheme          =       TREUTLER
    Pruning Scheme         =           FLAT
    Nuclear Scheme         =       TREUTLER

    BS radius alpha        =              1
    Pruning alpha          =              1
    Radial Points          =             75
    Spherical Points       =            302
    Total Points           =          89185
    Total Blocks           =            747
    Max Points             =            255
    Max Functions          =            170

   => Loading Basis Set <=

    Name: (CC-PV(Q+D)Z AUX)
    Role: JKFIT
    Keyword: DF_BASIS_SCF
    atoms 1   entry O          line   253 file /work/zw18965/.conda/envs/p4env/share/psi4/basis/cc-pvqz-jkfit.gbs 
    atoms 2   entry C          line   137 file /work/zw18965/.conda/envs/p4env/share/psi4/basis/cc-pvqz-jkfit.gbs 
    atoms 3-4 entry H          line    51 file /work/zw18965/.conda/envs/p4env/share/psi4/basis/cc-pvqz-jkfit.gbs 

  ==> Pre-Iterations <==

   -------------------------------------------------------
    Irrep   Nso     Nmo     Nalpha   Nbeta   Ndocc  Nsocc
   -------------------------------------------------------
     A1        64      64       0       0       0       0
     A2        24      24       0       0       0       0
     B1        46      46       0       0       0       0
     B2        36      36       0       0       0       0
   -------------------------------------------------------
    Total     170     170       8       8       8       0
   -------------------------------------------------------

  ==> Integral Setup <==

  ==> DiskDFJK: Density-Fitted J/K Matrices <==

    J tasked:                  Yes
    K tasked:                  Yes
    wK tasked:                 Yes
    Omega:               3.000E-01
    OpenMP threads:             24
    Integrals threads:          24
    Memory [MiB]:           102039
    Algorithm:                Core
    Integral Cache:           NONE
    Schwarz Cutoff:          1E-12
    Fitting Condition:       1E-10

   => Auxiliary Basis Set <=

  Basis Set: (CC-PV(Q+D)Z AUX)
    Blend: CC-PVQZ-JKFIT
    Number of shells: 82
    Number of basis function: 314
    Number of Cartesian functions: 416
    Spherical Harmonics?: true
    Max angular momentum: 5

  Cached 100.0% of DFT collocation blocks in 0.935 [GiB].

  Minimum eigenvalue in the overlap matrix is 2.4385703453E-04.
  Using Symmetric Orthogonalization.

  SCF Guess: Superposition of Atomic Densities via on-the-fly atomic UHF.

  ==> Iterations <==

                           Total Energy        Delta E     RMS |[F,P]|

   @DF-RKS iter SAD:  -113.86317353093432   -1.13863e+02   0.00000e+00 
   @DF-RKS iter   1:  -114.42955737433138   -5.66384e-01   5.19884e-03 DIIS
   @DF-RKS iter   2:  -114.39601573275253    3.35416e-02   6.53768e-03 DIIS
   @DF-RKS iter   3:  -114.51116300012228   -1.15147e-01   6.48139e-04 DIIS
   @DF-RKS iter   4:  -114.51257034843128   -1.40735e-03   1.69209e-04 DIIS
   @DF-RKS iter   5:  -114.51267341986770   -1.03071e-04   2.26633e-05 DIIS
   @DF-RKS iter   6:  -114.51267629161045   -2.87174e-06   4.63951e-06 DIIS
   @DF-RKS iter   7:  -114.51267650541759   -2.13807e-07   8.51338e-07 DIIS
   @DF-RKS iter   8:  -114.51267651278211   -7.36452e-09   2.35504e-07 DIIS
   @DF-RKS iter   9:  -114.51267651308885   -3.06741e-10   2.17609e-08 DIIS
   @DF-RKS iter  10:  -114.51267651309473   -5.88329e-12   6.42409e-09 DIIS
  Energy and wave function converged.


  ==> Post-Iterations <==

    Orbital Energies [Eh]
    ---------------------

    Doubly Occupied:                                                      

       1A1   -19.350616     2A1   -10.442797     3A1    -1.191629  
       4A1    -0.755652     1B1    -0.609392     5A1    -0.565124  
       1B2    -0.508967     2B1    -0.377112  

    Virtual:                                                              

       2B2     0.038364     6A1     0.088009     3B1     0.142093  
       7A1     0.173975     3B2     0.268386     8A1     0.295110  
       4B1     0.302399     9A1     0.388323    10A1     0.418665  
       5B1     0.442158     1A2     0.472817    11A1     0.523112  
       4B2     0.569549     6B1     0.608135     5B2     0.656724  
      12A1     0.671873     7B1     0.740096     2A2     0.793762  
       6B2     0.821332    13A1     0.848663    14A1     0.919564  
       8B1     0.926421     9B1     1.012858    15A1     1.030513  
      16A1     1.108930    17A1     1.207187     7B2     1.321669  
      18A1     1.336092     3A2     1.368353    10B1     1.409189  
       8B2     1.478849    19A1     1.488446    11B1     1.583473  
      12B1     1.640250     4A2     1.709289    20A1     1.765837  
      21A1     1.848959     9B2     1.875887    10B2     1.891281  
      13B1     1.906039     5A2     1.949913    22A1     1.953684  
      14B1     2.103844    11B2     2.157585    23A1     2.179525  
       6A2     2.215763    15B1     2.286308    12B2     2.412784  
      24A1     2.418885    25A1     2.470475    16B1     2.477472  
      26A1     2.588778     7A2     2.624925    17B1     2.658635  
      13B2     2.709446    14B2     2.855954    27A1     2.891164  
      18B1     2.985285    15B2     3.002179    28A1     3.206972  
      19B1     3.235430    29A1     3.333206     8A2     3.342075  
      20B1     3.414407    21B1     3.454902    30A1     3.468072  
      16B2     3.492047    31A1     3.645321    32A1     3.750118  
      22B1     3.794940     9A2     3.835260    17B2     4.059682  
      10A2     4.093461    33A1     4.095420    18B2     4.268120  
      34A1     4.302632    35A1     4.414455    23B1     4.466926  
      36A1     4.671233    24B1     4.741621    37A1     5.090742  
      25B1     5.101512    19B2     5.195812    11A2     5.234680  
      12A2     5.355873    20B2     5.427306    38A1     5.525209  
      21B2     5.674238    13A2     5.680463    26B1     5.794267  
      27B1     5.821929    28B1     5.923148    39A1     5.932406  
      22B2     5.958891    29B1     6.025539    14A2     6.047423  
      23B2     6.079632    40A1     6.139282    41A1     6.254831  
      42A1     6.378102    30B1     6.397707    24B2     6.419651  
      43A1     6.531032    15A2     6.679521    31B1     6.755941  
      25B2     7.089237    44A1     7.180160    45A1     7.314963  
      26B2     7.318572    32B1     7.374855    16A2     7.432818  
      46A1     7.510961    27B2     7.554385    17A2     7.555716  
      47A1     7.699071    33B1     7.706245    48A1     7.943409  
      34B1     7.952235    49A1     8.083808    28B2     8.136937  
      35B1     8.146230    18A2     8.157956    19A2     8.351581  
      50A1     8.445767    29B2     8.468732    36B1     8.477266  
      51A1     8.891552    37B1     8.903797    20A2     8.968017  
      52A1     9.025444    30B2     9.148531    38B1     9.221821  
      53A1     9.400698    21A2     9.648969    54A1     9.700090  
      31B2     9.749864    39B1     9.808165    32B2    10.069254  
      55A1    10.074118    40B1    10.188490    22A2    10.222437  
      33B2    10.457167    41B1    10.513427    42B1    10.773910  
      56A1    10.828377    57A1    11.042154    34B2    11.130270  
      43B1    11.153507    58A1    11.342058    23A2    11.515454  
      59A1    11.713098    35B2    11.887438    44B1    11.923050  
      24A2    12.248238    45B1    12.353563    60A1    12.370273  
      61A1    12.748888    36B2    13.305373    46B1    13.811208  
      62A1    14.018002    63A1    24.822378    64A1    41.620665  

    Final Occupation by Irrep:
             A1    A2    B1    B2 
    DOCC [     5,    0,    2,    1 ]

  @DF-RKS Final Energy:  -114.51267651309473

   => Energetics <=

    Nuclear Repulsion Energy =             31.2874075258499751
    One-Electron Energy =                -217.4544478341652223
    Two-Electron Energy =                  82.0694990783834726
    DFT Exchange-Correlation Energy =     -10.4816324568902708
    Empirical Dispersion Energy =           0.0000000000000000
    VV10 Nonlocal Energy =                  0.0664971737273204
    Total Energy =                       -114.5126765130947319

Computation Completed


Properties will be evaluated at   0.000000,   0.000000,   0.000000 [a0]

Properties computed using the SCF density matrix

  Nuclear Dipole Moment: [e a0]
     X:     0.0000      Y:     0.0000      Z:     2.2214

  Electronic Dipole Moment: [e a0]
     X:     0.0000      Y:     0.0000      Z:    -1.2787

  Dipole Moment: [e a0]
     X:     0.0000      Y:     0.0000      Z:     0.9427     Total:     0.9427

  Dipole Moment: [D]
     X:     0.0000      Y:     0.0000      Z:     2.3961     Total:     2.3961


*** tstop() called on bp1-compute00105.data.bp.acrc.priv at Wed Apr 28 08:53:28 2021
Module time:
	user time   =     114.08 seconds =       1.90 minutes
	system time =       3.51 seconds =       0.06 minutes
	total time  =          5 seconds =       0.08 minutes
Total time:
	user time   =     469.38 seconds =       7.82 minutes
	system time =      19.64 seconds =       0.33 minutes
	total time  =         22 seconds =       0.37 minutes

  //>>>>>>>>>>>>>>>>>>>>>>>>>>>>>>>>>>>//
  //    Loading displacement 5 of 7    //
  //<<<<<<<<<<<<<<<<<<<<<<<<<<<<<<<<<<<//

*** tstart() called on bp1-compute00105.data.bp.acrc.priv
*** at Wed Apr 28 08:53:28 2021

   => Loading Basis Set <=

    Name: CC-PV(Q+D)Z
    Role: ORBITAL
    Keyword: BASIS
    atoms 1   entry O          line   349 file /work/zw18965/.conda/envs/p4env/share/psi4/basis/cc-pv_qpd_z.gbs 
    atoms 2   entry C          line   249 file /work/zw18965/.conda/envs/p4env/share/psi4/basis/cc-pv_qpd_z.gbs 
    atoms 3-4 entry H          line    32 file /work/zw18965/.conda/envs/p4env/share/psi4/basis/cc-pv_qpd_z.gbs 


         ---------------------------------------------------------
                                   SCF
               by Justin Turney, Rob Parrish, Andy Simmonett
                          and Daniel G. A. Smith
                              RKS Reference
                       24 Threads, 137329 MiB Core
         ---------------------------------------------------------

  ==> Geometry <==

    Molecular point group: c2v
    Full point group: C2v

    Geometry (in Angstrom), charge = 0, multiplicity = 1:

       Center              X                  Y                   Z               Mass       
    ------------   -----------------  -----------------  -----------------  -----------------
         O            0.000000000000    -0.000000000000    -0.602499002387    15.994914619570
         C            0.000000000000    -0.000000000000     0.604390652900    12.000000000000
         H            0.936954410300     0.000000000000     1.182860214075     1.007825032230
         H           -0.936954410300    -0.000000000000     1.182860214075     1.007825032230

  Running in c2v symmetry.

  Rotational constants: A =      9.52674  B =      1.29575  C =      1.14062 [cm^-1]
  Rotational constants: A = 285604.56383  B =  38845.71101  C =  34194.80028 [MHz]
  Nuclear repulsion =   31.294741495946525

  Charge       = 0
  Multiplicity = 1
  Electrons    = 16
  Nalpha       = 8
  Nbeta        = 8

  ==> Algorithm <==

  SCF Algorithm Type is DF.
  DIIS enabled.
  MOM disabled.
  Fractional occupation disabled.
  Guess Type is SAD.
  Energy threshold   = 1.00e-08
  Density threshold  = 1.00e-08
  Integral threshold = 0.00e+00

  ==> Primary Basis <==

  Basis Set: CC-PV(Q+D)Z
    Blend: CC-PV(Q+D)Z
    Number of shells: 50
    Number of basis function: 170
    Number of Cartesian functions: 210
    Spherical Harmonics?: true
    Max angular momentum: 4

  ==> DFT Potential <==

   => Composite Functional: WB97M-V <= 

    wB97M-V Hyb-GGA Exchange-Correlation Functional

    N. Mardirossian and M. Head-Gordon, J. Chem. Phys. 144, 214110 (2016)

    Deriv               =              1
    GGA                 =           TRUE
    Meta                =           TRUE

    Exchange Hybrid     =           TRUE
    MP2 Hybrid          =          FALSE

   => Exchange-Correlation Functionals <=

    1.0000   wB97M-V exchange-correlation functional

   => Exact (HF) Exchange <=

    0.8500            HF,LR [omega = 0.3000]
    0.1500               HF 

   => VV10 Non-Local Parameters <=

    VV10 B              =     6.0000E+00
    VV10 C              =     1.0000E-02

   => Molecular Quadrature <=

    Radial Scheme          =       TREUTLER
    Pruning Scheme         =           FLAT
    Nuclear Scheme         =       TREUTLER

    BS radius alpha        =              1
    Pruning alpha          =              1
    Radial Points          =             75
    Spherical Points       =            302
    Total Points           =          89185
    Total Blocks           =            747
    Max Points             =            256
    Max Functions          =            170

   => Loading Basis Set <=

    Name: (CC-PV(Q+D)Z AUX)
    Role: JKFIT
    Keyword: DF_BASIS_SCF
    atoms 1   entry O          line   253 file /work/zw18965/.conda/envs/p4env/share/psi4/basis/cc-pvqz-jkfit.gbs 
    atoms 2   entry C          line   137 file /work/zw18965/.conda/envs/p4env/share/psi4/basis/cc-pvqz-jkfit.gbs 
    atoms 3-4 entry H          line    51 file /work/zw18965/.conda/envs/p4env/share/psi4/basis/cc-pvqz-jkfit.gbs 

  ==> Pre-Iterations <==

   -------------------------------------------------------
    Irrep   Nso     Nmo     Nalpha   Nbeta   Ndocc  Nsocc
   -------------------------------------------------------
     A1        64      64       0       0       0       0
     A2        24      24       0       0       0       0
     B1        46      46       0       0       0       0
     B2        36      36       0       0       0       0
   -------------------------------------------------------
    Total     170     170       8       8       8       0
   -------------------------------------------------------

  ==> Integral Setup <==

  ==> DiskDFJK: Density-Fitted J/K Matrices <==

    J tasked:                  Yes
    K tasked:                  Yes
    wK tasked:                 Yes
    Omega:               3.000E-01
    OpenMP threads:             24
    Integrals threads:          24
    Memory [MiB]:           102039
    Algorithm:                Core
    Integral Cache:           NONE
    Schwarz Cutoff:          1E-12
    Fitting Condition:       1E-10

   => Auxiliary Basis Set <=

  Basis Set: (CC-PV(Q+D)Z AUX)
    Blend: CC-PVQZ-JKFIT
    Number of shells: 82
    Number of basis function: 314
    Number of Cartesian functions: 416
    Spherical Harmonics?: true
    Max angular momentum: 5

  Cached 100.0% of DFT collocation blocks in 0.935 [GiB].

  Minimum eigenvalue in the overlap matrix is 2.4242381578E-04.
  Using Symmetric Orthogonalization.

  SCF Guess: Superposition of Atomic Densities via on-the-fly atomic UHF.

  ==> Iterations <==

                           Total Energy        Delta E     RMS |[F,P]|

   @DF-RKS iter SAD:  -113.86347207629822   -1.13863e+02   0.00000e+00 
   @DF-RKS iter   1:  -114.42964308655617   -5.66171e-01   5.19563e-03 DIIS
   @DF-RKS iter   2:  -114.39637897623545    3.32641e-02   6.52778e-03 DIIS
   @DF-RKS iter   3:  -114.51114352685811   -1.14765e-01   6.49515e-04 DIIS
   @DF-RKS iter   4:  -114.51255581998520   -1.41229e-03   1.69155e-04 DIIS
   @DF-RKS iter   5:  -114.51265854771478   -1.02728e-04   2.26532e-05 DIIS
   @DF-RKS iter   6:  -114.51266140467335   -2.85696e-06   4.64920e-06 DIIS
   @DF-RKS iter   7:  -114.51266161821097   -2.13538e-07   8.59563e-07 DIIS
   @DF-RKS iter   8:  -114.51266162567693   -7.46596e-09   2.36156e-07 DIIS
   @DF-RKS iter   9:  -114.51266162598611   -3.09186e-10   2.17101e-08 DIIS
   @DF-RKS iter  10:  -114.51266162599185   -5.74119e-12   6.40380e-09 DIIS
  Energy and wave function converged.


  ==> Post-Iterations <==

    Orbital Energies [Eh]
    ---------------------

    Doubly Occupied:                                                      

       1A1   -19.350345     2A1   -10.442370     3A1    -1.191172  
       4A1    -0.755995     1B1    -0.610069     5A1    -0.564747  
       1B2    -0.508628     2B1    -0.377130  

    Virtual:                                                              

       2B2     0.038309     6A1     0.088181     3B1     0.141899  
       7A1     0.174021     3B2     0.268400     8A1     0.294591  
       4B1     0.302810     9A1     0.388844    10A1     0.419003  
       5B1     0.443568     1A2     0.472834    11A1     0.522904  
       4B2     0.569813     6B1     0.608153     5B2     0.657265  
      12A1     0.671976     7B1     0.739153     2A2     0.794535  
       6B2     0.820301    13A1     0.850386    14A1     0.919400  
       8B1     0.926557     9B1     1.014106    15A1     1.031231  
      16A1     1.106875    17A1     1.206083     7B2     1.321553  
      18A1     1.337093     3A2     1.368967    10B1     1.409609  
       8B2     1.479092    19A1     1.488832    11B1     1.583252  
      12B1     1.639837     4A2     1.709075    20A1     1.765178  
      21A1     1.849462     9B2     1.876534    10B2     1.892098  
      13B1     1.904637     5A2     1.948978    22A1     1.954309  
      14B1     2.104473    11B2     2.157835    23A1     2.181096  
       6A2     2.216481    15B1     2.288063    12B2     2.412057  
      24A1     2.422959    25A1     2.471517    16B1     2.479936  
      26A1     2.588839     7A2     2.626989    17B1     2.657829  
      13B2     2.712058    14B2     2.855143    27A1     2.889863  
      18B1     2.985837    15B2     3.002590    28A1     3.207295  
      19B1     3.237950    29A1     3.333489     8A2     3.345920  
      20B1     3.415072    21B1     3.457136    30A1     3.469949  
      16B2     3.492643    31A1     3.646246    32A1     3.748839  
      22B1     3.799774     9A2     3.835295    17B2     4.059739  
      10A2     4.094170    33A1     4.095534    18B2     4.269186  
      34A1     4.305102    35A1     4.414298    23B1     4.468262  
      36A1     4.670137    24B1     4.734418    37A1     5.091813  
      25B1     5.101738    19B2     5.192268    11A2     5.234810  
      12A2     5.358855    20B2     5.427428    38A1     5.526039  
      21B2     5.674856    13A2     5.680468    26B1     5.790968  
      27B1     5.827293    28B1     5.921857    39A1     5.932196  
      22B2     5.959734    29B1     6.030396    14A2     6.050499  
      23B2     6.082954    40A1     6.140340    41A1     6.257069  
      42A1     6.379207    30B1     6.406969    24B2     6.424083  
      43A1     6.534412    15A2     6.683953    31B1     6.761524  
      25B2     7.091491    44A1     7.187134    45A1     7.311837  
      26B2     7.317660    32B1     7.380108    16A2     7.436198  
      46A1     7.514525    27B2     7.554521    17A2     7.560322  
      47A1     7.703460    33B1     7.707400    48A1     7.939838  
      34B1     7.953917    49A1     8.084924    28B2     8.139332  
      35B1     8.150779    18A2     8.167107    19A2     8.351043  
      50A1     8.455362    29B2     8.469652    36B1     8.479865  
      51A1     8.895055    37B1     8.907285    20A2     8.968740  
      52A1     9.027546    30B2     9.156921    38B1     9.223266  
      53A1     9.413021    21A2     9.662173    54A1     9.707208  
      31B2     9.758498    39B1     9.814926    32B2    10.069369  
      55A1    10.072843    40B1    10.199600    22A2    10.220955  
      33B2    10.456486    41B1    10.518858    42B1    10.772743  
      56A1    10.830986    57A1    11.044002    34B2    11.130784  
      43B1    11.153873    58A1    11.351200    23A2    11.515773  
      59A1    11.714614    35B2    11.887508    44B1    11.936623  
      24A2    12.248021    45B1    12.358355    60A1    12.372142  
      61A1    12.748045    36B2    13.302655    46B1    13.806539  
      62A1    14.018346    63A1    24.840077    64A1    41.618562  

    Final Occupation by Irrep:
             A1    A2    B1    B2 
    DOCC [     5,    0,    2,    1 ]

  @DF-RKS Final Energy:  -114.51266162599185

   => Energetics <=

    Nuclear Repulsion Energy =             31.2947414959465249
    One-Electron Energy =                -217.4702134324033409
    Two-Electron Energy =                  82.0788478063618356
    DFT Exchange-Correlation Energy =     -10.4825352705627903
    Empirical Dispersion Energy =           0.0000000000000000
    VV10 Nonlocal Energy =                  0.0664977746659054
    Total Energy =                       -114.5126616259918535

Computation Completed


Properties will be evaluated at   0.000000,   0.000000,   0.000000 [a0]

Properties computed using the SCF density matrix

  Nuclear Dipole Moment: [e a0]
     X:     0.0000      Y:     0.0000      Z:     2.2149

  Electronic Dipole Moment: [e a0]
     X:     0.0000      Y:     0.0000      Z:    -1.2704

  Dipole Moment: [e a0]
     X:     0.0000      Y:     0.0000      Z:     0.9445     Total:     0.9445

  Dipole Moment: [D]
     X:     0.0000      Y:     0.0000      Z:     2.4006     Total:     2.4006


*** tstop() called on bp1-compute00105.data.bp.acrc.priv at Wed Apr 28 08:53:33 2021
Module time:
	user time   =     112.05 seconds =       1.87 minutes
	system time =       3.24 seconds =       0.05 minutes
	total time  =          5 seconds =       0.08 minutes
Total time:
	user time   =     581.59 seconds =       9.69 minutes
	system time =      22.89 seconds =       0.38 minutes
	total time  =         27 seconds =       0.45 minutes

  //>>>>>>>>>>>>>>>>>>>>>>>>>>>>>>>>>>>//
  //    Loading displacement 6 of 7    //
  //<<<<<<<<<<<<<<<<<<<<<<<<<<<<<<<<<<<//

*** tstart() called on bp1-compute00105.data.bp.acrc.priv
*** at Wed Apr 28 08:53:33 2021

   => Loading Basis Set <=

    Name: CC-PV(Q+D)Z
    Role: ORBITAL
    Keyword: BASIS
    atoms 1   entry O          line   349 file /work/zw18965/.conda/envs/p4env/share/psi4/basis/cc-pv_qpd_z.gbs 
    atoms 2   entry C          line   249 file /work/zw18965/.conda/envs/p4env/share/psi4/basis/cc-pv_qpd_z.gbs 
    atoms 3-4 entry H          line    32 file /work/zw18965/.conda/envs/p4env/share/psi4/basis/cc-pv_qpd_z.gbs 


         ---------------------------------------------------------
                                   SCF
               by Justin Turney, Rob Parrish, Andy Simmonett
                          and Daniel G. A. Smith
                              RKS Reference
                       24 Threads, 137329 MiB Core
         ---------------------------------------------------------

  ==> Geometry <==

    Molecular point group: c2v
    Full point group: C2v

    Geometry (in Angstrom), charge = 0, multiplicity = 1:

       Center              X                  Y                   Z               Mass       
    ------------   -----------------  -----------------  -----------------  -----------------
         O            0.000000000000    -0.000000000000    -0.602499002387    15.994914619570
         C            0.000000000000    -0.000000000000     0.604100997613    12.000000000000
         H            0.935090763668     0.000000000000     1.184584652013     1.007825032230
         H           -0.935090763668    -0.000000000000     1.184584652013     1.007825032230

  Running in c2v symmetry.

  Rotational constants: A =      9.56475  B =      1.29535  C =      1.14085 [cm^-1]
  Rotational constants: A = 286744.12463  B =  38833.68662  C =  34201.75175 [MHz]
  Nuclear repulsion =   31.301725197061042

  Charge       = 0
  Multiplicity = 1
  Electrons    = 16
  Nalpha       = 8
  Nbeta        = 8

  ==> Algorithm <==

  SCF Algorithm Type is DF.
  DIIS enabled.
  MOM disabled.
  Fractional occupation disabled.
  Guess Type is SAD.
  Energy threshold   = 1.00e-08
  Density threshold  = 1.00e-08
  Integral threshold = 0.00e+00

  ==> Primary Basis <==

  Basis Set: CC-PV(Q+D)Z
    Blend: CC-PV(Q+D)Z
    Number of shells: 50
    Number of basis function: 170
    Number of Cartesian functions: 210
    Spherical Harmonics?: true
    Max angular momentum: 4

  ==> DFT Potential <==

   => Composite Functional: WB97M-V <= 

    wB97M-V Hyb-GGA Exchange-Correlation Functional

    N. Mardirossian and M. Head-Gordon, J. Chem. Phys. 144, 214110 (2016)

    Deriv               =              1
    GGA                 =           TRUE
    Meta                =           TRUE

    Exchange Hybrid     =           TRUE
    MP2 Hybrid          =          FALSE

   => Exchange-Correlation Functionals <=

    1.0000   wB97M-V exchange-correlation functional

   => Exact (HF) Exchange <=

    0.8500            HF,LR [omega = 0.3000]
    0.1500               HF 

   => VV10 Non-Local Parameters <=

    VV10 B              =     6.0000E+00
    VV10 C              =     1.0000E-02

   => Molecular Quadrature <=

    Radial Scheme          =       TREUTLER
    Pruning Scheme         =           FLAT
    Nuclear Scheme         =       TREUTLER

    BS radius alpha        =              1
    Pruning alpha          =              1
    Radial Points          =             75
    Spherical Points       =            302
    Total Points           =          89185
    Total Blocks           =            746
    Max Points             =            256
    Max Functions          =            170

   => Loading Basis Set <=

    Name: (CC-PV(Q+D)Z AUX)
    Role: JKFIT
    Keyword: DF_BASIS_SCF
    atoms 1   entry O          line   253 file /work/zw18965/.conda/envs/p4env/share/psi4/basis/cc-pvqz-jkfit.gbs 
    atoms 2   entry C          line   137 file /work/zw18965/.conda/envs/p4env/share/psi4/basis/cc-pvqz-jkfit.gbs 
    atoms 3-4 entry H          line    51 file /work/zw18965/.conda/envs/p4env/share/psi4/basis/cc-pvqz-jkfit.gbs 

  ==> Pre-Iterations <==

   -------------------------------------------------------
    Irrep   Nso     Nmo     Nalpha   Nbeta   Ndocc  Nsocc
   -------------------------------------------------------
     A1        64      64       0       0       0       0
     A2        24      24       0       0       0       0
     B1        46      46       0       0       0       0
     B2        36      36       0       0       0       0
   -------------------------------------------------------
    Total     170     170       8       8       8       0
   -------------------------------------------------------

  ==> Integral Setup <==

  ==> DiskDFJK: Density-Fitted J/K Matrices <==

    J tasked:                  Yes
    K tasked:                  Yes
    wK tasked:                 Yes
    Omega:               3.000E-01
    OpenMP threads:             24
    Integrals threads:          24
    Memory [MiB]:           102039
    Algorithm:                Core
    Integral Cache:           NONE
    Schwarz Cutoff:          1E-12
    Fitting Condition:       1E-10

   => Auxiliary Basis Set <=

  Basis Set: (CC-PV(Q+D)Z AUX)
    Blend: CC-PVQZ-JKFIT
    Number of shells: 82
    Number of basis function: 314
    Number of Cartesian functions: 416
    Spherical Harmonics?: true
    Max angular momentum: 5

  Cached 100.0% of DFT collocation blocks in 0.934 [GiB].

  Minimum eigenvalue in the overlap matrix is 2.4179427730E-04.
  Using Symmetric Orthogonalization.

  SCF Guess: Superposition of Atomic Densities via on-the-fly atomic UHF.

  ==> Iterations <==

                           Total Energy        Delta E     RMS |[F,P]|

   @DF-RKS iter SAD:  -113.86418531696556   -1.13864e+02   0.00000e+00 
   @DF-RKS iter   1:  -114.42974515884111   -5.65560e-01   5.19243e-03 DIIS
   @DF-RKS iter   2:  -114.39671587570284    3.30293e-02   6.51882e-03 DIIS
   @DF-RKS iter   3:  -114.51114624760483   -1.14430e-01   6.50226e-04 DIIS
   @DF-RKS iter   4:  -114.51256074120097   -1.41449e-03   1.68999e-04 DIIS
   @DF-RKS iter   5:  -114.51266337005711   -1.02629e-04   2.26388e-05 DIIS
   @DF-RKS iter   6:  -114.51266622688995   -2.85683e-06   4.63131e-06 DIIS
   @DF-RKS iter   7:  -114.51266643951884   -2.12629e-07   8.52512e-07 DIIS
   @DF-RKS iter   8:  -114.51266644689127   -7.37244e-09   2.34924e-07 DIIS
   @DF-RKS iter   9:  -114.51266644719728   -3.06002e-10   2.16602e-08 DIIS
   @DF-RKS iter  10:  -114.51266644720313   -5.85487e-12   6.40722e-09 DIIS
  Energy and wave function converged.


  ==> Post-Iterations <==

    Orbital Energies [Eh]
    ---------------------

    Doubly Occupied:                                                      

       1A1   -19.350437     2A1   -10.442276     3A1    -1.191357  
       4A1    -0.756315     1B1    -0.609915     5A1    -0.565001  
       1B2    -0.508764     2B1    -0.377158  

    Virtual:                                                              

       2B2     0.038326     6A1     0.088159     3B1     0.142070  
       7A1     0.174008     3B2     0.268375     8A1     0.295236  
       4B1     0.302467     9A1     0.389165    10A1     0.418752  
       5B1     0.443396     1A2     0.473048    11A1     0.522973  
       4B2     0.569698     6B1     0.608137     5B2     0.657016  
      12A1     0.672093     7B1     0.740302     2A2     0.794075  
       6B2     0.821276    13A1     0.849420    14A1     0.919557  
       8B1     0.926469     9B1     1.014021    15A1     1.031371  
      16A1     1.108946    17A1     1.206514     7B2     1.321457  
      18A1     1.336302     3A2     1.368792    10B1     1.408900  
       8B2     1.478964    19A1     1.488630    11B1     1.583417  
      12B1     1.640958     4A2     1.709338    20A1     1.765178  
      21A1     1.849314     9B2     1.876028    10B2     1.891861  
      13B1     1.905499     5A2     1.949966    22A1     1.953759  
      14B1     2.103284    11B2     2.157666    23A1     2.181203  
       6A2     2.216750    15B1     2.288935    12B2     2.413344  
      24A1     2.420284    25A1     2.472611    16B1     2.479733  
      26A1     2.589739     7A2     2.626572    17B1     2.660798  
      13B2     2.711784    14B2     2.855996    27A1     2.891960  
      18B1     2.986313    15B2     3.004060    28A1     3.207602  
      19B1     3.237188    29A1     3.333964     8A2     3.346179  
      20B1     3.415319    21B1     3.456330    30A1     3.470742  
      16B2     3.492111    31A1     3.647825    32A1     3.750119  
      22B1     3.798303     9A2     3.835729    17B2     4.060017  
      10A2     4.094190    33A1     4.095661    18B2     4.269757  
      34A1     4.303289    35A1     4.414656    23B1     4.467923  
      36A1     4.671445    24B1     4.737953    37A1     5.091589  
      25B1     5.101616    19B2     5.192933    11A2     5.235819  
      12A2     5.358704    20B2     5.427180    38A1     5.524770  
      21B2     5.675313    13A2     5.680462    26B1     5.792380  
      27B1     5.828216    28B1     5.922830    39A1     5.932713  
      22B2     5.959938    29B1     6.031422    14A2     6.050165  
      23B2     6.083341    40A1     6.144393    41A1     6.256132  
      42A1     6.380884    30B1     6.404223    24B2     6.424796  
      43A1     6.536701    15A2     6.683954    31B1     6.762808  
      25B2     7.099488    44A1     7.186905    45A1     7.312289  
      26B2     7.317555    32B1     7.380291    16A2     7.436907  
      46A1     7.516264    27B2     7.556964    17A2     7.558661  
      47A1     7.705676    33B1     7.707304    48A1     7.943074  
      34B1     7.955035    49A1     8.085111    28B2     8.139270  
      35B1     8.149950    18A2     8.166644    19A2     8.352622  
      50A1     8.453532    29B2     8.470419    36B1     8.484187  
      51A1     8.895814    37B1     8.910037    20A2     8.968905  
      52A1     9.029454    30B2     9.156097    38B1     9.225779  
      53A1     9.412508    21A2     9.666085    54A1     9.710975  
      31B2     9.761327    39B1     9.815053    32B2    10.069978  
      55A1    10.073033    40B1    10.201178    22A2    10.225285  
      33B2    10.457887    41B1    10.522258    42B1    10.776390  
      56A1    10.832916    57A1    11.043758    34B2    11.130629  
      43B1    11.153882    58A1    11.349663    23A2    11.516000  
      59A1    11.714465    35B2    11.887915    44B1    11.943155  
      24A2    12.248797    45B1    12.360646    60A1    12.372069  
      61A1    12.749219    36B2    13.304599    46B1    13.813216  
      62A1    14.021635    63A1    24.847972    64A1    41.620288  

    Final Occupation by Irrep:
             A1    A2    B1    B2 
    DOCC [     5,    0,    2,    1 ]

  @DF-RKS Final Energy:  -114.51266644720313

   => Energetics <=

    Nuclear Repulsion Energy =             31.3017251970610424
    One-Electron Energy =                -217.4823761033189840
    Two-Electron Energy =                  82.0844860286445055
    DFT Exchange-Correlation Energy =     -10.4830005718243306
    Empirical Dispersion Energy =           0.0000000000000000
    VV10 Nonlocal Energy =                  0.0664990022346348
    Total Energy =                       -114.5126664472031308

Computation Completed


Properties will be evaluated at   0.000000,   0.000000,   0.000000 [a0]

Properties computed using the SCF density matrix

  Nuclear Dipole Moment: [e a0]
     X:     0.0000      Y:     0.0000      Z:     2.2181

  Electronic Dipole Moment: [e a0]
     X:     0.0000      Y:     0.0000      Z:    -1.2736

  Dipole Moment: [e a0]
     X:     0.0000      Y:     0.0000      Z:     0.9445     Total:     0.9445

  Dipole Moment: [D]
     X:     0.0000      Y:     0.0000      Z:     2.4008     Total:     2.4008


*** tstop() called on bp1-compute00105.data.bp.acrc.priv at Wed Apr 28 08:53:38 2021
Module time:
	user time   =     113.32 seconds =       1.89 minutes
	system time =       3.13 seconds =       0.05 minutes
	total time  =          5 seconds =       0.08 minutes
Total time:
	user time   =     695.07 seconds =      11.58 minutes
	system time =      26.03 seconds =       0.43 minutes
	total time  =         32 seconds =       0.53 minutes

  //>>>>>>>>>>>>>>>>>>>>>>>>>>>>>>>>>>>//
  //    Loading displacement 7 of 7    //
  //<<<<<<<<<<<<<<<<<<<<<<<<<<<<<<<<<<<//

*** tstart() called on bp1-compute00105.data.bp.acrc.priv
*** at Wed Apr 28 08:53:38 2021

   => Loading Basis Set <=

    Name: CC-PV(Q+D)Z
    Role: ORBITAL
    Keyword: BASIS
    atoms 1   entry O          line   349 file /work/zw18965/.conda/envs/p4env/share/psi4/basis/cc-pv_qpd_z.gbs 
    atoms 2   entry C          line   249 file /work/zw18965/.conda/envs/p4env/share/psi4/basis/cc-pv_qpd_z.gbs 
    atoms 3-4 entry H          line    32 file /work/zw18965/.conda/envs/p4env/share/psi4/basis/cc-pv_qpd_z.gbs 


         ---------------------------------------------------------
                                   SCF
               by Justin Turney, Rob Parrish, Andy Simmonett
                          and Daniel G. A. Smith
                              RKS Reference
                       24 Threads, 137329 MiB Core
         ---------------------------------------------------------

  ==> Geometry <==

    Molecular point group: c2v
    Full point group: C2v

    Geometry (in Angstrom), charge = 0, multiplicity = 1:

       Center              X                  Y                   Z               Mass       
    ------------   -----------------  -----------------  -----------------  -----------------
         O            0.000000000000    -0.000000000000    -0.602499002387    15.994914619570
         C            0.000000000000    -0.000000000000     0.604100997613    12.000000000000
         H            0.938818056932     0.000000000000     1.184584652013     1.007825032230
         H           -0.938818056932    -0.000000000000     1.184584652013     1.007825032230

  Running in c2v symmetry.

  Rotational constants: A =      9.48896  B =      1.29535  C =      1.13976 [cm^-1]
  Rotational constants: A = 284471.78271  B =  38833.68662  C =  34169.19635 [MHz]
  Nuclear repulsion =   31.280440688513217

  Charge       = 0
  Multiplicity = 1
  Electrons    = 16
  Nalpha       = 8
  Nbeta        = 8

  ==> Algorithm <==

  SCF Algorithm Type is DF.
  DIIS enabled.
  MOM disabled.
  Fractional occupation disabled.
  Guess Type is SAD.
  Energy threshold   = 1.00e-08
  Density threshold  = 1.00e-08
  Integral threshold = 0.00e+00

  ==> Primary Basis <==

  Basis Set: CC-PV(Q+D)Z
    Blend: CC-PV(Q+D)Z
    Number of shells: 50
    Number of basis function: 170
    Number of Cartesian functions: 210
    Spherical Harmonics?: true
    Max angular momentum: 4

  ==> DFT Potential <==

   => Composite Functional: WB97M-V <= 

    wB97M-V Hyb-GGA Exchange-Correlation Functional

    N. Mardirossian and M. Head-Gordon, J. Chem. Phys. 144, 214110 (2016)

    Deriv               =              1
    GGA                 =           TRUE
    Meta                =           TRUE

    Exchange Hybrid     =           TRUE
    MP2 Hybrid          =          FALSE

   => Exchange-Correlation Functionals <=

    1.0000   wB97M-V exchange-correlation functional

   => Exact (HF) Exchange <=

    0.8500            HF,LR [omega = 0.3000]
[...]
  DIIS enabled.
  MOM disabled.
  Fractional occupation disabled.
  Guess Type is SAD.
  Energy threshold   = 1.00e-10
  Density threshold  = 1.00e-10
  Integral threshold = 0.00e+00

  ==> Primary Basis <==

  Basis Set: CC-PV(Q+D)Z
    Blend: CC-PV(Q+D)Z
    Number of shells: 50
    Number of basis function: 170
    Number of Cartesian functions: 210
    Spherical Harmonics?: true
    Max angular momentum: 4

  ==> DFT Potential <==

   => Composite Functional: WB97M-V <= 

    wB97M-V Hyb-GGA Exchange-Correlation Functional

    N. Mardirossian and M. Head-Gordon, J. Chem. Phys. 144, 214110 (2016)

    Deriv               =              1
    GGA                 =           TRUE
    Meta                =           TRUE

    Exchange Hybrid     =           TRUE
    MP2 Hybrid          =          FALSE

   => Exchange-Correlation Functionals <=

    1.0000   wB97M-V exchange-correlation functional

   => Exact (HF) Exchange <=

    0.8500            HF,LR [omega = 0.3000]
    0.1500               HF 

   => VV10 Non-Local Parameters <=

    VV10 B              =     6.0000E+00
    VV10 C              =     1.0000E-02

   => Molecular Quadrature <=

    Radial Scheme          =       TREUTLER
    Pruning Scheme         =           FLAT
    Nuclear Scheme         =       TREUTLER

    BS radius alpha        =              1
    Pruning alpha          =              1
    Radial Points          =             75
    Spherical Points       =            302
    Total Points           =          89185
    Total Blocks           =            739
    Max Points             =            256
    Max Functions          =            170

   => Loading Basis Set <=

    Name: (CC-PV(Q+D)Z AUX)
    Role: JKFIT
    Keyword: DF_BASIS_SCF
    atoms 1   entry O          line   253 file /work/zw18965/.conda/envs/p4env/share/psi4/basis/cc-pvqz-jkfit.gbs 
    atoms 2   entry C          line   137 file /work/zw18965/.conda/envs/p4env/share/psi4/basis/cc-pvqz-jkfit.gbs 
    atoms 3-4 entry H          line    51 file /work/zw18965/.conda/envs/p4env/share/psi4/basis/cc-pvqz-jkfit.gbs 

  ==> Pre-Iterations <==

   -------------------------------------------------------
    Irrep   Nso     Nmo     Nalpha   Nbeta   Ndocc  Nsocc
   -------------------------------------------------------
     A'       100     100       0       0       0       0
     A"        70      70       0       0       0       0
   -------------------------------------------------------
    Total     170     170       8       8       8       0
   -------------------------------------------------------

  ==> Integral Setup <==

  ==> DiskDFJK: Density-Fitted J/K Matrices <==

    J tasked:                  Yes
    K tasked:                  Yes
    wK tasked:                 Yes
    Omega:               3.000E-01
    OpenMP threads:             24
    Integrals threads:          24
    Memory [MiB]:           102039
    Algorithm:                Core
    Integral Cache:           NONE
    Schwarz Cutoff:          1E-12
    Fitting Condition:       1E-10

   => Auxiliary Basis Set <=

  Basis Set: (CC-PV(Q+D)Z AUX)
    Blend: CC-PVQZ-JKFIT
    Number of shells: 82
    Number of basis function: 314
    Number of Cartesian functions: 416
    Spherical Harmonics?: true
    Max angular momentum: 5

  Cached 100.0% of DFT collocation blocks in 0.935 [GiB].

  Minimum eigenvalue in the overlap matrix is 2.4313207475E-04.
  Using Symmetric Orthogonalization.

  SCF Guess: Superposition of Atomic Densities via on-the-fly atomic UHF.

  ==> Iterations <==

                           Total Energy        Delta E     RMS |[F,P]|

   @DF-RKS iter SAD:  -113.87991135229630   -1.13880e+02   0.00000e+00 
   @DF-RKS iter   1:  -114.42916809834048   -5.49257e-01   3.84917e-03 DIIS
   @DF-RKS iter   2:  -114.39845489618564    3.07132e-02   4.77673e-03 DIIS
   @DF-RKS iter   3:  -114.51130842993705   -1.12854e-01   4.78885e-04 DIIS
   @DF-RKS iter   4:  -114.51271519628024   -1.40677e-03   1.23934e-04 DIIS
   @DF-RKS iter   5:  -114.51281710002755   -1.01904e-04   1.62574e-05 DIIS
   @DF-RKS iter   6:  -114.51281984909652   -2.74907e-06   3.29186e-06 DIIS
   @DF-RKS iter   7:  -114.51282004938457   -2.00288e-07   5.74531e-07 DIIS
   @DF-RKS iter   8:  -114.51282005577292   -6.38835e-09   1.56747e-07 DIIS
   @DF-RKS iter   9:  -114.51282005602593   -2.53010e-10   1.50130e-08 DIIS
   @DF-RKS iter  10:  -114.51282005603082   -4.88853e-12   4.42935e-09 DIIS
   @DF-RKS iter  11:  -114.51282005603112   -2.98428e-13   6.36300e-10 DIIS
   @DF-RKS iter  12:  -114.51282005603112    0.00000e+00   1.24129e-10 DIIS
   @DF-RKS iter  13:  -114.51282005603140   -2.84217e-13   2.38231e-11 DIIS
  Energy and wave function converged.


  ==> Post-Iterations <==

    Orbital Energies [Eh]
    ---------------------

    Doubly Occupied:                                                      

       1Ap   -19.350010     2Ap   -10.441180     3Ap    -1.196873  
       4Ap    -0.754100     1App   -0.610963     5Ap    -0.566652  
       6Ap    -0.512233     2App   -0.376321  

    Virtual:                                                              

       7Ap     0.040874     8Ap     0.088432     3App    0.142698  
       9Ap     0.174347    10Ap     0.268295    11Ap     0.295209  
       4App    0.302077    12Ap     0.388719    13Ap     0.418298  
       5App    0.443677     6App    0.472990    14Ap     0.528466  
      15Ap     0.568912     7App    0.607811    16Ap     0.658113  
      17Ap     0.671765     8App    0.739889     9App    0.793861  
      18Ap     0.821862    19Ap     0.852445    20Ap     0.924065  
      10App    0.928461    11App    1.013502    21Ap     1.031032  
      22Ap     1.109281    23Ap     1.208039    24Ap     1.320414  
      25Ap     1.334044    12App    1.371031    13App    1.409981  
      26Ap     1.480145    27Ap     1.490180    14App    1.583462  
      15App    1.636943    16App    1.709222    28Ap     1.767087  
      29Ap     1.851491    30Ap     1.877560    31Ap     1.891074  
      17App    1.907758    18App    1.950183    32Ap     1.952910  
      19App    2.108171    33Ap     2.160375    34Ap     2.181729  
      20App    2.216941    21App    2.287309    35Ap     2.413157  
      36Ap     2.425043    37Ap     2.471924    22App    2.477908  
      38Ap     2.592621    23App    2.628734    24App    2.660579  
      39Ap     2.712502    40Ap     2.858603    41Ap     2.892029  
      25App    2.985744    42Ap     3.002158    43Ap     3.203046  
      26App    3.241500    44Ap     3.342682    27App    3.343860  
      28App    3.416251    29App    3.459464    45Ap     3.468590  
      46Ap     3.498456    47Ap     3.643235    48Ap     3.752785  
      30App    3.794630    31App    3.841294    49Ap     4.058593  
      32App    4.097972    50Ap     4.098736    51Ap     4.272973  
      52Ap     4.318086    53Ap     4.413158    33App    4.466022  
      54Ap     4.688732    34App    4.750112    55Ap     5.091209  
      35App    5.105593    56Ap     5.202907    36App    5.234861  
      37App    5.357732    57Ap     5.429801    58Ap     5.536433  
      59Ap     5.674381    38App    5.689103    39App    5.794619  
      40App    5.831448    41App    5.923339    60Ap     5.935308  
      61Ap     5.960038    42App    6.024866    43App    6.051583  
      62Ap     6.088519    63Ap     6.144167    64Ap     6.266544  
      65Ap     6.382394    44App    6.398859    66Ap     6.422567  
      67Ap     6.539991    45App    6.681469    46App    6.774134  
      68Ap     7.090367    69Ap     7.191860    70Ap     7.329361  
      71Ap     7.334373    47App    7.383381    48App    7.433909  
      72Ap     7.514199    49App    7.558823    73Ap     7.568100  
      74Ap     7.695711    50App    7.711350    75Ap     7.940637  
      51App    7.952089    76Ap     8.084531    77Ap     8.137819  
      52App    8.146841    53App    8.163490    54App    8.353175  
      78Ap     8.446579    79Ap     8.469400    55App    8.484948  
      80Ap     8.891558    56App    8.910958    57App    8.967055  
      81Ap     9.028386    82Ap     9.155292    58App    9.225728  
      83Ap     9.419857    59App    9.651381    84Ap     9.708542  
      85Ap     9.760890    60App    9.817147    86Ap    10.076673  
      87Ap    10.096408    61App   10.192229    62App   10.253404  
      88Ap    10.477526    63App   10.532142    64App   10.779288  
      89Ap    10.840882    90Ap    11.059857    91Ap    11.132919  
      65App   11.156490    92Ap    11.348411    66App   11.522995  
      93Ap    11.727534    94Ap    11.892755    67App   11.924932  
      68App   12.258155    69App   12.375568    95Ap    12.387705  
      96Ap    12.778278    97Ap    13.352211    70App   13.858161  
      98Ap    14.058750    99Ap    24.895194   100Ap    41.669069  

    Final Occupation by Irrep:
             Ap   App 
    DOCC [     6,    2 ]

  @DF-RKS Final Energy:  -114.51282005603140

   => Energetics <=

    Nuclear Repulsion Energy =             31.4708234756583067
    One-Electron Energy =                -217.8035589016731421
    Two-Electron Energy =                  82.2417541284088713
    DFT Exchange-Correlation Energy =     -10.4883348806253238
    Empirical Dispersion Energy =           0.0000000000000000
    VV10 Nonlocal Energy =                  0.0664961221998974
    Total Energy =                       -114.5128200560314014

Computation Completed


Properties will be evaluated at   0.000000,   0.000000,   0.000000 [a0]

Properties computed using the SCF density matrix

  Nuclear Dipole Moment: [e a0]
     X:     0.0000      Y:    -0.0030      Z:     2.2120

  Electronic Dipole Moment: [e a0]
     X:     0.0000      Y:     0.0026      Z:    -1.2865

  Dipole Moment: [e a0]
     X:     0.0000      Y:    -0.0003      Z:     0.9255     Total:     0.9255

  Dipole Moment: [D]
     X:     0.0000      Y:    -0.0008      Z:     2.3523     Total:     2.3523


*** tstop() called on bp1-compute00105.data.bp.acrc.priv at Wed Apr 28 08:57:09 2021
Module time:
	user time   =     126.50 seconds =       2.11 minutes
	system time =       2.76 seconds =       0.05 minutes
	total time  =          5 seconds =       0.08 minutes
Total time:
	user time   =    5433.23 seconds =      90.55 minutes
	system time =     142.72 seconds =       2.38 minutes
	total time  =        243 seconds =       4.05 minutes

         ----------------------------------------------------------
                                   FINDIF
                     R. A. King and Jonathon Misiewicz
         ---------------------------------------------------------

  Computing second-derivative from energies using projected, 
  symmetry-adapted, cartesian coordinates.

  18 energies passed in, including the reference geometry.
    Using 3-point formula.
    Energy without displacement: -114.5128207432
    Check energies below for precision!
    0: -1        :      -114.5128192285
    0: 1         :      -114.5128192148
    1: -1        :      -114.5128188598
    1: 1         :      -114.5128186685
    2: -1        :      -114.5128175560
    2: 1         :      -114.5128174488
    0: 1, 1: 1   :      -114.5128174508
    0: -1, 1: -1 :      -114.5128176542
    0: 1, 2: 1   :      -114.5128161582
    0: -1, 2: -1 :      -114.5128162771
    1: 1, 2: 1   :      -114.5128178854
    1: -1, 2: -1 :      -114.5128181983
    3: -1        :      -114.5128199802
    4: -1        :      -114.5128165471
    3: 1, 4: 1   :      -114.5128158168
    3: -1, 4: -1 :      -114.5128158168
    5: -1        :      -114.5128200560

-------------------------------------------------------------


  ==> Harmonic Vibrational Analysis <==

  non-mass-weighted Hessian:       Symmetric? True   Hermitian? True   Lin Dep Dim?  6 (0)
  projection of translations (True) and rotations (True) removed 6 degrees of freedom (6)
  total projector:                 Symmetric? True   Hermitian? True   Lin Dep Dim?  6 (6)
  mass-weighted Hessian:           Symmetric? True   Hermitian? True   Lin Dep Dim?  6 (0)
  pre-proj  low-frequency mode:    0.0000i [cm^-1]
  pre-proj  low-frequency mode:    0.0000i [cm^-1]
  pre-proj  low-frequency mode:    0.0000  [cm^-1]
  pre-proj  low-frequency mode:    0.0000  [cm^-1]
  pre-proj  low-frequency mode:    0.0000  [cm^-1]
  pre-proj  low-frequency mode:    0.0000  [cm^-1]
  pre-proj  all modes:['0.0000i' '0.0000i' '0.0000' '0.0000' '0.0000' '0.0000' '1205.2169'
 '1269.9181' '1531.7901' '1846.5139' '2914.6141' '2978.3249']
  projected mass-weighted Hessian: Symmetric? True   Hermitian? True   Lin Dep Dim?  6 (6)
  post-proj low-frequency mode:    0.0000i [cm^-1] (TR)
  post-proj low-frequency mode:    0.0000i [cm^-1] (TR)
  post-proj low-frequency mode:    0.0000i [cm^-1] (TR)
  post-proj low-frequency mode:    0.0000i [cm^-1] (TR)
  post-proj low-frequency mode:    0.0000  [cm^-1] (TR)
  post-proj low-frequency mode:    0.0001  [cm^-1] (TR)
  post-proj  all modes:['0.0000i' '0.0000i' '0.0000i' '0.0000i' '0.0000' '0.0001' '1205.2169'
 '1269.9181' '1531.7901' '1846.5139' '2914.6141' '2978.3249']

  Vibration                       7                   8                   9           
  Freq [cm^-1]                1205.2169           1269.9181           1531.7901       
  Irrep                           B2                  B1                  A1          
  Reduced mass [u]              1.3669              1.3443              1.0950        
  Force const [mDyne/A]         1.1698              1.2773              1.5138        
  Turning point v=0 [a0]        0.2703              0.2656              0.2679        
  RMS dev v=0 [a0 u^1/2]        0.2235              0.2177              0.1982        
  Char temp [K]               1734.0388           1827.1294           2203.9049       
  ----------------------------------------------------------------------------------
      1   O               -0.00  0.04  0.00   -0.08  0.00  0.00   -0.00  0.00 -0.08   
      2   C                0.00 -0.17  0.00    0.15  0.00 -0.00    0.00 -0.00 -0.00   
      3   H                0.00  0.70 -0.00   -0.25 -0.00  0.65   -0.35  0.00  0.61   
      4   H               -0.00  0.70 -0.00   -0.25 -0.00 -0.65    0.35  0.00  0.61   

  Vibration                       10                  11                  12          
  Freq [cm^-1]                1846.5139           2914.6141           2978.3249       
  Irrep                           A1                  A1                  B1          
  Reduced mass [u]              7.9528              1.0438              1.1201        
  Force const [mDyne/A]        15.9762              5.2241              5.8542        
  Turning point v=0 [a0]        0.0905              0.1989              0.1900        
  RMS dev v=0 [a0 u^1/2]        0.1806              0.1437              0.1422        
  Char temp [K]               2656.7224           4193.4807           4285.1464       
  ----------------------------------------------------------------------------------
      1   O                0.00  0.00 -0.44    0.00 -0.00 -0.00    0.00 -0.00  0.00   
      2   C                0.00 -0.00  0.61   -0.00  0.00 -0.06   -0.10  0.00  0.00   
      3   H                0.43  0.00 -0.18    0.61 -0.00  0.35    0.60  0.00  0.37   
      4   H               -0.43  0.00 -0.18   -0.61 -0.00  0.35    0.60  0.00 -0.37   

  ==> Thermochemistry Components <==

  Entropy, S
    Electronic S            0.000 [cal/(mol K)]        0.000 [J/(mol K)]       0.00000000 [mEh/K] (multiplicity = 1)
    Translational S        36.130 [cal/(mol K)]      151.169 [J/(mol K)]       0.05757719 [mEh/K] (mol. weight = 30.0106 [u], P = 101325.00 [Pa])
    Rotational S           15.987 [cal/(mol K)]       66.891 [J/(mol K)]       0.02547757 [mEh/K] (symmetry no. = 2)
    Vibrational S           0.084 [cal/(mol K)]        0.353 [J/(mol K)]       0.00013450 [mEh/K]
  Total S                  52.202 [cal/(mol K)]      218.413 [J/(mol K)]       0.08318926 [mEh/K]
  Correction S              0.000 [cal/(mol K)]        0.000 [J/(mol K)]       0.00000000 [mEh/K]

  Constant volume heat capacity, Cv
    Electronic Cv           0.000 [cal/(mol K)]        0.000 [J/(mol K)]       0.00000000 [mEh/K]
    Translational Cv        2.981 [cal/(mol K)]       12.472 [J/(mol K)]       0.00475022 [mEh/K]
    Rotational Cv           2.981 [cal/(mol K)]       12.472 [J/(mol K)]       0.00475022 [mEh/K]
    Vibrational Cv          0.454 [cal/(mol K)]        1.898 [J/(mol K)]       0.00072309 [mEh/K]
  Total Cv                  6.415 [cal/(mol K)]       26.842 [J/(mol K)]       0.01022352 [mEh/K]
  Correction Cv             0.000 [cal/(mol K)]        0.000 [J/(mol K)]       0.00000000 [mEh/K]

  Constant pressure heat capacity, Cp
    Electronic Cp           0.000 [cal/(mol K)]        0.000 [J/(mol K)]       0.00000000 [mEh/K]
    Translational Cp        4.968 [cal/(mol K)]       20.786 [J/(mol K)]       0.00791703 [mEh/K]
    Rotational Cp           2.981 [cal/(mol K)]       12.472 [J/(mol K)]       0.00475022 [mEh/K]
    Vibrational Cp          0.454 [cal/(mol K)]        1.898 [J/(mol K)]       0.00072309 [mEh/K]
  Total Cp                  8.403 [cal/(mol K)]       35.156 [J/(mol K)]       0.01339033 [mEh/K]
  Correction Cp             0.000 [cal/(mol K)]        0.000 [J/(mol K)]       0.00000000 [mEh/K]

  ==> Thermochemistry Energy Analysis <==

  Raw electronic energy, E0
  Total E0, Electronic energy at well bottom at 0 [K]                 -114.51282074 [Eh]

  Zero-point energy, ZPE_vib = Sum_i nu_i / 2
    Electronic ZPE          0.000 [kcal/mol]        0.000 [kJ/mol]       0.00000000 [Eh]
    Translational ZPE       0.000 [kcal/mol]        0.000 [kJ/mol]       0.00000000 [Eh]
    Rotational ZPE          0.000 [kcal/mol]        0.000 [kJ/mol]       0.00000000 [Eh]
    Vibrational ZPE        16.792 [kcal/mol]       70.259 [kJ/mol]       0.02676022 [Eh]        5873.189 [cm^-1]
  Correction ZPE           16.792 [kcal/mol]       70.259 [kJ/mol]       0.02676022 [Eh]        5873.189 [cm^-1]
  Total ZPE, Electronic energy at 0 [K]                               -114.48606053 [Eh]

  Thermal Energy, E (includes ZPE)
    Electronic E            0.000 [kcal/mol]        0.000 [kJ/mol]       0.00000000 [Eh]
    Translational E         0.889 [kcal/mol]        3.718 [kJ/mol]       0.00141628 [Eh]
    Rotational E            0.889 [kcal/mol]        3.718 [kJ/mol]       0.00141628 [Eh]
    Vibrational E          16.814 [kcal/mol]       70.350 [kJ/mol]       0.02679473 [Eh]
  Correction E             18.591 [kcal/mol]       77.786 [kJ/mol]       0.02962728 [Eh]
  Total E, Electronic energy at  298.15 [K]                           -114.48319346 [Eh]

  Enthalpy, H_trans = E_trans + k_B * T
    Electronic H            0.000 [kcal/mol]        0.000 [kJ/mol]       0.00000000 [Eh]
    Translational H         1.481 [kcal/mol]        6.197 [kJ/mol]       0.00236046 [Eh]
    Rotational H            0.889 [kcal/mol]        3.718 [kJ/mol]       0.00141628 [Eh]
    Vibrational H          16.814 [kcal/mol]       70.350 [kJ/mol]       0.02679473 [Eh]
  Correction H             19.184 [kcal/mol]       80.265 [kJ/mol]       0.03057147 [Eh]
  Total H, Enthalpy at  298.15 [K]                                    -114.48224928 [Eh]

  Gibbs free energy, G = H - T * S
    Electronic G            0.000 [kcal/mol]        0.000 [kJ/mol]       0.00000000 [Eh]
    Translational G        -9.291 [kcal/mol]      -38.874 [kJ/mol]      -0.01480618 [Eh]
    Rotational G           -3.878 [kcal/mol]      -16.225 [kJ/mol]      -0.00617986 [Eh]
    Vibrational G          16.789 [kcal/mol]       70.244 [kJ/mol]       0.02675463 [Eh]
  Correction G              3.620 [kcal/mol]       15.145 [kJ/mol]       0.00576859 [Eh]
  Total G, Free enthalpy at  298.15 [K]                               -114.50705215 [Eh]

    Psi4 stopped on: Wednesday, 28 April 2021 08:57AM
    Psi4 wall time for execution: 0:04:04.30

*** Psi4 exiting successfully. Buy a developer a beer!
