
    -----------------------------------------------------------------------
          Psi4: An Open-Source Ab Initio Electronic Structure Package
                               Psi4 1.3.2 release

                         Git: Rev {HEAD} ecbda83 


    R. M. Parrish, L. A. Burns, D. G. A. Smith, A. C. Simmonett,
    A. E. DePrince III, E. G. Hohenstein, U. Bozkaya, A. Yu. Sokolov,
    R. Di Remigio, R. M. Richard, J. F. Gonthier, A. M. James,
    H. R. McAlexander, A. Kumar, M. Saitow, X. Wang, B. P. Pritchard,
    P. Verma, H. F. Schaefer III, K. Patkowski, R. A. King, E. F. Valeev,
    F. A. Evangelista, J. M. Turney, T. D. Crawford, and C. D. Sherrill,
    J. Chem. Theory Comput. 13(7) pp 3185--3197 (2017).
    (doi: 10.1021/acs.jctc.7b00174)


                         Additional Contributions by
    P. Kraus, H. Kruse, M. H. Lechner, M. C. Schieber, R. A. Shaw,
    A. Alenaizan, R. Galvelis, Z. L. Glick, S. Lehtola, and J. P. Misiewicz

    -----------------------------------------------------------------------


    Psi4 started on: Tuesday, 27 April 2021 05:13PM

    Process ID: 235673
    Host:       bp1-compute00138.data.bp.acrc.priv
    PSIDATADIR: /work/zw18965/.conda/envs/p4env/share/psi4
    Memory:     500.0 MiB
    Threads:    24
    
  ==> Input File <==

--------------------------------------------------------------------------
memory 144 GB

molecule {
0 1
H 0.0000000000 0.0000000000 0.0000000000
C 0.0000000000 0.0000000000 1.0668000000
N 0.0000000000 0.0000000000 2.2232000000
}

set dynamic_level 1
set basis cc-pV(Q+d)Z
 
optimize("wB97M-V")
frequencies("wB97M-V")
--------------------------------------------------------------------------

  Memory set to 134.110 GiB by Python driver.
gradient() will perform gradient computation by finite difference of analytic energies.

         ----------------------------------------------------------
                                   FINDIF
                     R. A. King and Jonathon Misiewicz
         ---------------------------------------------------------

  Using finite-differences of energies to determine gradients.
    Generating geometries for use with 3-point formula.
    Displacement size will be 5.00e-03.
    Number of atoms is 3.
    Number of symmetric SALCs is 2.
    Translations projected? 1. Rotations projected? 1.
    Number of geometries (including reference) is 5.

  //>>>>>>>>>>>>>>>>>>>>>>>>>>>>>>>>>>>//
  //    Loading displacement 1 of 5    //
  //<<<<<<<<<<<<<<<<<<<<<<<<<<<<<<<<<<<//

*** tstart() called on bp1-compute00138.data.bp.acrc.priv
*** at Tue Apr 27 17:13:16 2021

   => Loading Basis Set <=

    Name: CC-PV(Q+D)Z
    Role: ORBITAL
    Keyword: BASIS
    atoms 1 entry H          line    32 file /work/zw18965/.conda/envs/p4env/share/psi4/basis/cc-pv_qpd_z.gbs 
    atoms 2 entry C          line   249 file /work/zw18965/.conda/envs/p4env/share/psi4/basis/cc-pv_qpd_z.gbs 
    atoms 3 entry N          line   299 file /work/zw18965/.conda/envs/p4env/share/psi4/basis/cc-pv_qpd_z.gbs 


         ---------------------------------------------------------
                                   SCF
               by Justin Turney, Rob Parrish, Andy Simmonett
                          and Daniel G. A. Smith
                              RKS Reference
                       24 Threads, 137329 MiB Core
         ---------------------------------------------------------

  ==> Geometry <==

    Molecular point group: c2v
    Full point group: C_inf_v

    Geometry (in Angstrom), charge = 0, multiplicity = 1:

       Center              X                  Y                   Z               Mass       
    ------------   -----------------  -----------------  -----------------  -----------------
         H            0.000000000000     0.000000000000    -1.626500253361     1.007825032230
         C            0.000000000000     0.000000000000    -0.559700253361    12.000000000000
         N            0.000000000000     0.000000000000     0.596699746639    14.003074004430

  Running in c2v symmetry.

  Rotational constants: A = ************  B =      1.47729  C =      1.47729 [cm^-1]
  Rotational constants: A = ************  B =  44288.06083  C =  44288.06083 [MHz]
  Nuclear repulsion =   23.861936158778459

  Charge       = 0
  Multiplicity = 1
  Electrons    = 14
  Nalpha       = 7
  Nbeta        = 7

  ==> Algorithm <==

  SCF Algorithm Type is DF.
  DIIS enabled.
  MOM disabled.
  Fractional occupation disabled.
  Guess Type is SAD.
  Energy threshold   = 1.00e-08
  Density threshold  = 1.00e-08
  Integral threshold = 0.00e+00

  ==> Primary Basis <==

  Basis Set: CC-PV(Q+D)Z
    Blend: CC-PV(Q+D)Z
    Number of shells: 40
    Number of basis function: 140
    Number of Cartesian functions: 175
    Spherical Harmonics?: true
    Max angular momentum: 4

  ==> DFT Potential <==

   => Composite Functional: WB97M-V <= 

    wB97M-V Hyb-GGA Exchange-Correlation Functional

    N. Mardirossian and M. Head-Gordon, J. Chem. Phys. 144, 214110 (2016)

    Deriv               =              1
    GGA                 =           TRUE
    Meta                =           TRUE

    Exchange Hybrid     =           TRUE
    MP2 Hybrid          =          FALSE

   => Exchange-Correlation Functionals <=

    1.0000   wB97M-V exchange-correlation functional

   => Exact (HF) Exchange <=

    0.8500            HF,LR [omega = 0.3000]
    0.1500               HF 

   => VV10 Non-Local Parameters <=

    VV10 B              =     6.0000E+00
    VV10 C              =     1.0000E-02

   => Molecular Quadrature <=

    Radial Scheme          =       TREUTLER
    Pruning Scheme         =           FLAT
    Nuclear Scheme         =       TREUTLER

    BS radius alpha        =              1
    Pruning alpha          =              1
    Radial Points          =             75
    Spherical Points       =            302
    Total Points           =          66313
    Total Blocks           =            562
    Max Points             =            256
    Max Functions          =            140

   => Loading Basis Set <=

    Name: (CC-PV(Q+D)Z AUX)
    Role: JKFIT
    Keyword: DF_BASIS_SCF
    atoms 1 entry H          line    51 file /work/zw18965/.conda/envs/p4env/share/psi4/basis/cc-pvqz-jkfit.gbs 
    atoms 2 entry C          line   137 file /work/zw18965/.conda/envs/p4env/share/psi4/basis/cc-pvqz-jkfit.gbs 
    atoms 3 entry N          line   195 file /work/zw18965/.conda/envs/p4env/share/psi4/basis/cc-pvqz-jkfit.gbs 

  ==> Pre-Iterations <==

   -------------------------------------------------------
    Irrep   Nso     Nmo     Nalpha   Nbeta   Ndocc  Nsocc
   -------------------------------------------------------
     A1        57      57       0       0       0       0
     A2        17      17       0       0       0       0
     B1        33      33       0       0       0       0
     B2        33      33       0       0       0       0
   -------------------------------------------------------
    Total     140     140       7       7       7       0
   -------------------------------------------------------

  ==> Integral Setup <==

  ==> DiskDFJK: Density-Fitted J/K Matrices <==

    J tasked:                  Yes
    K tasked:                  Yes
    wK tasked:                 Yes
    Omega:               3.000E-01
    OpenMP threads:             24
    Integrals threads:          24
    Memory [MiB]:           102395
    Algorithm:                Core
    Integral Cache:           NONE
    Schwarz Cutoff:          1E-12
    Fitting Condition:       1E-10

   => Auxiliary Basis Set <=

  Basis Set: (CC-PV(Q+D)Z AUX)
    Blend: CC-PVQZ-JKFIT
    Number of shells: 69
    Number of basis function: 263
    Number of Cartesian functions: 350
    Spherical Harmonics?: true
    Max angular momentum: 5

  Cached 100.0% of DFT collocation blocks in 0.587 [GiB].

  Minimum eigenvalue in the overlap matrix is 1.8906430446E-04.
  Using Symmetric Orthogonalization.

  SCF Guess: Superposition of Atomic Densities via on-the-fly atomic UHF.

  ==> Iterations <==

                           Total Energy        Delta E     RMS |[F,P]|

   @DF-RKS iter SAD:   -92.60226081544315   -9.26023e+01   0.00000e+00 
   @DF-RKS iter   1:   -93.34778425562432   -7.45523e-01   6.13572e-03 DIIS
   @DF-RKS iter   2:   -93.31203770146207    3.57466e-02   7.20904e-03 DIIS
   @DF-RKS iter   3:   -93.43240984059062   -1.20372e-01   1.16874e-03 DIIS
   @DF-RKS iter   4:   -93.43573601414184   -3.32617e-03   1.39817e-04 DIIS
   @DF-RKS iter   5:   -93.43577966150400   -4.36474e-05   2.11201e-05 DIIS
   @DF-RKS iter   6:   -93.43578099021136   -1.32871e-06   4.37758e-06 DIIS
   @DF-RKS iter   7:   -93.43578107501543   -8.48041e-08   5.75190e-07 DIIS
   @DF-RKS iter   8:   -93.43578107732823   -2.31280e-09   4.81205e-08 DIIS
   @DF-RKS iter   9:   -93.43578107734326   -1.50351e-11   8.00539e-09 DIIS
  Energy and wave function converged.


  ==> Post-Iterations <==

    Orbital Energies [Eh]
    ---------------------

    Doubly Occupied:                                                      

       1A1   -14.530914     2A1   -10.398282     3A1    -1.048494  
       4A1    -0.720678     5A1    -0.497737     1B2    -0.468558  
       1B1    -0.468558  

    Virtual:                                                              

       6A1     0.082797     2B2     0.089903     2B1     0.089903  
       7A1     0.147413     3B2     0.279286     3B1     0.279286  
       8A1     0.299941     9A1     0.358709    10A1     0.436977  
       4B1     0.460757     4B2     0.460757     1A2     0.531116  
      11A1     0.531116     5B1     0.603581     5B2     0.603581  
      12A1     0.664023    13A1     0.842580    14A1     0.970898  
       2A2     0.970899    15A1     0.990912     6B2     0.992602  
       6B1     0.992602    16A1     1.083455    17A1     1.232557  
       7B2     1.248163     7B1     1.248163     8B1     1.322233  
       8B2     1.322233    18A1     1.367774    19A1     1.632155  
       9B2     1.732818     9B1     1.732818    10B2     1.789557  
      10B1     1.789557     3A2     1.814428    20A1     1.814432  
      21A1     1.865110     4A2     1.865111    22A1     2.146590  
      11B2     2.159773    11B1     2.159773    12B2     2.251226  
      12B1     2.251226    23A1     2.362529     5A2     2.440126  
      24A1     2.440132    25A1     2.551049    13B2     2.633973  
      13B1     2.633973    14B2     2.756213    14B1     2.756213  
      26A1     2.891468    27A1     2.949713     6A2     2.949720  
      28A1     2.993010    15B2     3.145114    15B1     3.145114  
      29A1     3.374899     7A2     3.374903    30A1     3.394165  
      31A1     3.739147    16B1     3.780172    16B2     3.780172  
      17B2     4.020040    17B1     4.020040    32A1     4.042773  
      33A1     4.657104    18B1     4.794142    18B2     4.794142  
      34A1     4.834068     8A2     4.834076     9A2     5.438461  
      35A1     5.438473    19B1     5.516012    19B2     5.516012  
      36A1     5.652994    20B2     5.704251    20B1     5.704251  
      37A1     5.713616    10A2     5.713618    21B2     5.913084  
      21B1     5.913084    22B2     6.044423    22B1     6.044423  
      23B1     6.076842    23B2     6.076842    38A1     6.092137  
      11A2     6.092138    39A1     6.238890    12A2     6.923682  
      40A1     6.923701    41A1     7.055467    24B1     7.079415  
      24B2     7.079415    42A1     7.183742    25B1     7.403708  
      25B2     7.403708    13A2     7.437563    43A1     7.437579  
      26B2     7.524758    26B1     7.524758    44A1     7.525346  
      14A2     7.944195    45A1     7.944227    27B2     8.033810  
      27B1     8.033810    46A1     8.296653    28B2     8.433060  
      28B1     8.433060    29B1     8.535524    29B2     8.535524  
      47A1     8.598174    15A2     8.598189    48A1     8.695863  
      30B1     8.780597    30B2     8.780597    16A2     8.970197  
      49A1     8.970199    50A1     9.016542    31B1     9.662056  
      31B2     9.662056    17A2     9.674521    51A1     9.674533  
      52A1     9.757427    53A1    10.128474    32B2    10.874210  
      32B1    10.874210    54A1    11.845019    33B1    12.170002  
      33B2    12.170002    55A1    13.805454    56A1    24.807395  
      57A1    31.773015  

    Final Occupation by Irrep:
             A1    A2    B1    B2 
    DOCC [     5,    0,    1,    1 ]

  @DF-RKS Final Energy:   -93.43578107734326

   => Energetics <=

    Nuclear Repulsion Energy =             23.8619361587784589
    One-Electron Energy =                -172.7204228388727074
    Two-Electron Energy =                  64.3265715151439963
    DFT Exchange-Correlation Energy =      -8.9622333373287866
    Empirical Dispersion Energy =           0.0000000000000000
    VV10 Nonlocal Energy =                  0.0583674249357691
    Total Energy =                        -93.4357810773432647

Computation Completed


Properties will be evaluated at   0.000000,   0.000000,   0.000000 [a0]

Properties computed using the SCF density matrix

  Nuclear Dipole Moment: [e a0]
     X:     0.0000      Y:     0.0000      Z:    -1.5265

  Electronic Dipole Moment: [e a0]
     X:     0.0000      Y:     0.0000      Z:     0.3346

  Dipole Moment: [e a0]
     X:     0.0000      Y:     0.0000      Z:    -1.1920     Total:     1.1920

  Dipole Moment: [D]
     X:     0.0000      Y:     0.0000      Z:    -3.0296     Total:     3.0296


*** tstop() called on bp1-compute00138.data.bp.acrc.priv at Tue Apr 27 17:13:21 2021
Module time:
	user time   =      87.05 seconds =       1.45 minutes
	system time =       4.42 seconds =       0.07 minutes
	total time  =          5 seconds =       0.08 minutes
Total time:
	user time   =      87.05 seconds =       1.45 minutes
	system time =       4.42 seconds =       0.07 minutes
	total time  =          5 seconds =       0.08 minutes

  //>>>>>>>>>>>>>>>>>>>>>>>>>>>>>>>>>>>//
  //    Loading displacement 2 of 5    //
  //<<<<<<<<<<<<<<<<<<<<<<<<<<<<<<<<<<<//

*** tstart() called on bp1-compute00138.data.bp.acrc.priv
*** at Tue Apr 27 17:13:21 2021

   => Loading Basis Set <=

    Name: CC-PV(Q+D)Z
    Role: ORBITAL
    Keyword: BASIS
    atoms 1 entry H          line    32 file /work/zw18965/.conda/envs/p4env/share/psi4/basis/cc-pv_qpd_z.gbs 
    atoms 2 entry C          line   249 file /work/zw18965/.conda/envs/p4env/share/psi4/basis/cc-pv_qpd_z.gbs 
    atoms 3 entry N          line   299 file /work/zw18965/.conda/envs/p4env/share/psi4/basis/cc-pv_qpd_z.gbs 


         ---------------------------------------------------------
                                   SCF
               by Justin Turney, Rob Parrish, Andy Simmonett
                          and Daniel G. A. Smith
                              RKS Reference
                       24 Threads, 137329 MiB Core
         ---------------------------------------------------------

  ==> Geometry <==

    Molecular point group: c2v
    Full point group: C_inf_v

    Geometry (in Angstrom), charge = 0, multiplicity = 1:

       Center              X                  Y                   Z               Mass       
    ------------   -----------------  -----------------  -----------------  -----------------
         H            0.000000000000     0.000000000000    -1.629086210919     1.007825032230
         C            0.000000000000     0.000000000000    -0.559600027028    12.000000000000
         N            0.000000000000     0.000000000000     0.596799972972    14.003074004430

  Running in c2v symmetry.

  Rotational constants: A = ************  B =      1.47615  C =      1.47615 [cm^-1]
  Rotational constants: A = ************  B =  44253.88092  C =  44253.88092 [MHz]
  Nuclear repulsion =   23.852450107742836

  Charge       = 0
  Multiplicity = 1
  Electrons    = 14
  Nalpha       = 7
  Nbeta        = 7

  ==> Algorithm <==

  SCF Algorithm Type is DF.
  DIIS enabled.
  MOM disabled.
  Fractional occupation disabled.
  Guess Type is SAD.
  Energy threshold   = 1.00e-08
  Density threshold  = 1.00e-08
  Integral threshold = 0.00e+00

  ==> Primary Basis <==

  Basis Set: CC-PV(Q+D)Z
    Blend: CC-PV(Q+D)Z
    Number of shells: 40
    Number of basis function: 140
    Number of Cartesian functions: 175
    Spherical Harmonics?: true
    Max angular momentum: 4

  ==> DFT Potential <==

   => Composite Functional: WB97M-V <= 

    wB97M-V Hyb-GGA Exchange-Correlation Functional

    N. Mardirossian and M. Head-Gordon, J. Chem. Phys. 144, 214110 (2016)

    Deriv               =              1
    GGA                 =           TRUE
    Meta                =           TRUE

    Exchange Hybrid     =           TRUE
    MP2 Hybrid          =          FALSE

   => Exchange-Correlation Functionals <=

    1.0000   wB97M-V exchange-correlation functional

   => Exact (HF) Exchange <=

    0.8500            HF,LR [omega = 0.3000]
    0.1500               HF 

   => VV10 Non-Local Parameters <=

    VV10 B              =     6.0000E+00
    VV10 C              =     1.0000E-02

   => Molecular Quadrature <=

    Radial Scheme          =       TREUTLER
    Pruning Scheme         =           FLAT
    Nuclear Scheme         =       TREUTLER

    BS radius alpha        =              1
    Pruning alpha          =              1
    Radial Points          =             75
    Spherical Points       =            302
    Total Points           =          66313
    Total Blocks           =            562
    Max Points             =            256
    Max Functions          =            140

   => Loading Basis Set <=

    Name: (CC-PV(Q+D)Z AUX)
    Role: JKFIT
    Keyword: DF_BASIS_SCF
    atoms 1 entry H          line    51 file /work/zw18965/.conda/envs/p4env/share/psi4/basis/cc-pvqz-jkfit.gbs 
    atoms 2 entry C          line   137 file /work/zw18965/.conda/envs/p4env/share/psi4/basis/cc-pvqz-jkfit.gbs 
    atoms 3 entry N          line   195 file /work/zw18965/.conda/envs/p4env/share/psi4/basis/cc-pvqz-jkfit.gbs 

  ==> Pre-Iterations <==

   -------------------------------------------------------
    Irrep   Nso     Nmo     Nalpha   Nbeta   Ndocc  Nsocc
   -------------------------------------------------------
     A1        57      57       0       0       0       0
     A2        17      17       0       0       0       0
     B1        33      33       0       0       0       0
     B2        33      33       0       0       0       0
   -------------------------------------------------------
    Total     140     140       7       7       7       0
   -------------------------------------------------------

  ==> Integral Setup <==

  ==> DiskDFJK: Density-Fitted J/K Matrices <==

    J tasked:                  Yes
    K tasked:                  Yes
    wK tasked:                 Yes
    Omega:               3.000E-01
    OpenMP threads:             24
    Integrals threads:          24
    Memory [MiB]:           102395
    Algorithm:                Core
    Integral Cache:           NONE
    Schwarz Cutoff:          1E-12
    Fitting Condition:       1E-10

   => Auxiliary Basis Set <=

  Basis Set: (CC-PV(Q+D)Z AUX)
    Blend: CC-PVQZ-JKFIT
    Number of shells: 69
    Number of basis function: 263
    Number of Cartesian functions: 350
    Spherical Harmonics?: true
    Max angular momentum: 5

  Cached 100.0% of DFT collocation blocks in 0.587 [GiB].

  Minimum eigenvalue in the overlap matrix is 1.9000244714E-04.
  Using Symmetric Orthogonalization.

  SCF Guess: Superposition of Atomic Densities via on-the-fly atomic UHF.

  ==> Iterations <==

                           Total Energy        Delta E     RMS |[F,P]|

   @DF-RKS iter SAD:   -92.60174003424312   -9.26017e+01   0.00000e+00 
   @DF-RKS iter   1:   -93.34746161677245   -7.45722e-01   6.14565e-03 DIIS
   @DF-RKS iter   2:   -93.31127477755837    3.61868e-02   7.22965e-03 DIIS
   @DF-RKS iter   3:   -93.43240553927816   -1.21131e-01   1.16745e-03 DIIS
   @DF-RKS iter   4:   -93.43572573944118   -3.32020e-03   1.40101e-04 DIIS
   @DF-RKS iter   5:   -93.43576958817886   -4.38487e-05   2.11640e-05 DIIS
   @DF-RKS iter   6:   -93.43577092393117   -1.33575e-06   4.39367e-06 DIIS
   @DF-RKS iter   7:   -93.43577100944380   -8.55126e-08   5.77964e-07 DIIS
   @DF-RKS iter   8:   -93.43577101178325   -2.33945e-09   4.82613e-08 DIIS
   @DF-RKS iter   9:   -93.43577101179835   -1.51061e-11   8.05698e-09 DIIS
  Energy and wave function converged.


  ==> Post-Iterations <==

    Orbital Energies [Eh]
    ---------------------

    Doubly Occupied:                                                      

       1A1   -14.530871     2A1   -10.398469     3A1    -1.048463  
       4A1    -0.719872     5A1    -0.497680     1B1    -0.468517  
       1B2    -0.468517  

    Virtual:                                                              

       6A1     0.082555     2B1     0.089941     2B2     0.089941  
       7A1     0.147310     3B1     0.279335     3B2     0.279335  
       8A1     0.299917     9A1     0.357814    10A1     0.436932  
       4B1     0.460824     4B2     0.460824     1A2     0.531152  
      11A1     0.531152     5B2     0.603142     5B1     0.603142  
      12A1     0.664065    13A1     0.842236    14A1     0.970925  
       2A2     0.970926    15A1     0.990987     6B2     0.992317  
       6B1     0.992317    16A1     1.083039    17A1     1.232155  
       7B1     1.248335     7B2     1.248335     8B2     1.322384  
       8B1     1.322384    18A1     1.366576    19A1     1.632519  
       9B1     1.732863     9B2     1.732863    10B2     1.789601  
      10B1     1.789601     3A2     1.813905    20A1     1.813909  
      21A1     1.865115     4A2     1.865115    22A1     2.147361  
      11B2     2.159848    11B1     2.159848    12B1     2.250535  
      12B2     2.250535    23A1     2.361557     5A2     2.438469  
      24A1     2.438475    25A1     2.549970    13B2     2.634013  
      13B1     2.634013    14B1     2.755523    14B2     2.755523  
      26A1     2.891024    27A1     2.949709     6A2     2.949717  
      28A1     2.992872    15B2     3.143111    15B1     3.143111  
      29A1     3.373764     7A2     3.373768    30A1     3.392025  
      31A1     3.737976    16B2     3.779463    16B1     3.779463  
      17B2     4.020015    17B1     4.020015    32A1     4.042581  
      33A1     4.655548    18B2     4.794476    18B1     4.794476  
      34A1     4.834084     8A2     4.834091     9A2     5.435852  
      35A1     5.435864    19B2     5.515808    19B1     5.515808  
      36A1     5.653959    20B2     5.702955    20B1     5.702955  
      37A1     5.714658    10A2     5.714660    21B2     5.913591  
      21B1     5.913591    22B2     6.037876    22B1     6.037876  
      23B2     6.073138    23B1     6.073138    38A1     6.090812  
      11A2     6.090813    39A1     6.238952    12A2     6.923724  
      40A1     6.923743    41A1     7.054441    24B2     7.085157  
      24B1     7.085157    42A1     7.177988    25B2     7.402874  
      25B1     7.402874    13A2     7.430255    43A1     7.430269  
      26B1     7.521405    26B2     7.521405    44A1     7.524565  
      14A2     7.941974    45A1     7.942006    27B1     8.032236  
      27B2     8.032236    46A1     8.297066    28B2     8.433229  
      28B1     8.433229    29B1     8.535565    29B2     8.535565  
      47A1     8.596270    15A2     8.596285    48A1     8.696230  
      30B2     8.774870    30B1     8.774870    16A2     8.968808  
      49A1     8.968811    50A1     9.016064    31B1     9.653126  
      31B2     9.653126    17A2     9.670626    51A1     9.670638  
      52A1     9.757191    53A1    10.117949    32B1    10.863425  
      32B2    10.863425    54A1    11.837500    33B2    12.165148  
      33B1    12.165148    55A1    13.786519    56A1    24.789505  
      57A1    31.772427  

    Final Occupation by Irrep:
             A1    A2    B1    B2 
    DOCC [     5,    0,    1,    1 ]

  @DF-RKS Final Energy:   -93.43577101179835

   => Energetics <=

    Nuclear Repulsion Energy =             23.8524501077428361
    One-Electron Energy =                -172.7035698462844096
    Two-Electron Energy =                  64.3184286522148909
    DFT Exchange-Correlation Energy =      -8.9614460531338587
    Empirical Dispersion Energy =           0.0000000000000000
    VV10 Nonlocal Energy =                  0.0583661276621757
    Total Energy =                        -93.4357710117983515

Computation Completed


Properties will be evaluated at   0.000000,   0.000000,   0.000000 [a0]

Properties computed using the SCF density matrix

  Nuclear Dipole Moment: [e a0]
     X:     0.0000      Y:     0.0000      Z:    -1.5290

  Electronic Dipole Moment: [e a0]
     X:     0.0000      Y:     0.0000      Z:     0.3357

  Dipole Moment: [e a0]
     X:     0.0000      Y:     0.0000      Z:    -1.1933     Total:     1.1933

  Dipole Moment: [D]
     X:     0.0000      Y:     0.0000      Z:    -3.0330     Total:     3.0330


*** tstop() called on bp1-compute00138.data.bp.acrc.priv at Tue Apr 27 17:13:25 2021
Module time:
	user time   =      93.33 seconds =       1.56 minutes
	system time =       3.91 seconds =       0.07 minutes
	total time  =          4 seconds =       0.07 minutes
Total time:
	user time   =     180.55 seconds =       3.01 minutes
	system time =       8.34 seconds =       0.14 minutes
	total time  =          9 seconds =       0.15 minutes

  //>>>>>>>>>>>>>>>>>>>>>>>>>>>>>>>>>>>//
  //    Loading displacement 3 of 5    //
  //<<<<<<<<<<<<<<<<<<<<<<<<<<<<<<<<<<<//

*** tstart() called on bp1-compute00138.data.bp.acrc.priv
*** at Tue Apr 27 17:13:25 2021

   => Loading Basis Set <=

    Name: CC-PV(Q+D)Z
    Role: ORBITAL
    Keyword: BASIS
    atoms 1 entry H          line    32 file /work/zw18965/.conda/envs/p4env/share/psi4/basis/cc-pv_qpd_z.gbs 
    atoms 2 entry C          line   249 file /work/zw18965/.conda/envs/p4env/share/psi4/basis/cc-pv_qpd_z.gbs 
    atoms 3 entry N          line   299 file /work/zw18965/.conda/envs/p4env/share/psi4/basis/cc-pv_qpd_z.gbs 


         ---------------------------------------------------------
                                   SCF
               by Justin Turney, Rob Parrish, Andy Simmonett
                          and Daniel G. A. Smith
                              RKS Reference
                       24 Threads, 137329 MiB Core
         ---------------------------------------------------------

  ==> Geometry <==

    Molecular point group: c2v
    Full point group: C_inf_v

    Geometry (in Angstrom), charge = 0, multiplicity = 1:

       Center              X                  Y                   Z               Mass       
    ------------   -----------------  -----------------  -----------------  -----------------
         H            0.000000000000     0.000000000000    -1.623914295803     1.007825032230
         C            0.000000000000     0.000000000000    -0.559800479695    12.000000000000
         N            0.000000000000     0.000000000000     0.596599520305    14.003074004430

  Running in c2v symmetry.

  Rotational constants: A = ************  B =      1.47843  C =      1.47843 [cm^-1]
  Rotational constants: A = ************  B =  44322.23916  C =  44322.23916 [MHz]
  Nuclear repulsion =   23.871464815116820

  Charge       = 0
  Multiplicity = 1
  Electrons    = 14
  Nalpha       = 7
  Nbeta        = 7

  ==> Algorithm <==

  SCF Algorithm Type is DF.
  DIIS enabled.
  MOM disabled.
  Fractional occupation disabled.
  Guess Type is SAD.
  Energy threshold   = 1.00e-08
  Density threshold  = 1.00e-08
  Integral threshold = 0.00e+00

  ==> Primary Basis <==

  Basis Set: CC-PV(Q+D)Z
    Blend: CC-PV(Q+D)Z
    Number of shells: 40
    Number of basis function: 140
    Number of Cartesian functions: 175
    Spherical Harmonics?: true
    Max angular momentum: 4

  ==> DFT Potential <==

   => Composite Functional: WB97M-V <= 

    wB97M-V Hyb-GGA Exchange-Correlation Functional

    N. Mardirossian and M. Head-Gordon, J. Chem. Phys. 144, 214110 (2016)

    Deriv               =              1
    GGA                 =           TRUE
    Meta                =           TRUE

    Exchange Hybrid     =           TRUE
    MP2 Hybrid          =          FALSE

   => Exchange-Correlation Functionals <=

    1.0000   wB97M-V exchange-correlation functional

   => Exact (HF) Exchange <=

    0.8500            HF,LR [omega = 0.3000]
    0.1500               HF 

   => VV10 Non-Local Parameters <=

    VV10 B              =     6.0000E+00
    VV10 C              =     1.0000E-02

   => Molecular Quadrature <=

    Radial Scheme          =       TREUTLER
    Pruning Scheme         =           FLAT
    Nuclear Scheme         =       TREUTLER

    BS radius alpha        =              1
    Pruning alpha          =              1
    Radial Points          =             75
    Spherical Points       =            302
    Total Points           =          66313
    Total Blocks           =            562
    Max Points             =            256
    Max Functions          =            140

   => Loading Basis Set <=

    Name: (CC-PV(Q+D)Z AUX)
    Role: JKFIT
    Keyword: DF_BASIS_SCF
    atoms 1 entry H          line    51 file /work/zw18965/.conda/envs/p4env/share/psi4/basis/cc-pvqz-jkfit.gbs 
    atoms 2 entry C          line   137 file /work/zw18965/.conda/envs/p4env/share/psi4/basis/cc-pvqz-jkfit.gbs 
    atoms 3 entry N          line   195 file /work/zw18965/.conda/envs/p4env/share/psi4/basis/cc-pvqz-jkfit.gbs 

  ==> Pre-Iterations <==

   -------------------------------------------------------
    Irrep   Nso     Nmo     Nalpha   Nbeta   Ndocc  Nsocc
   -------------------------------------------------------
     A1        57      57       0       0       0       0
     A2        17      17       0       0       0       0
     B1        33      33       0       0       0       0
     B2        33      33       0       0       0       0
   -------------------------------------------------------
    Total     140     140       7       7       7       0
   -------------------------------------------------------

  ==> Integral Setup <==

  ==> DiskDFJK: Density-Fitted J/K Matrices <==

    J tasked:                  Yes
    K tasked:                  Yes
    wK tasked:                 Yes
    Omega:               3.000E-01
    OpenMP threads:             24
    Integrals threads:          24
    Memory [MiB]:           102395
    Algorithm:                Core
    Integral Cache:           NONE
    Schwarz Cutoff:          1E-12
    Fitting Condition:       1E-10

   => Auxiliary Basis Set <=

  Basis Set: (CC-PV(Q+D)Z AUX)
    Blend: CC-PVQZ-JKFIT
    Number of shells: 69
    Number of basis function: 263
    Number of Cartesian functions: 350
    Spherical Harmonics?: true
    Max angular momentum: 5

  Cached 100.0% of DFT collocation blocks in 0.587 [GiB].

  Minimum eigenvalue in the overlap matrix is 1.8808806180E-04.
  Using Symmetric Orthogonalization.

  SCF Guess: Superposition of Atomic Densities via on-the-fly atomic UHF.

  ==> Iterations <==

                           Total Energy        Delta E     RMS |[F,P]|

   @DF-RKS iter SAD:   -92.60277399279710   -9.26028e+01   0.00000e+00 
   @DF-RKS iter   1:   -93.34809715311204   -7.45323e-01   6.12575e-03 DIIS
   @DF-RKS iter   2:   -93.31279345311948    3.53037e-02   7.18827e-03 DIIS
   @DF-RKS iter   3:   -93.43240363307075   -1.19610e-01   1.17007e-03 DIIS
   @DF-RKS iter   4:   -93.43573600165378   -3.33237e-03   1.39535e-04 DIIS
   @DF-RKS iter   5:   -93.43577945084621   -4.34492e-05   2.10762e-05 DIIS
   @DF-RKS iter   6:   -93.43578077260089   -1.32175e-06   4.36144e-06 DIIS
   @DF-RKS iter   7:   -93.43578085670548   -8.41046e-08   5.72429e-07 DIIS
   @DF-RKS iter   8:   -93.43578085899209   -2.28661e-09   4.79846e-08 DIIS
   @DF-RKS iter   9:   -93.43578085900711   -1.50209e-11   7.95432e-09 DIIS
  Energy and wave function converged.


  ==> Post-Iterations <==

    Orbital Energies [Eh]
    ---------------------

    Doubly Occupied:                                                      

       1A1   -14.530958     2A1   -10.398095     3A1    -1.048525  
       4A1    -0.721486     5A1    -0.497795     1B1    -0.468599  
       1B2    -0.468599  

    Virtual:                                                              

       6A1     0.083035     2B1     0.089865     2B2     0.089865  
       7A1     0.147517     3B1     0.279237     3B2     0.279237  
       8A1     0.299963     9A1     0.359610    10A1     0.437024  
       4B2     0.460689     4B1     0.460689     1A2     0.531080  
      11A1     0.531080     5B2     0.604021     5B1     0.604021  
      12A1     0.663981    13A1     0.842922    14A1     0.970872  
       2A2     0.970872    15A1     0.990837     6B2     0.992884  
       6B1     0.992884    16A1     1.083871    17A1     1.232954  
       7B2     1.247989     7B1     1.247989     8B1     1.322079  
       8B2     1.322079    18A1     1.368991    19A1     1.631779  
       9B1     1.732774     9B2     1.732774    10B2     1.789511  
      10B1     1.789511     3A2     1.814950    20A1     1.814954  
      21A1     1.865110     4A2     1.865110    22A1     2.145809  
      11B1     2.159706    11B2     2.159706    12B2     2.251917  
      12B1     2.251917    23A1     2.363457     5A2     2.441783  
      24A1     2.441789    25A1     2.552139    13B1     2.633933  
      13B2     2.633933    14B2     2.756889    14B1     2.756889  
      26A1     2.891880    27A1     2.949715     6A2     2.949723  
      28A1     2.993183    15B1     3.147113    15B2     3.147113  
      29A1     3.376037     7A2     3.376041    30A1     3.396284  
      31A1     3.740309    16B1     3.780787    16B2     3.780787  
      17B1     4.020154    17B2     4.020154    32A1     4.042990  
      33A1     4.658636    18B2     4.793822    18B1     4.793822  
      34A1     4.834053     8A2     4.834061     9A2     5.441080  
      35A1     5.441092    19B2     5.516197    19B1     5.516197  
      36A1     5.651928    20B2     5.705520    20B1     5.705520  
      37A1     5.712574    10A2     5.712576    21B1     5.912572  
      21B2     5.912572    22B1     6.051050    22B2     6.051050  
      23B1     6.080563    23B2     6.080563    38A1     6.093466  
      11A2     6.093467    39A1     6.238800    12A2     6.923640  
      40A1     6.923660    41A1     7.055790    24B1     7.073609  
      24B2     7.073609    42A1     7.189897    25B1     7.404553  
      25B2     7.404553    13A2     7.444785    43A1     7.444801  
      44A1     7.526420    26B2     7.528128    26B1     7.528128  
      14A2     7.946480    45A1     7.946511    27B2     8.035403  
      27B1     8.035403    46A1     8.296254    28B2     8.432873  
      28B1     8.432873    29B2     8.535483    29B1     8.535483  
      47A1     8.600095    15A2     8.600110    48A1     8.695491  
      30B1     8.786347    30B2     8.786347    16A2     8.971595  
      49A1     8.971598    50A1     9.016813    31B1     9.670926  
      31B2     9.670926    17A2     9.678464    51A1     9.678476  
      52A1     9.757878    53A1    10.139200    32B1    10.885093  
      32B2    10.885093    54A1    11.852716    33B2    12.174839  
      33B1    12.174839    55A1    13.824355    56A1    24.825474  
      57A1    31.773578  

    Final Occupation by Irrep:
             A1    A2    B1    B2 
    DOCC [     5,    0,    1,    1 ]

  @DF-RKS Final Energy:   -93.43578085900711

   => Energetics <=

    Nuclear Repulsion Energy =             23.8714648151168198
    One-Electron Energy =                -172.7373347130278205
    Two-Electron Energy =                  64.3347445533201920
    DFT Exchange-Correlation Energy =      -8.9630242420539208
    Empirical Dispersion Energy =           0.0000000000000000
    VV10 Nonlocal Energy =                  0.0583687276376219
    Total Energy =                        -93.4357808590071102

Computation Completed


Properties will be evaluated at   0.000000,   0.000000,   0.000000 [a0]

Properties computed using the SCF density matrix

  Nuclear Dipole Moment: [e a0]
     X:     0.0000      Y:     0.0000      Z:    -1.5241

  Electronic Dipole Moment: [e a0]
     X:     0.0000      Y:     0.0000      Z:     0.3335

  Dipole Moment: [e a0]
     X:     0.0000      Y:     0.0000      Z:    -1.1906     Total:     1.1906

  Dipole Moment: [D]
     X:     0.0000      Y:     0.0000      Z:    -3.0263     Total:     3.0263


*** tstop() called on bp1-compute00138.data.bp.acrc.priv at Tue Apr 27 17:13:29 2021
Module time:
	user time   =      86.77 seconds =       1.45 minutes
	system time =       2.76 seconds =       0.05 minutes
	total time  =          4 seconds =       0.07 minutes
Total time:
	user time   =     267.49 seconds =       4.46 minutes
	system time =      11.11 seconds =       0.19 minutes
	total time  =         13 seconds =       0.22 minutes

  //>>>>>>>>>>>>>>>>>>>>>>>>>>>>>>>>>>>//
  //    Loading displacement 4 of 5    //
  //<<<<<<<<<<<<<<<<<<<<<<<<<<<<<<<<<<<//

*** tstart() called on bp1-compute00138.data.bp.acrc.priv
*** at Tue Apr 27 17:13:29 2021

   => Loading Basis Set <=

    Name: CC-PV(Q+D)Z
    Role: ORBITAL
    Keyword: BASIS
    atoms 1 entry H          line    32 file /work/zw18965/.conda/envs/p4env/share/psi4/basis/cc-pv_qpd_z.gbs 
    atoms 2 entry C          line   249 file /work/zw18965/.conda/envs/p4env/share/psi4/basis/cc-pv_qpd_z.gbs 
    atoms 3 entry N          line   299 file /work/zw18965/.conda/envs/p4env/share/psi4/basis/cc-pv_qpd_z.gbs 


         ---------------------------------------------------------
                                   SCF
               by Justin Turney, Rob Parrish, Andy Simmonett
                          and Daniel G. A. Smith
                              RKS Reference
                       24 Threads, 137329 MiB Core
         ---------------------------------------------------------

  ==> Geometry <==

    Molecular point group: c2v
    Full point group: C_inf_v

    Geometry (in Angstrom), charge = 0, multiplicity = 1:

       Center              X                  Y                   Z               Mass       
    ------------   -----------------  -----------------  -----------------  -----------------
         H            0.000000000000     0.000000000000    -1.626500253361     1.007825032230
         C            0.000000000000     0.000000000000    -0.560260758838    12.000000000000
         N            0.000000000000     0.000000000000     0.597180074437    14.003074004430

  Running in c2v symmetry.

  Rotational constants: A = ************  B =      1.47528  C =      1.47528 [cm^-1]
  Rotational constants: A = ************  B =  44227.74118  C =  44227.74118 [MHz]
  Nuclear repulsion =   23.845857601427369

  Charge       = 0
  Multiplicity = 1
  Electrons    = 14
  Nalpha       = 7
  Nbeta        = 7

  ==> Algorithm <==

  SCF Algorithm Type is DF.
  DIIS enabled.
  MOM disabled.
  Fractional occupation disabled.
  Guess Type is SAD.
  Energy threshold   = 1.00e-08
  Density threshold  = 1.00e-08
  Integral threshold = 0.00e+00

  ==> Primary Basis <==

  Basis Set: CC-PV(Q+D)Z
    Blend: CC-PV(Q+D)Z
    Number of shells: 40
    Number of basis function: 140
    Number of Cartesian functions: 175
    Spherical Harmonics?: true
    Max angular momentum: 4

  ==> DFT Potential <==

   => Composite Functional: WB97M-V <= 

    wB97M-V Hyb-GGA Exchange-Correlation Functional

    N. Mardirossian and M. Head-Gordon, J. Chem. Phys. 144, 214110 (2016)

    Deriv               =              1
    GGA                 =           TRUE
    Meta                =           TRUE

    Exchange Hybrid     =           TRUE
    MP2 Hybrid          =          FALSE

   => Exchange-Correlation Functionals <=

    1.0000   wB97M-V exchange-correlation functional

   => Exact (HF) Exchange <=

    0.8500            HF,LR [omega = 0.3000]
    0.1500               HF 

   => VV10 Non-Local Parameters <=

    VV10 B              =     6.0000E+00
    VV10 C              =     1.0000E-02

   => Molecular Quadrature <=

    Radial Scheme          =       TREUTLER
    Pruning Scheme         =           FLAT
    Nuclear Scheme         =       TREUTLER

    BS radius alpha        =              1
    Pruning alpha          =              1
    Radial Points          =             75
    Spherical Points       =            302
    Total Points           =          66313
    Total Blocks           =            562
    Max Points             =            256
    Max Functions          =            140

   => Loading Basis Set <=

    Name: (CC-PV(Q+D)Z AUX)
    Role: JKFIT
    Keyword: DF_BASIS_SCF
    atoms 1 entry H          line    51 file /work/zw18965/.conda/envs/p4env/share/psi4/basis/cc-pvqz-jkfit.gbs 
    atoms 2 entry C          line   137 file /work/zw18965/.conda/envs/p4env/share/psi4/basis/cc-pvqz-jkfit.gbs 
    atoms 3 entry N          line   195 file /work/zw18965/.conda/envs/p4env/share/psi4/basis/cc-pvqz-jkfit.gbs 

  ==> Pre-Iterations <==

   -------------------------------------------------------
    Irrep   Nso     Nmo     Nalpha   Nbeta   Ndocc  Nsocc
   -------------------------------------------------------
     A1        57      57       0       0       0       0
     A2        17      17       0       0       0       0
     B1        33      33       0       0       0       0
     B2        33      33       0       0       0       0
   -------------------------------------------------------
    Total     140     140       7       7       7       0
   -------------------------------------------------------

  ==> Integral Setup <==

  ==> DiskDFJK: Density-Fitted J/K Matrices <==

    J tasked:                  Yes
    K tasked:                  Yes
    wK tasked:                 Yes
    Omega:               3.000E-01
    OpenMP threads:             24
    Integrals threads:          24
    Memory [MiB]:           102395
    Algorithm:                Core
    Integral Cache:           NONE
    Schwarz Cutoff:          1E-12
    Fitting Condition:       1E-10

   => Auxiliary Basis Set <=

  Basis Set: (CC-PV(Q+D)Z AUX)
    Blend: CC-PVQZ-JKFIT
    Number of shells: 69
    Number of basis function: 263
    Number of Cartesian functions: 350
    Spherical Harmonics?: true
    Max angular momentum: 5

  Cached 100.0% of DFT collocation blocks in 0.587 [GiB].

  Minimum eigenvalue in the overlap matrix is 1.8905917320E-04.
  Using Symmetric Orthogonalization.

  SCF Guess: Superposition of Atomic Densities via on-the-fly atomic UHF.

  ==> Iterations <==

                           Total Energy        Delta E     RMS |[F,P]|

   @DF-RKS iter SAD:   -92.60094277239860   -9.26009e+01   0.00000e+00 
   @DF-RKS iter   1:   -93.34799024846524   -7.47047e-01   6.12421e-03 DIIS
   @DF-RKS iter   2:   -93.31189571369883    3.60945e-02   7.20997e-03 DIIS
   @DF-RKS iter   3:   -93.43235207739849   -1.20456e-01   1.16745e-03 DIIS
   @DF-RKS iter   4:   -93.43567278184659   -3.32070e-03   1.39716e-04 DIIS
   @DF-RKS iter   5:   -93.43571638924138   -4.36074e-05   2.11578e-05 DIIS
   @DF-RKS iter   6:   -93.43571772197916   -1.33274e-06   4.39382e-06 DIIS
   @DF-RKS iter   7:   -93.43571780726484   -8.52857e-08   5.76772e-07 DIIS
   @DF-RKS iter   8:   -93.43571780958460   -2.31977e-09   4.82244e-08 DIIS
   @DF-RKS iter   9:   -93.43571780959975   -1.51488e-11   7.98981e-09 DIIS
  Energy and wave function converged.


  ==> Post-Iterations <==

    Orbital Energies [Eh]
    ---------------------

    Doubly Occupied:                                                      

       1A1   -14.531240     2A1   -10.398564     3A1    -1.048126  
       4A1    -0.720955     5A1    -0.497829     1B2    -0.468328  
       1B1    -0.468328  

    Virtual:                                                              

       6A1     0.082819     2B1     0.089584     2B2     0.089584  
       7A1     0.147397     3B2     0.279272     3B1     0.279272  
       8A1     0.299966     9A1     0.358798    10A1     0.436881  
       4B1     0.460753     4B2     0.460753     1A2     0.531092  
      11A1     0.531092     5B1     0.603546     5B2     0.603546  
      12A1     0.663852    13A1     0.841953    14A1     0.970718  
       2A2     0.970718    15A1     0.990872     6B1     0.992293  
       6B2     0.992293    16A1     1.083418    17A1     1.232001  
       7B1     1.248615     7B2     1.248615     8B1     1.322118  
       8B2     1.322118    18A1     1.367761    19A1     1.631987  
       9B2     1.732792     9B1     1.732792    10B1     1.789462  
      10B2     1.789462     3A2     1.814396    20A1     1.814400  
      21A1     1.864994     4A2     1.864995    22A1     2.146362  
      11B1     2.159212    11B2     2.159212    12B1     2.250362  
      12B2     2.250362    23A1     2.362497     5A2     2.440176  
      24A1     2.440182    25A1     2.550905    13B1     2.633610  
      13B2     2.633610    14B1     2.756471    14B2     2.756471  
      26A1     2.890962    27A1     2.949541     6A2     2.949548  
      28A1     2.993356    15B1     3.145122    15B2     3.145122  
      29A1     3.373882     7A2     3.373886    30A1     3.394027  
      31A1     3.738158    16B2     3.779800    16B1     3.779800  
      17B1     4.019768    17B2     4.019768    32A1     4.043045  
      33A1     4.654136    18B1     4.793444    18B2     4.793444  
      34A1     4.834039     8A2     4.834046     9A2     5.438608  
      35A1     5.438620    19B1     5.515756    19B2     5.515756  
      36A1     5.652166    20B2     5.703455    20B1     5.703455  
      37A1     5.713010    10A2     5.713012    21B2     5.913120  
      21B1     5.913120    22B2     6.043404    22B1     6.043404  
      23B2     6.077409    23B1     6.077409    38A1     6.091386  
      11A2     6.091387    39A1     6.238494    12A2     6.923425  
      40A1     6.923445    41A1     7.053760    24B1     7.078948  
      24B2     7.078948    42A1     7.185834    25B1     7.401682  
      25B2     7.401682    13A2     7.438074    43A1     7.438089  
      44A1     7.524465    26B2     7.524819    26B1     7.524819  
      14A2     7.943951    45A1     7.943982    27B2     8.033110  
      27B1     8.033110    46A1     8.294603    28B2     8.433429  
      28B1     8.433429    29B2     8.535306    29B1     8.535306  
      47A1     8.598607    15A2     8.598623    48A1     8.694975  
      30B2     8.780091    30B1     8.780091    16A2     8.968520  
      49A1     8.968523    50A1     9.016464    31B1     9.660500  
      31B2     9.660500    17A2     9.671322    51A1     9.671334  
      52A1     9.756795    53A1    10.127585    32B2    10.871834  
      32B1    10.871834    54A1    11.841954    33B1    12.168121  
      33B2    12.168121    55A1    13.805479    56A1    24.805194  
      57A1    31.764920  

    Final Occupation by Irrep:
             A1    A2    B1    B2 
    DOCC [     5,    0,    1,    1 ]

  @DF-RKS Final Energy:   -93.43571780959975

   => Energetics <=

    Nuclear Repulsion Energy =             23.8458576014273689
    One-Electron Energy =                -172.6882728377980527
    Two-Electron Energy =                  64.3098177839024459
    DFT Exchange-Correlation Energy =      -8.9614875631393716
    Empirical Dispersion Energy =           0.0000000000000000
    VV10 Nonlocal Energy =                  0.0583672060078647
    Total Energy =                        -93.4357178095997654

Computation Completed


Properties will be evaluated at   0.000000,   0.000000,   0.000000 [a0]

Properties computed using the SCF density matrix

  Nuclear Dipole Moment: [e a0]
     X:     0.0000      Y:     0.0000      Z:    -1.5265

  Electronic Dipole Moment: [e a0]
     X:     0.0000      Y:     0.0000      Z:     0.3349

  Dipole Moment: [e a0]
     X:     0.0000      Y:     0.0000      Z:    -1.1917     Total:     1.1917

  Dipole Moment: [D]
     X:     0.0000      Y:     0.0000      Z:    -3.0289     Total:     3.0289


*** tstop() called on bp1-compute00138.data.bp.acrc.priv at Tue Apr 27 17:13:33 2021
Module time:
	user time   =      86.50 seconds =       1.44 minutes
	system time =       2.46 seconds =       0.04 minutes
	total time  =          4 seconds =       0.07 minutes
Total time:
	user time   =     354.12 seconds =       5.90 minutes
	system time =      13.57 seconds =       0.23 minutes
	total time  =         17 seconds =       0.28 minutes

  //>>>>>>>>>>>>>>>>>>>>>>>>>>>>>>>>>>>//
  //    Loading displacement 5 of 5    //
  //<<<<<<<<<<<<<<<<<<<<<<<<<<<<<<<<<<<//

*** tstart() called on bp1-compute00138.data.bp.acrc.priv
*** at Tue Apr 27 17:13:33 2021

   => Loading Basis Set <=

    Name: CC-PV(Q+D)Z
    Role: ORBITAL
    Keyword: BASIS
    atoms 1 entry H          line    32 file /work/zw18965/.conda/envs/p4env/share/psi4/basis/cc-pv_qpd_z.gbs 
    atoms 2 entry C          line   249 file /work/zw18965/.conda/envs/p4env/share/psi4/basis/cc-pv_qpd_z.gbs 
    atoms 3 entry N          line   299 file /work/zw18965/.conda/envs/p4env/share/psi4/basis/cc-pv_qpd_z.gbs 


         ---------------------------------------------------------
                                   SCF
               by Justin Turney, Rob Parrish, Andy Simmonett
                          and Daniel G. A. Smith
                              RKS Reference
                       24 Threads, 137329 MiB Core
         ---------------------------------------------------------

  ==> Geometry <==

    Molecular point group: c2v
    Full point group: C_inf_v

    Geometry (in Angstrom), charge = 0, multiplicity = 1:

       Center              X                  Y                   Z               Mass       
    ------------   -----------------  -----------------  -----------------  -----------------
         H            0.000000000000     0.000000000000    -1.626500253361     1.007825032230
         C            0.000000000000     0.000000000000    -0.559139747885    12.000000000000
         N            0.000000000000     0.000000000000     0.596219418840    14.003074004430

  Running in c2v symmetry.

  Rotational constants: A = ************  B =      1.47931  C =      1.47931 [cm^-1]
  Rotational constants: A = ************  B =  44348.49075  C =  44348.49075 [MHz]
  Nuclear repulsion =   23.878047654907576

  Charge       = 0
  Multiplicity = 1
  Electrons    = 14
  Nalpha       = 7
  Nbeta        = 7

  ==> Algorithm <==

  SCF Algorithm Type is DF.
  DIIS enabled.
  MOM disabled.
  Fractional occupation disabled.
  Guess Type is SAD.
  Energy threshold   = 1.00e-08
  Density threshold  = 1.00e-08
  Integral threshold = 0.00e+00

  ==> Primary Basis <==

  Basis Set: CC-PV(Q+D)Z
    Blend: CC-PV(Q+D)Z
    Number of shells: 40
    Number of basis function: 140
    Number of Cartesian functions: 175
    Spherical Harmonics?: true
    Max angular momentum: 4

  ==> DFT Potential <==

   => Composite Functional: WB97M-V <= 

    wB97M-V Hyb-GGA Exchange-Correlation Functional

    N. Mardirossian and M. Head-Gordon, J. Chem. Phys. 144, 214110 (2016)

    Deriv               =              1
    GGA                 =           TRUE
    Meta                =           TRUE

    Exchange Hybrid     =           TRUE
    MP2 Hybrid          =          FALSE

   => Exchange-Correlation Functionals <=

    1.0000   wB97M-V exchange-correlation functional

   => Exact (HF) Exchange <=

    0.8500            HF,LR [omega = 0.3000]
    0.1500               HF 

   => VV10 Non-Local Parameters <=

    VV10 B              =     6.0000E+00
    VV10 C              =     1.0000E-02

   => Molecular Quadrature <=

    Radial Scheme          =       TREUTLER
    Pruning Scheme         =           FLAT
    Nuclear Scheme         =       TREUTLER

    BS radius alpha        =              1
    Pruning alpha          =              1
    Radial Points          =             75
    Spherical Points       =            302
    Total Points           =          66313
    Total Blocks           =            561
    Max Points             =            256
    Max Functions          =            140

   => Loading Basis Set <=

    Name: (CC-PV(Q+D)Z AUX)
    Role: JKFIT
    Keyword: DF_BASIS_SCF
    atoms 1 entry H          line    51 file /work/zw18965/.conda/envs/p4env/share/psi4/basis/cc-pvqz-jkfit.gbs 
    atoms 2 entry C          line   137 file /work/zw18965/.conda/envs/p4env/share/psi4/basis/cc-pvqz-jkfit.gbs 
    atoms 3 entry N          line   195 file /work/zw18965/.conda/envs/p4env/share/psi4/basis/cc-pvqz-jkfit.gbs 

  ==> Pre-Iterations <==

   -------------------------------------------------------
    Irrep   Nso     Nmo     Nalpha   Nbeta   Ndocc  Nsocc
   -------------------------------------------------------
     A1        57      57       0       0       0       0
     A2        17      17       0       0       0       0
     B1        33      33       0       0       0       0
     B2        33      33       0       0       0       0
   -------------------------------------------------------
    Total     140     140       7       7       7       0
   -------------------------------------------------------

  ==> Integral Setup <==

  ==> DiskDFJK: Density-Fitted J/K Matrices <==

    J tasked:                  Yes
    K tasked:                  Yes
    wK tasked:                 Yes
    Omega:               3.000E-01
    OpenMP threads:             24
    Integrals threads:          24
    Memory [MiB]:           102395
    Algorithm:                Core
    Integral Cache:           NONE
    Schwarz Cutoff:          1E-12
    Fitting Condition:       1E-10

   => Auxiliary Basis Set <=

  Basis Set: (CC-PV(Q+D)Z AUX)
    Blend: CC-PVQZ-JKFIT
    Number of shells: 69
    Number of basis function: 263
    Number of Cartesian functions: 350
    Spherical Harmonics?: true
    Max angular momentum: 5

  Cached 100.0% of DFT collocation blocks in 0.587 [GiB].

  Minimum eigenvalue in the overlap matrix is 1.8906444419E-04.
  Using Symmetric Orthogonalization.

  SCF Guess: Superposition of Atomic Densities via on-the-fly atomic UHF.

  ==> Iterations <==

                           Total Energy        Delta E     RMS |[F,P]|

   @DF-RKS iter SAD:   -92.60357796455504   -9.26036e+01   0.00000e+00 
   @DF-RKS iter   1:   -93.34757180975841   -7.43994e-01   6.14727e-03 DIIS
   @DF-RKS iter   2:   -93.31217381829748    3.53980e-02   7.20813e-03 DIIS
   @DF-RKS iter   3:   -93.43246240006015   -1.20289e-01   1.17003e-03 DIIS
   @DF-RKS iter   4:   -93.43579400794641   -3.33161e-03   1.39919e-04 DIIS
   @DF-RKS iter   5:   -93.43583769652297   -4.36886e-05   2.10822e-05 DIIS
   @DF-RKS iter   6:   -93.43583902120427   -1.32468e-06   4.36125e-06 DIIS
   @DF-RKS iter   7:   -93.43583910552613   -8.43219e-08   5.73620e-07 DIIS
   @DF-RKS iter   8:   -93.43583910783182   -2.30570e-09   4.80216e-08 DIIS
   @DF-RKS iter   9:   -93.43583910784712   -1.52909e-11   8.02092e-09 DIIS
  Energy and wave function converged.


  ==> Post-Iterations <==

    Orbital Energies [Eh]
    ---------------------

    Doubly Occupied:                                                      

       1A1   -14.530588     2A1   -10.398000     3A1    -1.048863  
       4A1    -0.720400     5A1    -0.497646     1B1    -0.468788  
       1B2    -0.468788  

    Virtual:                                                              

       6A1     0.082775     2B2     0.090223     2B1     0.090223  
       7A1     0.147428     3B1     0.279300     3B2     0.279300  
       8A1     0.299917     9A1     0.358620    10A1     0.437073  
       4B2     0.460760     4B1     0.460760     1A2     0.531140  
      11A1     0.531140     5B2     0.603617     5B1     0.603617  
      12A1     0.664193    13A1     0.843207    14A1     0.971079  
       2A2     0.971080    15A1     0.990952     6B2     0.992911  
       6B1     0.992911    16A1     1.083493    17A1     1.233112  
       7B2     1.247709     7B1     1.247709     8B1     1.322349  
       8B2     1.322349    18A1     1.367791    19A1     1.632328  
       9B1     1.732844     9B2     1.732844    10B1     1.789653  
      10B2     1.789653     3A2     1.814460    20A1     1.814463  
      21A1     1.865227     4A2     1.865228    22A1     2.146818  
      11B1     2.160333    11B2     2.160333    12B1     2.252091  
      12B2     2.252091    23A1     2.362560     5A2     2.440076  
      24A1     2.440082    25A1     2.551190    13B2     2.634336  
      13B1     2.634336    14B1     2.755954    14B2     2.755954  
      26A1     2.891974    27A1     2.949884     6A2     2.949892  
      28A1     2.992665    15B1     3.145107    15B2     3.145107  
      29A1     3.375917     7A2     3.375921    30A1     3.394301  
      31A1     3.740136    16B1     3.780542    16B2     3.780542  
      17B1     4.020310    17B2     4.020310    32A1     4.042514  
      33A1     4.660076    18B1     4.794843    18B2     4.794843  
      34A1     4.834098     8A2     4.834105     9A2     5.438308  
      35A1     5.438320    19B2     5.516265    19B1     5.516265  
      36A1     5.653814    20B1     5.705051    20B2     5.705051  
      37A1     5.714225    10A2     5.714227    21B2     5.913047  
      21B1     5.913047    22B1     6.045441    22B2     6.045441  
      23B2     6.076276    23B1     6.076276    38A1     6.092893  
      11A2     6.092893    39A1     6.239269    12A2     6.923940  
      40A1     6.923959    41A1     7.057173    24B1     7.079889  
      24B2     7.079889    42A1     7.181623    25B2     7.405739  
      25B1     7.405739    13A2     7.437049    43A1     7.437064  
      26B1     7.524698    26B2     7.524698    44A1     7.526238  
      14A2     7.944434    45A1     7.944466    27B1     8.034514  
      27B2     8.034514    46A1     8.298711    28B2     8.432691  
      28B1     8.432691    29B1     8.535742    29B2     8.535742  
      47A1     8.597738    15A2     8.597753    48A1     8.696750  
      30B1     8.781105    30B2     8.781105    16A2     8.971879  
      49A1     8.971881    50A1     9.016628    31B1     9.663602  
      31B2     9.663602    17A2     9.677734    51A1     9.677745  
      52A1     9.758078    53A1    10.129373    32B1    10.876591  
      32B2    10.876591    54A1    11.848098    33B1    12.171896  
      33B2    12.171896    55A1    13.805396    56A1    24.809604  
      57A1    31.781131  

    Final Occupation by Irrep:
             A1    A2    B1    B2 
    DOCC [     5,    0,    1,    1 ]

  @DF-RKS Final Energy:   -93.43583910784712

   => Energetics <=

    Nuclear Repulsion Energy =             23.8780476549075757
    One-Electron Energy =                -172.7526273851719054
    Two-Electron Energy =                  64.3433543131238963
    DFT Exchange-Correlation Energy =      -8.9629813375070793
    Empirical Dispersion Energy =           0.0000000000000000
    VV10 Nonlocal Energy =                  0.0583676468003930
    Total Energy =                        -93.4358391078471016

Computation Completed


Properties will be evaluated at   0.000000,   0.000000,   0.000000 [a0]

Properties computed using the SCF density matrix

  Nuclear Dipole Moment: [e a0]
     X:     0.0000      Y:     0.0000      Z:    -1.5265

  Electronic Dipole Moment: [e a0]
     X:     0.0000      Y:     0.0000      Z:     0.3343

  Dipole Moment: [e a0]
     X:     0.0000      Y:     0.0000      Z:    -1.1922     Total:     1.1922

  Dipole Moment: [D]
     X:     0.0000      Y:     0.0000      Z:    -3.0304     Total:     3.0304


*** tstop() called on bp1-compute00138.data.bp.acrc.priv at Tue Apr 27 17:13:37 2021
Module time:
	user time   =      86.81 seconds =       1.45 minutes
	system time =       2.89 seconds =       0.05 minutes
	total time  =          4 seconds =       0.07 minutes
Total time:
	user time   =     441.06 seconds =       7.35 minutes
	system time =      16.46 seconds =       0.27 minutes
	total time  =         21 seconds =       0.35 minutes

         ----------------------------------------------------------
                                   FINDIF
                     R. A. King and Jonathon Misiewicz
         ---------------------------------------------------------

  Computing gradient from energies.
    Using 3-point formula.
    Energy without displacement:  -93.4357810773
    Check energies below for precision!
    Forces are for mass-weighted, symmetry-adapted cartesians (in au).

     Coord      Energy(-1)        Energy(+1)            Force
        0    -93.4357710118    -93.4357808590     -0.0009847209
        1    -93.4357178096    -93.4358391078     -0.0121298247


-------------------------------------------------------------
  ## New Matrix (Symmetry 0) ##
  Irrep: 1 Size: 3 x 3

                 1                   2                   3

    1     0.00000000000000     0.00000000000000    -0.00096994820065
    2     0.00000000000000     0.00000000000000    -0.03038742300930
    3     0.00000000000000     0.00000000000000     0.03135737120995




			-----------------------------------------
			 OPTKING 2.0: for geometry optimizations 
			  - R.A. King,  Bethel University        
			-----------------------------------------
	At level 1: Red. Int., RFO, no backsteps, dynamic trust

	Internal coordinates to be generated automatically.
	Detected frag 1 with atoms:  1 2 3
	---Fragment 1 Bond Connectivity---
	 1 : 2
	 2 : 1 3
	 3 : 2

	---Fragment 1 Geometry and Gradient---
	 H           0.0000000000        0.0000000000       -3.0736400218
	 C           0.0000000000        0.0000000000       -1.0576801912
	 N           0.0000000000        0.0000000000        1.1275991003
	             0.0000000000        0.0000000000       -0.0009699482
	             0.0000000000        0.0000000000       -0.0303874230
	             0.0000000000        0.0000000000        0.0313573712

	Previous optimization step data not found.  Starting new optimization.

	---Fragment 1 Intrafragment Coordinates---
	 - Coordinate -           - BOHR/RAD -       - ANG/DEG -
	 R(1,2)           =         2.015960	       1.066800
	 R(2,3)           =         2.185279	       1.156400
	 L(1,2,3)         =         3.141593	     180.000000
	 l(1,2,3)         =         3.141593	     180.000000

	Current energy   :       -93.4357810773

	Generating empirical Hessian (Schlegel '84) for each fragment.
	Taking RFO optimization step.
	Going to follow RFO solution 1.
	Using RFO vector 1.
	Norm of target step-size    0.02421
	Projected energy change by RFO approximation:        -0.0007569457

	Back-transformation to cartesian coordinates...
	Successfully converged to displaced geometry.

	--- Internal Coordinate Step in ANG or DEG, aJ/ANG or AJ/DEG ---
	 ---------------------------------------------------------------------------
	   Coordinate                Previous        Force       Change         New 
	   ----------                --------       ------       ------       ------
	    1 R(1,2)          =      1.066800    -0.007991    -0.001361     1.065439
	    2 R(2,3)          =      1.156400    -0.258345    -0.012739     1.143661
	    3 L(1,2,3)        =    180.000000     0.000000     0.000000   180.000000
	    4 l(1,2,3)        =    180.000000     0.000000     0.000000   180.000000
	 ---------------------------------------------------------------------------
	Successfully symmetrized geometry.

  ==> Convergence Check <==

  Measures of convergence in internal coordinates in au.
  Criteria marked as inactive (o), active & met (*), and active & unmet ( ).
  --------------------------------------------------------------------------------------------- ~
   Step     Total Energy     Delta E     MAX Force     RMS Force      MAX Disp      RMS Disp    ~
  --------------------------------------------------------------------------------------------- ~
    Convergence Criteria    1.00e-06 *    3.00e-04 *             o    1.20e-03 *             o  ~
  --------------------------------------------------------------------------------------------- ~
      1     -93.43578108   -9.34e+01      3.14e-02      1.57e-02 o    2.41e-02      1.21e-02 o  ~
  ---------------------------------------------------------------------------------------------

	Writing optimization data to binary file.
	Structure for next step:
	Cartesian Geometry (in Angstrom)
	    H     0.0000000000   0.0000000000  -1.6213464618
	    C     0.0000000000   0.0000000000  -0.5559074595
	    N     0.0000000000   0.0000000000   0.5877531675
			--------------------------
			 OPTKING Finished Execution 
			--------------------------

    Structure for next step:
    Molecular point group: c2v
    Full point group: C_inf_v

    Geometry (in Angstrom), charge = 0, multiplicity = 1:

    H            0.000000000000     0.000000000000    -1.618585658095
    C            0.000000000000     0.000000000000    -0.553146651530
    N            0.000000000000     0.000000000000     0.590513979915

gradient() will perform gradient computation by finite difference of analytic energies.

         ----------------------------------------------------------
                                   FINDIF
                     R. A. King and Jonathon Misiewicz
         ---------------------------------------------------------

  Using finite-differences of energies to determine gradients.
    Generating geometries for use with 3-point formula.
    Displacement size will be 5.00e-03.
    Number of atoms is 3.
    Number of symmetric SALCs is 2.
    Translations projected? 1. Rotations projected? 1.
    Number of geometries (including reference) is 5.

  //>>>>>>>>>>>>>>>>>>>>>>>>>>>>>>>>>>>//
  //    Loading displacement 1 of 5    //
  //<<<<<<<<<<<<<<<<<<<<<<<<<<<<<<<<<<<//

*** tstart() called on bp1-compute00138.data.bp.acrc.priv
*** at Tue Apr 27 17:13:37 2021

   => Loading Basis Set <=

    Name: CC-PV(Q+D)Z
    Role: ORBITAL
    Keyword: BASIS
    atoms 1 entry H          line    32 file /work/zw18965/.conda/envs/p4env/share/psi4/basis/cc-pv_qpd_z.gbs 
    atoms 2 entry C          line   249 file /work/zw18965/.conda/envs/p4env/share/psi4/basis/cc-pv_qpd_z.gbs 
    atoms 3 entry N          line   299 file /work/zw18965/.conda/envs/p4env/share/psi4/basis/cc-pv_qpd_z.gbs 


         ---------------------------------------------------------
                                   SCF
               by Justin Turney, Rob Parrish, Andy Simmonett
                          and Daniel G. A. Smith
                              RKS Reference
                       24 Threads, 137329 MiB Core
         ---------------------------------------------------------

  ==> Geometry <==

    Molecular point group: c2v
    Full point group: C_inf_v

    Geometry (in Angstrom), charge = 0, multiplicity = 1:

       Center              X                  Y                   Z               Mass       
    ------------   -----------------  -----------------  -----------------  -----------------
         H            0.000000000000     0.000000000000    -1.618585658095     1.007825032230
         C            0.000000000000     0.000000000000    -0.553146651530    12.000000000000
         N            0.000000000000     0.000000000000     0.590513979915    14.003074004430

  Running in c2v symmetry.

  Rotational constants: A = ************  B =      1.50583  C =      1.50583 [cm^-1]
  Rotational constants: A = ************  B =  45143.51738  C =  45143.51738 [MHz]
  Nuclear repulsion =   24.090461345994349

  Charge       = 0
  Multiplicity = 1
  Electrons    = 14
  Nalpha       = 7
  Nbeta        = 7

  ==> Algorithm <==

  SCF Algorithm Type is DF.
  DIIS enabled.
  MOM disabled.
  Fractional occupation disabled.
  Guess Type is READ.
  Energy threshold   = 1.00e-08
  Density threshold  = 1.00e-08
  Integral threshold = 0.00e+00

  ==> Primary Basis <==

  Basis Set: CC-PV(Q+D)Z
    Blend: CC-PV(Q+D)Z
    Number of shells: 40
    Number of basis function: 140
    Number of Cartesian functions: 175
    Spherical Harmonics?: true
    Max angular momentum: 4

  ==> DFT Potential <==

   => Composite Functional: WB97M-V <= 

    wB97M-V Hyb-GGA Exchange-Correlation Functional

    N. Mardirossian and M. Head-Gordon, J. Chem. Phys. 144, 214110 (2016)

    Deriv               =              1
    GGA                 =           TRUE
    Meta                =           TRUE

    Exchange Hybrid     =           TRUE
    MP2 Hybrid          =          FALSE

   => Exchange-Correlation Functionals <=

    1.0000   wB97M-V exchange-correlation functional

   => Exact (HF) Exchange <=

    0.8500            HF,LR [omega = 0.3000]
    0.1500               HF 

   => VV10 Non-Local Parameters <=

    VV10 B              =     6.0000E+00
    VV10 C              =     1.0000E-02

   => Molecular Quadrature <=

    Radial Scheme          =       TREUTLER
    Pruning Scheme         =           FLAT
    Nuclear Scheme         =       TREUTLER

    BS radius alpha        =              1
    Pruning alpha          =              1
    Radial Points          =             75
    Spherical Points       =            302
    Total Points           =          66305
    Total Blocks           =            563
    Max Points             =            256
    Max Functions          =            140

   => Loading Basis Set <=

    Name: (CC-PV(Q+D)Z AUX)
    Role: JKFIT
    Keyword: DF_BASIS_SCF
    atoms 1 entry H          line    51 file /work/zw18965/.conda/envs/p4env/share/psi4/basis/cc-pvqz-jkfit.gbs 
    atoms 2 entry C          line   137 file /work/zw18965/.conda/envs/p4env/share/psi4/basis/cc-pvqz-jkfit.gbs 
    atoms 3 entry N          line   195 file /work/zw18965/.conda/envs/p4env/share/psi4/basis/cc-pvqz-jkfit.gbs 

   => Loading Basis Set <=

    Name: CC-PV(Q+D)Z
    Role: ORBITAL
    Keyword: BASIS
    atoms 1 entry H          line    32 file /work/zw18965/.conda/envs/p4env/share/psi4/basis/cc-pv_qpd_z.gbs 
    atoms 2 entry C          line   249 file /work/zw18965/.conda/envs/p4env/share/psi4/basis/cc-pv_qpd_z.gbs 
    atoms 3 entry N          line   299 file /work/zw18965/.conda/envs/p4env/share/psi4/basis/cc-pv_qpd_z.gbs 

  Reading orbitals from file 180, no projection.

  ==> Pre-Iterations <==

   -------------------------------------------------------
    Irrep   Nso     Nmo     Nalpha   Nbeta   Ndocc  Nsocc
   -------------------------------------------------------
     A1        57      57       0       0       0       0
     A2        17      17       0       0       0       0
     B1        33      33       0       0       0       0
     B2        33      33       0       0       0       0
   -------------------------------------------------------
    Total     140     140       7       7       7       0
   -------------------------------------------------------

  ==> Integral Setup <==

  ==> DiskDFJK: Density-Fitted J/K Matrices <==

    J tasked:                  Yes
    K tasked:                  Yes
    wK tasked:                 Yes
    Omega:               3.000E-01
    OpenMP threads:             24
    Integrals threads:          24
    Memory [MiB]:           102395
    Algorithm:                Core
    Integral Cache:           NONE
    Schwarz Cutoff:          1E-12
    Fitting Condition:       1E-10

   => Auxiliary Basis Set <=

  Basis Set: (CC-PV(Q+D)Z AUX)
    Blend: CC-PVQZ-JKFIT
    Number of shells: 69
    Number of basis function: 263
    Number of Cartesian functions: 350
    Spherical Harmonics?: true
    Max angular momentum: 5

  Cached 100.0% of DFT collocation blocks in 0.588 [GiB].

  Minimum eigenvalue in the overlap matrix is 1.8618008252E-04.
  Using Symmetric Orthogonalization.

  SCF Guess: Orbitals guess was supplied from a previous computation.

  ==> Iterations <==

                           Total Energy        Delta E     RMS |[F,P]|

   @DF-RKS iter   0:   -93.44650468621829   -9.34465e+01   6.42625e-04 
   @DF-RKS iter   1:   -93.43612252131773    1.03822e-02   1.26920e-04 DIIS
   @DF-RKS iter   2:   -93.43612374720303   -1.22589e-06   1.50021e-04 DIIS
   @DF-RKS iter   3:   -93.43617171535489   -4.79682e-05   2.64515e-05 DIIS
   @DF-RKS iter   4:   -93.43617323828001   -1.52293e-06   4.81435e-06 DIIS
   @DF-RKS iter   5:   -93.43617332200655   -8.37265e-08   8.24809e-07 DIIS
   @DF-RKS iter   6:   -93.43617332591678   -3.91023e-09   1.17680e-07 DIIS
   @DF-RKS iter   7:   -93.43617332600050   -8.37161e-11   1.64563e-08 DIIS
   @DF-RKS iter   8:   -93.43617332600161   -1.10845e-12   1.94416e-09 DIIS
  Energy and wave function converged.


  ==> Post-Iterations <==

    Orbital Energies [Eh]
    ---------------------

    Doubly Occupied:                                                      

       1A1   -14.527021     2A1   -10.394233     3A1    -1.053091  
       4A1    -0.719752     5A1    -0.496767     1B1    -0.471533  
       1B2    -0.471533  

    Virtual:                                                              

       6A1     0.083256     2B1     0.093698     2B2     0.093698  
       7A1     0.147917     3B2     0.279327     3B1     0.279327  
       8A1     0.299712     9A1     0.360347    10A1     0.438311  
       4B2     0.460594     4B1     0.460594     1A2     0.531304  
      11A1     0.531304     5B2     0.605385     5B1     0.605385  
      12A1     0.665850    13A1     0.851283    14A1     0.973026  
       2A2     0.973027    15A1     0.991183     6B1     0.997267  
       6B2     0.997267    16A1     1.085166    17A1     1.240509  
       7B2     1.241957     7B1     1.241957     8B1     1.323322  
       8B2     1.323322    18A1     1.372065    19A1     1.633327  
       9B2     1.733012     9B1     1.733012    10B2     1.790565  
      10B1     1.790565     3A2     1.816274    20A1     1.816278  
      21A1     1.866675     4A2     1.866676    22A1     2.147082  
      11B2     2.166524    11B1     2.166524    12B1     2.264105  
      12B2     2.264105    23A1     2.365862     5A2     2.444564  
      24A1     2.444570    25A1     2.555815    13B1     2.638352  
      13B2     2.638352    14B2     2.754835    14B1     2.754835  
      26A1     2.898991    27A1     2.951785     6A2     2.951792  
      28A1     2.989341    15B2     3.151453    15B1     3.151453  
      29A1     3.390953     7A2     3.390957    30A1     3.402717  
      31A1     3.754581    16B1     3.786138    16B2     3.786138  
      17B2     4.024055    17B1     4.024055    32A1     4.041062  
      33A1     4.698401    18B1     4.801880    18B2     4.801880  
      34A1     4.834374     8A2     4.834381     9A2     5.443867  
      35A1     5.443879    19B1     5.519665    19B2     5.519665  
      36A1     5.659558    20B2     5.718077    20B1     5.718077  
      37A1     5.718395    10A2     5.718397    21B1     5.910985  
      21B2     5.910985    22B2     6.077252    22B1     6.077252  
      23B1     6.081396    23B2     6.081396    38A1     6.105972  
      11A2     6.105973    39A1     6.242467    12A2     6.926811  
      40A1     6.926829    24B2     7.066940    24B1     7.066940  
      41A1     7.076168    42A1     7.175865    25B1     7.431542  
      25B2     7.431542    13A2     7.452878    43A1     7.452895  
      26B2     7.534622    26B1     7.534622    44A1     7.541076  
      14A2     7.954623    45A1     7.954653    27B1     8.047747  
      27B2     8.047747    46A1     8.320800    28B2     8.428126  
      28B1     8.428126    29B1     8.538071    29B2     8.538071  
      47A1     8.597692    15A2     8.597706    48A1     8.705411  
      30B2     8.804666    30B1     8.804666    16A2     8.995473  
      49A1     8.995475    50A1     9.016914    31B2     9.708283  
      31B1     9.708283    17A2     9.727046    51A1     9.727056  
      52A1     9.768923    53A1    10.173586    32B2    10.937075  
      32B1    10.937075    54A1    11.906857    33B2    12.207301  
      33B1    12.207301    55A1    13.860310    56A1    24.887634  
      57A1    31.875237  

    Final Occupation by Irrep:
             A1    A2    B1    B2 
    DOCC [     5,    0,    1,    1 ]

  @DF-RKS Final Energy:   -93.43617332600161

   => Energetics <=

    Nuclear Repulsion Energy =             24.0904613459943491
    One-Electron Energy =                -173.1700258205072203
    Two-Electron Energy =                  64.5589640424515494
    DFT Exchange-Correlation Energy =      -8.9739471754653515
    Empirical Dispersion Energy =           0.0000000000000000
    VV10 Nonlocal Energy =                  0.0583742815250604
    Total Energy =                        -93.4361733260016081

Computation Completed


Properties will be evaluated at   0.000000,   0.000000,   0.000000 [a0]

Properties computed using the SCF density matrix

  Nuclear Dipole Moment: [e a0]
     X:     0.0000      Y:     0.0000      Z:    -1.5191

  Electronic Dipole Moment: [e a0]
     X:     0.0000      Y:     0.0000      Z:     0.3277

  Dipole Moment: [e a0]
     X:     0.0000      Y:     0.0000      Z:    -1.1913     Total:     1.1913

  Dipole Moment: [D]
     X:     0.0000      Y:     0.0000      Z:    -3.0281     Total:     3.0281


*** tstop() called on bp1-compute00138.data.bp.acrc.priv at Tue Apr 27 17:13:40 2021
Module time:
	user time   =      67.08 seconds =       1.12 minutes
	system time =       1.87 seconds =       0.03 minutes
	total time  =          3 seconds =       0.05 minutes
Total time:
	user time   =     508.51 seconds =       8.48 minutes
	system time =      18.35 seconds =       0.31 minutes
	total time  =         24 seconds =       0.40 minutes

  //>>>>>>>>>>>>>>>>>>>>>>>>>>>>>>>>>>>//
  //    Loading displacement 2 of 5    //
  //<<<<<<<<<<<<<<<<<<<<<<<<<<<<<<<<<<<//

*** tstart() called on bp1-compute00138.data.bp.acrc.priv
*** at Tue Apr 27 17:13:40 2021

   => Loading Basis Set <=

    Name: CC-PV(Q+D)Z
    Role: ORBITAL
    Keyword: BASIS
    atoms 1 entry H          line    32 file /work/zw18965/.conda/envs/p4env/share/psi4/basis/cc-pv_qpd_z.gbs 
    atoms 2 entry C          line   249 file /work/zw18965/.conda/envs/p4env/share/psi4/basis/cc-pv_qpd_z.gbs 
    atoms 3 entry N          line   299 file /work/zw18965/.conda/envs/p4env/share/psi4/basis/cc-pv_qpd_z.gbs 


         ---------------------------------------------------------
                                   SCF
               by Justin Turney, Rob Parrish, Andy Simmonett
                          and Daniel G. A. Smith
                              RKS Reference
                       24 Threads, 137329 MiB Core
         ---------------------------------------------------------

  ==> Geometry <==

    Molecular point group: c2v
    Full point group: C_inf_v

    Geometry (in Angstrom), charge = 0, multiplicity = 1:

       Center              X                  Y                   Z               Mass       
    ------------   -----------------  -----------------  -----------------  -----------------
         H            0.000000000000     0.000000000000    -1.621171615653     1.007825032230
         C            0.000000000000     0.000000000000    -0.553046425197    12.000000000000
         N            0.000000000000     0.000000000000     0.590614206248    14.003074004430

  Running in c2v symmetry.

  Rotational constants: A = ************  B =      1.50465  C =      1.50465 [cm^-1]
  Rotational constants: A = ************  B =  45108.17736  C =  45108.17736 [MHz]
  Nuclear repulsion =   24.080930474221105

  Charge       = 0
  Multiplicity = 1
  Electrons    = 14
  Nalpha       = 7
  Nbeta        = 7

  ==> Algorithm <==

  SCF Algorithm Type is DF.
  DIIS enabled.
  MOM disabled.
  Fractional occupation disabled.
  Guess Type is READ.
  Energy threshold   = 1.00e-08
  Density threshold  = 1.00e-08
  Integral threshold = 0.00e+00

  ==> Primary Basis <==

  Basis Set: CC-PV(Q+D)Z
    Blend: CC-PV(Q+D)Z
[...]

*** tstart() called on bp1-compute00138.data.bp.acrc.priv
*** at Tue Apr 27 17:14:58 2021

   => Loading Basis Set <=

    Name: CC-PV(Q+D)Z
    Role: ORBITAL
    Keyword: BASIS
    atoms 1 entry H          line    32 file /work/zw18965/.conda/envs/p4env/share/psi4/basis/cc-pv_qpd_z.gbs 
    atoms 2 entry C          line   249 file /work/zw18965/.conda/envs/p4env/share/psi4/basis/cc-pv_qpd_z.gbs 
    atoms 3 entry N          line   299 file /work/zw18965/.conda/envs/p4env/share/psi4/basis/cc-pv_qpd_z.gbs 


         ---------------------------------------------------------
                                   SCF
               by Justin Turney, Rob Parrish, Andy Simmonett
                          and Daniel G. A. Smith
                              RKS Reference
                       24 Threads, 137329 MiB Core
         ---------------------------------------------------------

  ==> Geometry <==

    Molecular point group: cs
    Full point group: Cs

    Geometry (in Angstrom), charge = 0, multiplicity = 1:

       Center              X                  Y                   Z               Mass       
    ------------   -----------------  -----------------  -----------------  -----------------
         H            0.000000000000    -0.002246995264    -1.618117497419     1.007825032230
         C            0.000000000000     0.000364510568    -0.553012852396    12.000000000000
         N            0.000000000000    -0.000150648974     0.590365625799    14.003074004430

  Running in cs symmetry.

  Rotational constants: A = 2407987.46702  B =      1.50660  C =      1.50660 [cm^-1]
  Rotational constants: A = 72189648157.17371  B =  45166.74183  C =  45166.71357 [MHz]
  Nuclear repulsion =   24.096648918894889

  Charge       = 0
  Multiplicity = 1
  Electrons    = 14
  Nalpha       = 7
  Nbeta        = 7

  ==> Algorithm <==

  SCF Algorithm Type is DF.
  DIIS enabled.
  MOM disabled.
  Fractional occupation disabled.
  Guess Type is SAD.
  Energy threshold   = 1.00e-10
  Density threshold  = 1.00e-10
  Integral threshold = 0.00e+00

  ==> Primary Basis <==

  Basis Set: CC-PV(Q+D)Z
    Blend: CC-PV(Q+D)Z
    Number of shells: 40
    Number of basis function: 140
    Number of Cartesian functions: 175
    Spherical Harmonics?: true
    Max angular momentum: 4

  ==> DFT Potential <==

   => Composite Functional: WB97M-V <= 

    wB97M-V Hyb-GGA Exchange-Correlation Functional

    N. Mardirossian and M. Head-Gordon, J. Chem. Phys. 144, 214110 (2016)

    Deriv               =              1
    GGA                 =           TRUE
    Meta                =           TRUE

    Exchange Hybrid     =           TRUE
    MP2 Hybrid          =          FALSE

   => Exchange-Correlation Functionals <=

    1.0000   wB97M-V exchange-correlation functional

   => Exact (HF) Exchange <=

    0.8500            HF,LR [omega = 0.3000]
    0.1500               HF 

   => VV10 Non-Local Parameters <=

    VV10 B              =     6.0000E+00
    VV10 C              =     1.0000E-02

   => Molecular Quadrature <=

    Radial Scheme          =       TREUTLER
    Pruning Scheme         =           FLAT
    Nuclear Scheme         =       TREUTLER

    BS radius alpha        =              1
    Pruning alpha          =              1
    Radial Points          =             75
    Spherical Points       =            302
    Total Points           =          66303
    Total Blocks           =            567
    Max Points             =            255
    Max Functions          =            140

   => Loading Basis Set <=

    Name: (CC-PV(Q+D)Z AUX)
    Role: JKFIT
    Keyword: DF_BASIS_SCF
    atoms 1 entry H          line    51 file /work/zw18965/.conda/envs/p4env/share/psi4/basis/cc-pvqz-jkfit.gbs 
    atoms 2 entry C          line   137 file /work/zw18965/.conda/envs/p4env/share/psi4/basis/cc-pvqz-jkfit.gbs 
    atoms 3 entry N          line   195 file /work/zw18965/.conda/envs/p4env/share/psi4/basis/cc-pvqz-jkfit.gbs 

  ==> Pre-Iterations <==

   -------------------------------------------------------
    Irrep   Nso     Nmo     Nalpha   Nbeta   Ndocc  Nsocc
   -------------------------------------------------------
     A'        90      90       0       0       0       0
     A"        50      50       0       0       0       0
   -------------------------------------------------------
    Total     140     140       7       7       7       0
   -------------------------------------------------------

  ==> Integral Setup <==

  ==> DiskDFJK: Density-Fitted J/K Matrices <==

    J tasked:                  Yes
    K tasked:                  Yes
    wK tasked:                 Yes
    Omega:               3.000E-01
    OpenMP threads:             24
    Integrals threads:          24
    Memory [MiB]:           102394
    Algorithm:                Core
    Integral Cache:           NONE
    Schwarz Cutoff:          1E-12
    Fitting Condition:       1E-10

   => Auxiliary Basis Set <=

  Basis Set: (CC-PV(Q+D)Z AUX)
    Blend: CC-PVQZ-JKFIT
    Number of shells: 69
    Number of basis function: 263
    Number of Cartesian functions: 350
    Spherical Harmonics?: true
    Max angular momentum: 5

  Cached 100.0% of DFT collocation blocks in 0.588 [GiB].

  Minimum eigenvalue in the overlap matrix is 1.8601710657E-04.
  Using Symmetric Orthogonalization.

  SCF Guess: Superposition of Atomic Densities via on-the-fly atomic UHF.

  ==> Iterations <==

                           Total Energy        Delta E     RMS |[F,P]|

   @DF-RKS iter SAD:   -92.62038355463494   -9.26204e+01   0.00000e+00 
   @DF-RKS iter   1:   -93.34569749939858   -7.25314e-01   4.59121e-03 DIIS
   @DF-RKS iter   2:   -93.31566017520464    3.00373e-02   5.23981e-03 DIIS
   @DF-RKS iter   3:   -93.43271884193686   -1.17059e-01   8.72649e-04 DIIS
   @DF-RKS iter   4:   -93.43612837990953   -3.40954e-03   1.03019e-04 DIIS
   @DF-RKS iter   5:   -93.43617195947087   -4.35796e-05   1.50547e-05 DIIS
   @DF-RKS iter   6:   -93.43617321629870   -1.25683e-06   3.02651e-06 DIIS
   @DF-RKS iter   7:   -93.43617329299674   -7.66980e-08   4.02365e-07 DIIS
   @DF-RKS iter   8:   -93.43617329514838   -2.15164e-09   3.42750e-08 DIIS
   @DF-RKS iter   9:   -93.43617329516262   -1.42393e-11   5.91506e-09 DIIS
   @DF-RKS iter  10:   -93.43617329516312   -4.97380e-13   7.08368e-10 DIIS
   @DF-RKS iter  11:   -93.43617329516277    3.41061e-13   1.23751e-10 DIIS
   @DF-RKS iter  12:   -93.43617329516304   -2.70006e-13   2.45417e-11 DIIS
  Energy and wave function converged.


  ==> Post-Iterations <==

    Orbital Energies [Eh]
    ---------------------

    Doubly Occupied:                                                      

       1Ap   -14.526939     2Ap   -10.394121     3Ap    -1.053196  
       4Ap    -0.719822     5Ap    -0.496752     1App   -0.471604  
       6Ap    -0.471604  

    Virtual:                                                              

       7Ap     0.083290     2App    0.093778     8Ap     0.093778  
       9Ap     0.147940    10Ap     0.279323     3App    0.279323  
      11Ap     0.299710    12Ap     0.360485    13Ap     0.438345  
       4App    0.460583    14Ap     0.460587     5App    0.531303  
      15Ap     0.531304    16Ap     0.605475     6App    0.605476  
      17Ap     0.665883    18Ap     0.851515    19Ap     0.973052  
       7App    0.973052    20Ap     0.991180     8App    0.997420  
      21Ap     0.997421    22Ap     1.085247    23Ap     1.240609  
       9App    1.241793    24Ap     1.241906    25Ap     1.323331  
      10App    1.323333    26Ap     1.372316    27Ap     1.633314  
      28Ap     1.733010    11App    1.733010    12App    1.790581  
      29Ap     1.790583    13App    1.816372    30Ap     1.816376  
      31Ap     1.866717    14App    1.866718    32Ap     2.146985  
      15App    2.166677    33Ap     2.166696    34Ap     2.264470  
      16App    2.264470    35Ap     2.366042    17App    2.444846  
      36Ap     2.444852    37Ap     2.556033    18App    2.638448  
      38Ap     2.638448    39Ap     2.754847    19App    2.754856  
      40Ap     2.899204    41Ap     2.951834    20App    2.951840  
      42Ap     2.989293    21App    3.151830    43Ap     3.151832  
      44Ap     3.391428    22App    3.391431    45Ap     3.403163  
      46Ap     3.755031    23App    3.786298    47Ap     3.786301  
      48Ap     4.024001    24App    4.024205    49Ap     4.041283  
      50Ap     4.699485    51Ap     4.802021    25App    4.802021  
      52Ap     4.834386    26App    4.834393    27App    5.444243  
      53Ap     5.444256    54Ap     5.519767    28App    5.519772  
      55Ap     5.659521    29App    5.718268    56Ap     5.718282  
      30App    5.718660    57Ap     5.718693    58Ap     5.910877  
      31App    5.910877    32App    6.078649    59Ap     6.078649  
      60Ap     6.081907    33App    6.081907    61Ap     6.106564  
      34App    6.106565    62Ap     6.242518    35App    6.926878  
      63Ap     6.926896    64Ap     7.065939    36App    7.065953  
      65Ap     7.076425    66Ap     7.176509    37App    7.432031  
      67Ap     7.432031    38App    7.454221    68Ap     7.454237  
      39App    7.535235    69Ap     7.535246    70Ap     7.541669  
      40App    7.955168    71Ap     7.955198    41App    8.048258  
      72Ap     8.048275    73Ap     8.321271    42App    8.427996  
      74Ap     8.428005    75Ap     8.538123    43App    8.538123  
      76Ap     8.597842    44App    8.597857    77Ap     8.705518  
      45App    8.805834    78Ap     8.805887    46App    8.996220  
      79Ap     8.996222    80Ap     9.016804    81Ap     9.710042  
      47App    9.710094    48App    9.728913    82Ap     9.728922  
      83Ap     9.769441    84Ap    10.175880    85Ap    10.939705  
      49App   10.939720    86Ap    11.909127    87Ap    12.208517  
      50App   12.208556    88Ap    13.863555    89Ap    24.891338  
      90Ap    31.877574  

    Final Occupation by Irrep:
             Ap   App 
    DOCC [     6,    1 ]

  @DF-RKS Final Energy:   -93.43617329516304

   => Energetics <=

    Nuclear Repulsion Energy =             24.0966489188948891
    One-Electron Energy =                -173.1819780946145784
    Two-Electron Energy =                  64.5650800982893571
    DFT Exchange-Correlation Energy =      -8.9742987994980972
    Empirical Dispersion Energy =           0.0000000000000000
    VV10 Nonlocal Energy =                  0.0583745817653885
    Total Energy =                        -93.4361732951630444

Computation Completed


Properties will be evaluated at   0.000000,   0.000000,   0.000000 [a0]

Properties computed using the SCF density matrix

  Nuclear Dipole Moment: [e a0]
     X:     0.0000      Y:    -0.0021      Z:    -1.5187

  Electronic Dipole Moment: [e a0]
     X:     0.0000      Y:     0.0011      Z:     0.3275

  Dipole Moment: [e a0]
     X:     0.0000      Y:    -0.0010      Z:    -1.1912     Total:     1.1912

  Dipole Moment: [D]
     X:     0.0000      Y:    -0.0024      Z:    -3.0277     Total:     3.0277


*** tstop() called on bp1-compute00138.data.bp.acrc.priv at Tue Apr 27 17:15:02 2021
Module time:
	user time   =      95.45 seconds =       1.59 minutes
	system time =       2.48 seconds =       0.04 minutes
	total time  =          4 seconds =       0.07 minutes
Total time:
	user time   =    2362.64 seconds =      39.38 minutes
	system time =      68.47 seconds =       1.14 minutes
	total time  =        106 seconds =       1.77 minutes

         ----------------------------------------------------------
                                   FINDIF
                     R. A. King and Jonathon Misiewicz
         ---------------------------------------------------------

  Computing second-derivative from energies using projected, 
  symmetry-adapted, cartesian coordinates.

  9 energies passed in, including the reference geometry.
    Using 3-point formula.
    Energy without displacement:  -93.4361735732
    Check energies below for precision!
    0: -1        :       -93.4361684629
    0: 1         :       -93.4361683075
    1: -1        :       -93.4361707851
    1: 1         :       -93.4361707113
    0: 1, 1: 1   :       -93.4361677450
    0: -1, 1: -1 :       -93.4361679482
    2: -1        :       -93.4361732952
    3: -1        :       -93.4361732952

-------------------------------------------------------------


  ==> Harmonic Vibrational Analysis <==

  non-mass-weighted Hessian:       Symmetric? True   Hermitian? True   Lin Dep Dim?  5 (0)
  projection of translations (True) and rotations (True) removed 5 degrees of freedom (5)
  total projector:                 Symmetric? True   Hermitian? True   Lin Dep Dim?  5 (5)
  mass-weighted Hessian:           Symmetric? True   Hermitian? True   Lin Dep Dim?  5 (0)
  pre-proj  low-frequency mode:    0.0000i [cm^-1]
  pre-proj  low-frequency mode:    0.0000  [cm^-1]
  pre-proj  low-frequency mode:    0.0000  [cm^-1]
  pre-proj  low-frequency mode:    0.0000  [cm^-1]
  pre-proj  low-frequency mode:    0.0000  [cm^-1]
  pre-proj  all modes:['0.0000i' '0.0000' '0.0000' '0.0000' '0.0000' '766.6077' '766.6309'
 '2234.7612' '3456.1491']
  projected mass-weighted Hessian: Symmetric? True   Hermitian? True   Lin Dep Dim?  5 (5)
  post-proj low-frequency mode:    0.0000i [cm^-1] (TR)
  post-proj low-frequency mode:    0.0000i [cm^-1] (TR)
  post-proj low-frequency mode:    0.0000  [cm^-1] (TR)
  post-proj low-frequency mode:    0.0000  [cm^-1] (TR)
  post-proj low-frequency mode:    0.0000  [cm^-1] (TR)
  post-proj  all modes:['0.0000i' '0.0000i' '0.0000' '0.0000' '0.0000' '766.6077' '766.6309'
 '2234.7612' '3456.1491']

  Vibration                       6                   7                   8           
  Freq [cm^-1]                 766.6077            766.6309           2234.7612       
  Irrep                           B1                  B2                  A1          
  Reduced mass [u]              1.3451              1.3451              4.9787        
  Force const [mDyne/A]         0.4658              0.4658             14.6497        
  Turning point v=0 [a0]        0.3417              0.3417              0.1040        
  RMS dev v=0 [a0 u^1/2]        0.2802              0.2802              0.1641        
  Char temp [K]               1102.9778           1103.0112           3215.3238       
  ----------------------------------------------------------------------------------
      1   H                0.98 -0.00  0.00    0.00  0.98  0.00    0.00 -0.00 -0.82   
      2   C               -0.16  0.00  0.00    0.00 -0.16  0.00   -0.00 -0.00 -0.41   
      3   N                0.07 -0.00  0.00   -0.00  0.07  0.00   -0.00 -0.00  0.41   

  Vibration                       9           
  Freq [cm^-1]                3456.1491       
  Irrep                           A1          
  Reduced mass [u]              1.1975        
  Force const [mDyne/A]         8.4279        
  Turning point v=0 [a0]        0.1706        
  RMS dev v=0 [a0 u^1/2]        0.1320        
  Char temp [K]               4972.6291       
  ----------------------------------------------------------------------------------
      1   H               -0.00  0.00  0.99   
      2   C               -0.00 -0.00 -0.13   
      3   N                0.00 -0.00  0.04   

  ==> Thermochemistry Components <==

  Entropy, S
    Electronic S            0.000 [cal/(mol K)]        0.000 [J/(mol K)]       0.00000000 [mEh/K] (multiplicity = 1)
    Translational S        35.816 [cal/(mol K)]      149.856 [J/(mol K)]       0.05707695 [mEh/K] (mol. weight = 27.0109 [u], P = 101325.00 [Pa])
    Rotational S           11.772 [cal/(mol K)]       49.254 [J/(mol K)]       0.01876002 [mEh/K] (symmetry no. = 1)
    Vibrational S           0.473 [cal/(mol K)]        1.979 [J/(mol K)]       0.00075373 [mEh/K]
  Total S                  48.061 [cal/(mol K)]      201.089 [J/(mol K)]       0.07659070 [mEh/K]
  Correction S              0.000 [cal/(mol K)]        0.000 [J/(mol K)]       0.00000000 [mEh/K]

  Constant volume heat capacity, Cv
    Electronic Cv           0.000 [cal/(mol K)]        0.000 [J/(mol K)]       0.00000000 [mEh/K]
    Translational Cv        2.981 [cal/(mol K)]       12.472 [J/(mol K)]       0.00475022 [mEh/K]
    Rotational Cv           1.987 [cal/(mol K)]        8.314 [J/(mol K)]       0.00316681 [mEh/K]
    Vibrational Cv          1.419 [cal/(mol K)]        5.939 [J/(mol K)]       0.00226208 [mEh/K]
  Total Cv                  6.387 [cal/(mol K)]       26.725 [J/(mol K)]       0.01017910 [mEh/K]
  Correction Cv             0.000 [cal/(mol K)]        0.000 [J/(mol K)]       0.00000000 [mEh/K]

  Constant pressure heat capacity, Cp
    Electronic Cp           0.000 [cal/(mol K)]        0.000 [J/(mol K)]       0.00000000 [mEh/K]
    Translational Cp        4.968 [cal/(mol K)]       20.786 [J/(mol K)]       0.00791703 [mEh/K]
    Rotational Cp           1.987 [cal/(mol K)]        8.314 [J/(mol K)]       0.00316681 [mEh/K]
    Vibrational Cp          1.419 [cal/(mol K)]        5.939 [J/(mol K)]       0.00226208 [mEh/K]
  Total Cp                  8.375 [cal/(mol K)]       35.040 [J/(mol K)]       0.01334591 [mEh/K]
  Correction Cp             0.000 [cal/(mol K)]        0.000 [J/(mol K)]       0.00000000 [mEh/K]

  ==> Thermochemistry Energy Analysis <==

  Raw electronic energy, E0
  Total E0, Electronic energy at well bottom at 0 [K]                  -93.43617357 [Eh]

  Zero-point energy, ZPE_vib = Sum_i nu_i / 2
    Electronic ZPE          0.000 [kcal/mol]        0.000 [kJ/mol]       0.00000000 [Eh]
    Translational ZPE       0.000 [kcal/mol]        0.000 [kJ/mol]       0.00000000 [Eh]
    Rotational ZPE          0.000 [kcal/mol]        0.000 [kJ/mol]       0.00000000 [Eh]
    Vibrational ZPE        10.327 [kcal/mol]       43.210 [kJ/mol]       0.01645782 [Eh]        3612.074 [cm^-1]
  Correction ZPE           10.327 [kcal/mol]       43.210 [kJ/mol]       0.01645782 [Eh]        3612.074 [cm^-1]
  Total ZPE, Electronic energy at 0 [K]                                -93.41971575 [Eh]

  Thermal Energy, E (includes ZPE)
    Electronic E            0.000 [kcal/mol]        0.000 [kJ/mol]       0.00000000 [Eh]
    Translational E         0.889 [kcal/mol]        3.718 [kJ/mol]       0.00141628 [Eh]
    Rotational E            0.592 [kcal/mol]        2.479 [kJ/mol]       0.00094418 [Eh]
    Vibrational E          10.439 [kcal/mol]       43.676 [kJ/mol]       0.01663523 [Eh]
  Correction E             11.920 [kcal/mol]       49.873 [kJ/mol]       0.01899569 [Eh]
  Total E, Electronic energy at  298.15 [K]                            -93.41717788 [Eh]

  Enthalpy, H_trans = E_trans + k_B * T
    Electronic H            0.000 [kcal/mol]        0.000 [kJ/mol]       0.00000000 [Eh]
    Translational H         1.481 [kcal/mol]        6.197 [kJ/mol]       0.00236046 [Eh]
    Rotational H            0.592 [kcal/mol]        2.479 [kJ/mol]       0.00094418 [Eh]
    Vibrational H          10.439 [kcal/mol]       43.676 [kJ/mol]       0.01663523 [Eh]
  Correction H             12.512 [kcal/mol]       52.352 [kJ/mol]       0.01993987 [Eh]
  Total H, Enthalpy at  298.15 [K]                                     -93.41623370 [Eh]

  Gibbs free energy, G = H - T * S
    Electronic G            0.000 [kcal/mol]        0.000 [kJ/mol]       0.00000000 [Eh]
    Translational G        -9.197 [kcal/mol]      -38.482 [kJ/mol]      -0.01465703 [Eh]
    Rotational G           -2.917 [kcal/mol]      -12.206 [kJ/mol]      -0.00464911 [Eh]
    Vibrational G          10.298 [kcal/mol]       43.086 [kJ/mol]       0.01641050 [Eh]
  Correction G             -1.817 [kcal/mol]       -7.603 [kJ/mol]      -0.00289564 [Eh]
  Total G, Free enthalpy at  298.15 [K]                                -93.43906922 [Eh]

    Psi4 stopped on: Tuesday, 27 April 2021 05:15PM
    Psi4 wall time for execution: 0:01:45.83

*** Psi4 exiting successfully. Buy a developer a beer!
