
    -----------------------------------------------------------------------
          Psi4: An Open-Source Ab Initio Electronic Structure Package
                               Psi4 1.3.2 release

                         Git: Rev {HEAD} ecbda83 


    R. M. Parrish, L. A. Burns, D. G. A. Smith, A. C. Simmonett,
    A. E. DePrince III, E. G. Hohenstein, U. Bozkaya, A. Yu. Sokolov,
    R. Di Remigio, R. M. Richard, J. F. Gonthier, A. M. James,
    H. R. McAlexander, A. Kumar, M. Saitow, X. Wang, B. P. Pritchard,
    P. Verma, H. F. Schaefer III, K. Patkowski, R. A. King, E. F. Valeev,
    F. A. Evangelista, J. M. Turney, T. D. Crawford, and C. D. Sherrill,
    J. Chem. Theory Comput. 13(7) pp 3185--3197 (2017).
    (doi: 10.1021/acs.jctc.7b00174)


                         Additional Contributions by
    P. Kraus, H. Kruse, M. H. Lechner, M. C. Schieber, R. A. Shaw,
    A. Alenaizan, R. Galvelis, Z. L. Glick, S. Lehtola, and J. P. Misiewicz

    -----------------------------------------------------------------------


    Psi4 started on: Tuesday, 27 April 2021 05:15PM

    Process ID: 235852
    Host:       bp1-compute00138.data.bp.acrc.priv
    PSIDATADIR: /work/zw18965/.conda/envs/p4env/share/psi4
    Memory:     500.0 MiB
    Threads:    24
    
  ==> Input File <==

--------------------------------------------------------------------------
memory 144 GB

molecule {
0 1
O 0.0000000000 0.0000000000 0.0000000000
C 0.0000000000 0.0000000000 1.1584320400
S 0.0000000000 0.0000000000 2.7252829900
}

set dynamic_level 1
set basis cc-pV(Q+d)Z
 
optimize("wB97M-V")
frequencies("wB97M-V")
--------------------------------------------------------------------------

  Memory set to 134.110 GiB by Python driver.
gradient() will perform gradient computation by finite difference of analytic energies.

         ----------------------------------------------------------
                                   FINDIF
                     R. A. King and Jonathon Misiewicz
         ---------------------------------------------------------

  Using finite-differences of energies to determine gradients.
    Generating geometries for use with 3-point formula.
    Displacement size will be 5.00e-03.
    Number of atoms is 3.
    Number of symmetric SALCs is 2.
    Translations projected? 1. Rotations projected? 1.
    Number of geometries (including reference) is 5.

  //>>>>>>>>>>>>>>>>>>>>>>>>>>>>>>>>>>>//
  //    Loading displacement 1 of 5    //
  //<<<<<<<<<<<<<<<<<<<<<<<<<<<<<<<<<<<//

*** tstart() called on bp1-compute00138.data.bp.acrc.priv
*** at Tue Apr 27 17:15:09 2021

   => Loading Basis Set <=

    Name: CC-PV(Q+D)Z
    Role: ORBITAL
    Keyword: BASIS
    atoms 1 entry O          line   349 file /work/zw18965/.conda/envs/p4env/share/psi4/basis/cc-pv_qpd_z.gbs 
    atoms 2 entry C          line   249 file /work/zw18965/.conda/envs/p4env/share/psi4/basis/cc-pv_qpd_z.gbs 
    atoms 3 entry S          line   978 file /work/zw18965/.conda/envs/p4env/share/psi4/basis/cc-pv_qpd_z.gbs 


         ---------------------------------------------------------
                                   SCF
               by Justin Turney, Rob Parrish, Andy Simmonett
                          and Daniel G. A. Smith
                              RKS Reference
                       24 Threads, 137329 MiB Core
         ---------------------------------------------------------

  ==> Geometry <==

    Molecular point group: c2v
    Full point group: C_inf_v

    Geometry (in Angstrom), charge = 0, multiplicity = 1:

       Center              X                  Y                   Z               Mass       
    ------------   -----------------  -----------------  -----------------  -----------------
         O            0.000000000000     0.000000000000    -1.684829158394    15.994914619570
         C            0.000000000000     0.000000000000    -0.526397118394    12.000000000000
         S            0.000000000000     0.000000000000     1.040453831606    31.972071174400

  Running in c2v symmetry.

  Rotational constants: A = ************  B =      0.20227  C =      0.20227 [cm^-1]
  Rotational constants: A = ************  B =   6064.04409  C =   6064.04409 [MHz]
  Nuclear repulsion =   79.203173565559240

  Charge       = 0
  Multiplicity = 1
  Electrons    = 30
  Nalpha       = 15
  Nbeta        = 15

  ==> Algorithm <==

  SCF Algorithm Type is DF.
  DIIS enabled.
  MOM disabled.
  Fractional occupation disabled.
  Guess Type is SAD.
  Energy threshold   = 1.00e-08
  Density threshold  = 1.00e-08
  Integral threshold = 0.00e+00

  ==> Primary Basis <==

  Basis Set: CC-PV(Q+D)Z
    Blend: CC-PV(Q+D)Z
    Number of shells: 48
    Number of basis function: 174
    Number of Cartesian functions: 220
    Spherical Harmonics?: true
    Max angular momentum: 4

  ==> DFT Potential <==

   => Composite Functional: WB97M-V <= 

    wB97M-V Hyb-GGA Exchange-Correlation Functional

    N. Mardirossian and M. Head-Gordon, J. Chem. Phys. 144, 214110 (2016)

    Deriv               =              1
    GGA                 =           TRUE
    Meta                =           TRUE

    Exchange Hybrid     =           TRUE
    MP2 Hybrid          =          FALSE

   => Exchange-Correlation Functionals <=

    1.0000   wB97M-V exchange-correlation functional

   => Exact (HF) Exchange <=

    0.8500            HF,LR [omega = 0.3000]
    0.1500               HF 

   => VV10 Non-Local Parameters <=

    VV10 B              =     6.0000E+00
    VV10 C              =     1.0000E-02

   => Molecular Quadrature <=

    Radial Scheme          =       TREUTLER
    Pruning Scheme         =           FLAT
    Nuclear Scheme         =       TREUTLER

    BS radius alpha        =              1
    Pruning alpha          =              1
    Radial Points          =             75
    Spherical Points       =            302
    Total Points           =          65778
    Total Blocks           =            572
    Max Points             =            256
    Max Functions          =            174

   => Loading Basis Set <=

    Name: (CC-PV(Q+D)Z AUX)
    Role: JKFIT
    Keyword: DF_BASIS_SCF
    atoms 1 entry O          line   253 file /work/zw18965/.conda/envs/p4env/share/psi4/basis/cc-pvqz-jkfit.gbs 
    atoms 2 entry C          line   137 file /work/zw18965/.conda/envs/p4env/share/psi4/basis/cc-pvqz-jkfit.gbs 
    atoms 3 entry S          line   673 file /work/zw18965/.conda/envs/p4env/share/psi4/basis/cc-pvqz-jkfit.gbs 

  ==> Pre-Iterations <==

   -------------------------------------------------------
    Irrep   Nso     Nmo     Nalpha   Nbeta   Ndocc  Nsocc
   -------------------------------------------------------
     A1        70      70       0       0       0       0
     A2        22      22       0       0       0       0
     B1        41      41       0       0       0       0
     B2        41      41       0       0       0       0
   -------------------------------------------------------
    Total     174     174      15      15      15       0
   -------------------------------------------------------

  ==> Integral Setup <==

  ==> DiskDFJK: Density-Fitted J/K Matrices <==

    J tasked:                  Yes
    K tasked:                  Yes
    wK tasked:                 Yes
    Omega:               3.000E-01
    OpenMP threads:             24
    Integrals threads:          24
    Memory [MiB]:           102297
    Algorithm:                Core
    Integral Cache:           NONE
    Schwarz Cutoff:          1E-12
    Fitting Condition:       1E-10

   => Auxiliary Basis Set <=

  Basis Set: (CC-PV(Q+D)Z AUX)
    Blend: CC-PVQZ-JKFIT
    Number of shells: 96
    Number of basis function: 360
    Number of Cartesian functions: 475
    Spherical Harmonics?: true
    Max angular momentum: 5

  Cached 100.0% of DFT collocation blocks in 0.683 [GiB].

  Minimum eigenvalue in the overlap matrix is 1.3019170831E-04.
  Using Symmetric Orthogonalization.

  SCF Guess: Superposition of Atomic Densities via on-the-fly atomic UHF.

  ==> Iterations <==

                           Total Energy        Delta E     RMS |[F,P]|

   @DF-RKS iter SAD:  -511.01648042616563   -5.11016e+02   0.00000e+00 
   @DF-RKS iter   1:  -511.48764251647276   -4.71162e-01   5.20342e-03 DIIS
   @DF-RKS iter   2:  -511.41968707716131    6.79554e-02   7.02789e-03 DIIS
   @DF-RKS iter   3:  -511.56332028902006   -1.43633e-01   8.48260e-04 DIIS
   @DF-RKS iter   4:  -511.56582599033766   -2.50570e-03   1.54445e-04 DIIS
   @DF-RKS iter   5:  -511.56594424066714   -1.18250e-04   6.58366e-05 DIIS
   @DF-RKS iter   6:  -511.56596862856497   -2.43879e-05   2.73024e-05 DIIS
   @DF-RKS iter   7:  -511.56597285529250   -4.22673e-06   3.81481e-06 DIIS
   @DF-RKS iter   8:  -511.56597303207741   -1.76785e-07   6.82464e-07 DIIS
   @DF-RKS iter   9:  -511.56597303685970   -4.78229e-09   2.00655e-07 DIIS
   @DF-RKS iter  10:  -511.56597303707815   -2.18449e-10   4.07347e-08 DIIS
   @DF-RKS iter  11:  -511.56597303708537   -7.21911e-12   4.95219e-09 DIIS
  Energy and wave function converged.


  ==> Post-Iterations <==

    Orbital Energies [Eh]
    ---------------------

    Doubly Occupied:                                                      

       1A1   -89.237565     2A1   -19.418933     3A1   -10.513490  
       4A1    -8.153065     5A1    -6.063637     1B1    -6.057792  
       1B2    -6.057792     6A1    -1.274108     7A1    -0.943705  
       8A1    -0.668738     2B1    -0.591935     2B2    -0.591935  
       9A1    -0.576337     3B1    -0.395630     3B2    -0.395630  

    Virtual:                                                              

       4B1     0.048660     4B2     0.048660    10A1     0.101689  
      11A1     0.139751    12A1     0.196291     5B1     0.245088  
       5B2     0.245088     6B1     0.298530     6B2     0.298530  
      13A1     0.306827     1A2     0.315844    14A1     0.315844  
      15A1     0.425180     7B1     0.462900     7B2     0.462900  
      16A1     0.560361    17A1     0.567504     8B2     0.570439  
       8B1     0.570439    18A1     0.573902     2A2     0.573902  
      19A1     0.783056    20A1     0.905389     9B1     0.947792  
       9B2     0.947792     3A2     1.007428    21A1     1.007431  
      22A1     1.087260    10B2     1.100068    10B1     1.100068  
      23A1     1.100562     4A2     1.100562    11B1     1.116299  
      11B2     1.116299    24A1     1.205946    12B1     1.262753  
      12B2     1.262753    13B2     1.282841    13B1     1.282841  
      25A1     1.293660    26A1     1.377131     5A2     1.381364  
      27A1     1.381365    14B2     1.567208    14B1     1.567208  
      15B1     1.680705    15B2     1.680705    28A1     1.729740  
      16B1     1.734400    16B2     1.734400    29A1     1.839907  
       6A2     1.839911    30A1     1.879651    31A1     2.129184  
      17B2     2.150041    17B1     2.150041     7A2     2.163369  
      32A1     2.163373    33A1     2.332040    18B2     2.611219  
      18B1     2.611219     8A2     2.703852    34A1     2.703855  
      19B1     2.828161    19B2     2.828161    35A1     2.861472  
      20B2     2.977247    20B1     2.977247    21B2     2.993901  
      21B1     2.993901    36A1     3.004178     9A2     3.004185  
      37A1     3.007823    38A1     3.067500    22B1     3.182957  
      22B2     3.182957    10A2     3.191607    39A1     3.191635  
      23B2     3.272616    23B1     3.272616    11A2     3.375975  
      40A1     3.375977    24B1     3.544362    24B2     3.544362  
      41A1     3.682072    42A1     3.718768    43A1     3.869190  
      12A2     3.869197    25B2     3.922713    25B1     3.922713  
      44A1     3.931861    45A1     4.139609    13A2     4.143809  
      46A1     4.143811    26B2     4.443716    26B1     4.443716  
      27B2     4.724833    27B1     4.724833    14A2     4.783568  
      47A1     4.783568    48A1     4.804716    49A1     4.957297  
      28B2     5.027332    28B1     5.027332    29B1     5.307403  
      29B2     5.307403    15A2     5.683505    50A1     5.683533  
      30B1     5.689692    30B2     5.689692    31B2     5.835239  
      31B1     5.835239    51A1     5.857557    32B1     5.882586  
      32B2     5.882586    16A2     6.006798    52A1     6.006819  
      53A1     6.268102    17A2     6.268115    54A1     6.587460  
      33B2     6.634762    33B1     6.634762    55A1     7.002285  
      34B1     7.910092    34B2     7.910092    56A1     8.282775  
      57A1     8.499801    58A1     8.721188    18A2     8.721217  
      59A1     8.916687    19A2     8.916702    35B1     8.998329  
      35B2     8.998329    36B2     9.157238    36B1     9.157238  
      60A1     9.646519    20A2    10.056789    61A1    10.056801  
      37B2    10.244469    37B1    10.244469    62A1    10.554431  
      38B2    10.731491    38B1    10.731491    39B1    11.028353  
      39B2    11.028353    63A1    11.146172    21A2    11.423207  
      64A1    11.423231    40B2    12.053937    40B1    12.053937  
      22A2    12.147636    65A1    12.147663    66A1    13.102656  
      41B2    13.729781    41B1    13.729781    67A1    13.959512  
      68A1    18.982857    69A1    23.805890    70A1    41.968141  

    Final Occupation by Irrep:
             A1    A2    B1    B2 
    DOCC [     9,    0,    3,    3 ]

  @DF-RKS Final Energy:  -511.56597303708537

   => Energetics <=

    Nuclear Repulsion Energy =             79.2031735655592399
    One-Electron Energy =                -860.9240337498488316
    Two-Electron Energy =                 299.9392515864686857
    DFT Exchange-Correlation Energy =     -29.9088473624839821
    Empirical Dispersion Energy =           0.0000000000000000
    VV10 Nonlocal Energy =                  0.1244829232195146
    Total Energy =                       -511.5659730370853708

Computation Completed


Properties will be evaluated at   0.000000,   0.000000,   0.000000 [a0]

Properties computed using the SCF density matrix

  Nuclear Dipole Moment: [e a0]
     X:     0.0000      Y:     0.0000      Z:     0.0194

  Electronic Dipole Moment: [e a0]
     X:     0.0000      Y:     0.0000      Z:     0.2550

  Dipole Moment: [e a0]
     X:     0.0000      Y:     0.0000      Z:     0.2744     Total:     0.2744

  Dipole Moment: [D]
     X:     0.0000      Y:     0.0000      Z:     0.6975     Total:     0.6975


*** tstop() called on bp1-compute00138.data.bp.acrc.priv at Tue Apr 27 17:15:15 2021
Module time:
	user time   =     108.64 seconds =       1.81 minutes
	system time =       5.42 seconds =       0.09 minutes
	total time  =          6 seconds =       0.10 minutes
Total time:
	user time   =     108.64 seconds =       1.81 minutes
	system time =       5.42 seconds =       0.09 minutes
	total time  =          6 seconds =       0.10 minutes

  //>>>>>>>>>>>>>>>>>>>>>>>>>>>>>>>>>>>//
  //    Loading displacement 2 of 5    //
  //<<<<<<<<<<<<<<<<<<<<<<<<<<<<<<<<<<<//

*** tstart() called on bp1-compute00138.data.bp.acrc.priv
*** at Tue Apr 27 17:15:15 2021

   => Loading Basis Set <=

    Name: CC-PV(Q+D)Z
    Role: ORBITAL
    Keyword: BASIS
    atoms 1 entry O          line   349 file /work/zw18965/.conda/envs/p4env/share/psi4/basis/cc-pv_qpd_z.gbs 
    atoms 2 entry C          line   249 file /work/zw18965/.conda/envs/p4env/share/psi4/basis/cc-pv_qpd_z.gbs 
    atoms 3 entry S          line   978 file /work/zw18965/.conda/envs/p4env/share/psi4/basis/cc-pv_qpd_z.gbs 


         ---------------------------------------------------------
                                   SCF
               by Justin Turney, Rob Parrish, Andy Simmonett
                          and Daniel G. A. Smith
                              RKS Reference
                       24 Threads, 137329 MiB Core
         ---------------------------------------------------------

  ==> Geometry <==

    Molecular point group: c2v
    Full point group: C_inf_v

    Geometry (in Angstrom), charge = 0, multiplicity = 1:

       Center              X                  Y                   Z               Mass       
    ------------   -----------------  -----------------  -----------------  -----------------
         O            0.000000000000     0.000000000000    -1.685395674844    15.994914619570
         C            0.000000000000     0.000000000000    -0.526191047085    12.000000000000
         S            0.000000000000     0.000000000000     1.040659902915    31.972071174400

  Running in c2v symmetry.

  Rotational constants: A = ************  B =      0.20217  C =      0.20217 [cm^-1]
  Rotational constants: A = ************  B =   6061.01523  C =   6061.01523 [MHz]
  Nuclear repulsion =   79.181515997036001

  Charge       = 0
  Multiplicity = 1
  Electrons    = 30
  Nalpha       = 15
  Nbeta        = 15

  ==> Algorithm <==

  SCF Algorithm Type is DF.
  DIIS enabled.
  MOM disabled.
  Fractional occupation disabled.
  Guess Type is SAD.
  Energy threshold   = 1.00e-08
  Density threshold  = 1.00e-08
  Integral threshold = 0.00e+00

  ==> Primary Basis <==

  Basis Set: CC-PV(Q+D)Z
    Blend: CC-PV(Q+D)Z
    Number of shells: 48
    Number of basis function: 174
    Number of Cartesian functions: 220
    Spherical Harmonics?: true
    Max angular momentum: 4

  ==> DFT Potential <==

   => Composite Functional: WB97M-V <= 

    wB97M-V Hyb-GGA Exchange-Correlation Functional

    N. Mardirossian and M. Head-Gordon, J. Chem. Phys. 144, 214110 (2016)

    Deriv               =              1
    GGA                 =           TRUE
    Meta                =           TRUE

    Exchange Hybrid     =           TRUE
    MP2 Hybrid          =          FALSE

   => Exchange-Correlation Functionals <=

    1.0000   wB97M-V exchange-correlation functional

   => Exact (HF) Exchange <=

    0.8500            HF,LR [omega = 0.3000]
    0.1500               HF 

   => VV10 Non-Local Parameters <=

    VV10 B              =     6.0000E+00
    VV10 C              =     1.0000E-02

   => Molecular Quadrature <=

    Radial Scheme          =       TREUTLER
    Pruning Scheme         =           FLAT
    Nuclear Scheme         =       TREUTLER

    BS radius alpha        =              1
    Pruning alpha          =              1
    Radial Points          =             75
    Spherical Points       =            302
    Total Points           =          65778
    Total Blocks           =            572
    Max Points             =            256
    Max Functions          =            174

   => Loading Basis Set <=

    Name: (CC-PV(Q+D)Z AUX)
    Role: JKFIT
    Keyword: DF_BASIS_SCF
    atoms 1 entry O          line   253 file /work/zw18965/.conda/envs/p4env/share/psi4/basis/cc-pvqz-jkfit.gbs 
    atoms 2 entry C          line   137 file /work/zw18965/.conda/envs/p4env/share/psi4/basis/cc-pvqz-jkfit.gbs 
    atoms 3 entry S          line   673 file /work/zw18965/.conda/envs/p4env/share/psi4/basis/cc-pvqz-jkfit.gbs 

  ==> Pre-Iterations <==

   -------------------------------------------------------
    Irrep   Nso     Nmo     Nalpha   Nbeta   Ndocc  Nsocc
   -------------------------------------------------------
     A1        70      70       0       0       0       0
     A2        22      22       0       0       0       0
     B1        41      41       0       0       0       0
     B2        41      41       0       0       0       0
   -------------------------------------------------------
    Total     174     174      15      15      15       0
   -------------------------------------------------------

  ==> Integral Setup <==

  ==> DiskDFJK: Density-Fitted J/K Matrices <==

    J tasked:                  Yes
    K tasked:                  Yes
    wK tasked:                 Yes
    Omega:               3.000E-01
    OpenMP threads:             24
    Integrals threads:          24
    Memory [MiB]:           102297
    Algorithm:                Core
    Integral Cache:           NONE
    Schwarz Cutoff:          1E-12
    Fitting Condition:       1E-10

   => Auxiliary Basis Set <=

  Basis Set: (CC-PV(Q+D)Z AUX)
    Blend: CC-PVQZ-JKFIT
    Number of shells: 96
    Number of basis function: 360
    Number of Cartesian functions: 475
    Spherical Harmonics?: true
    Max angular momentum: 5

  Cached 100.0% of DFT collocation blocks in 0.682 [GiB].

  Minimum eigenvalue in the overlap matrix is 1.3023246018E-04.
  Using Symmetric Orthogonalization.

  SCF Guess: Superposition of Atomic Densities via on-the-fly atomic UHF.

  ==> Iterations <==

                           Total Energy        Delta E     RMS |[F,P]|

   @DF-RKS iter SAD:  -511.01510608833399   -5.11015e+02   0.00000e+00 
   @DF-RKS iter   1:  -511.48755768755717   -4.72452e-01   5.20394e-03 DIIS
   @DF-RKS iter   2:  -511.41908955988822    6.84681e-02   7.03973e-03 DIIS
   @DF-RKS iter   3:  -511.56329336115505   -1.44204e-01   8.48095e-04 DIIS
   @DF-RKS iter   4:  -511.56579850854081   -2.50515e-03   1.54615e-04 DIIS
   @DF-RKS iter   5:  -511.56591686575479   -1.18357e-04   6.59750e-05 DIIS
   @DF-RKS iter   6:  -511.56594135396557   -2.44882e-05   2.73426e-05 DIIS
   @DF-RKS iter   7:  -511.56594559266432   -4.23870e-06   3.82141e-06 DIIS
   @DF-RKS iter   8:  -511.56594577012163   -1.77457e-07   6.83377e-07 DIIS
   @DF-RKS iter   9:  -511.56594577492024   -4.79861e-09   2.01429e-07 DIIS
   @DF-RKS iter  10:  -511.56594577513954   -2.19302e-10   4.10155e-08 DIIS
   @DF-RKS iter  11:  -511.56594577514727   -7.73070e-12   4.98086e-09 DIIS
  Energy and wave function converged.


  ==> Post-Iterations <==

    Orbital Energies [Eh]
    ---------------------

    Doubly Occupied:                                                      

       1A1   -89.237696     2A1   -19.418883     3A1   -10.513623  
       4A1    -8.153190     5A1    -6.063759     1B2    -6.057919  
       1B1    -6.057919     6A1    -1.273584     7A1    -0.943785  
       8A1    -0.668652     2B2    -0.591627     2B1    -0.591627  
       9A1    -0.576356     3B2    -0.395696     3B1    -0.395696  

    Virtual:                                                              

       4B2     0.048460     4B1     0.048460    10A1     0.101620  
      11A1     0.139754    12A1     0.196228     5B2     0.245080  
       5B1     0.245080     6B2     0.298564     6B1     0.298564  
      13A1     0.306829     1A2     0.315783    14A1     0.315784  
      15A1     0.425099     7B2     0.462785     7B1     0.462785  
      16A1     0.560313    17A1     0.567173     8B1     0.570518  
       8B2     0.570518    18A1     0.573924     2A2     0.573925  
      19A1     0.782972    20A1     0.905220     9B2     0.947616  
       9B1     0.947616     3A2     1.007342    21A1     1.007346  
      22A1     1.086764    10B2     1.099989    10B1     1.099989  
      23A1     1.100531     4A2     1.100531    11B2     1.116141  
      11B1     1.116141    24A1     1.205894    12B2     1.262649  
      12B1     1.262649    13B1     1.283030    13B2     1.283030  
      25A1     1.293557    26A1     1.377175     5A2     1.381201  
      27A1     1.381202    14B1     1.567314    14B2     1.567314  
      15B2     1.680748    15B1     1.680748    28A1     1.729729  
      16B2     1.734424    16B1     1.734424    29A1     1.839945  
       6A2     1.839950    30A1     1.879431    31A1     2.129182  
      17B1     2.149731    17B2     2.149731     7A2     2.163173  
      32A1     2.163177    33A1     2.331912    18B1     2.610684  
      18B2     2.610684     8A2     2.703737    34A1     2.703739  
      19B2     2.827988    19B1     2.827988    35A1     2.860962  
      20B1     2.976845    20B2     2.976845    21B1     2.993880  
      21B2     2.993880    36A1     3.004082     9A2     3.004089  
      37A1     3.008146    38A1     3.067445    22B2     3.182869  
      22B1     3.182869    10A2     3.191380    39A1     3.191408  
      23B1     3.272449    23B2     3.272449    11A2     3.375707  
      40A1     3.375709    24B2     3.544784    24B1     3.544784  
      41A1     3.681591    42A1     3.718714    43A1     3.869094  
      12A2     3.869102    25B1     3.922990    25B2     3.922990  
      44A1     3.931678    45A1     4.139276    13A2     4.143045  
      46A1     4.143047    26B1     4.443210    26B2     4.443210  
      27B1     4.724669    27B2     4.724669    14A2     4.783581  
      47A1     4.783581    48A1     4.806542    49A1     4.954669  
      28B1     5.026855    28B2     5.026855    29B1     5.307151  
      29B2     5.307151    15A2     5.683343    50A1     5.683371  
      30B2     5.689616    30B1     5.689616    31B1     5.834223  
      31B2     5.834223    51A1     5.857131    32B2     5.882625  
      32B1     5.882625    16A2     6.007086    52A1     6.007107  
      53A1     6.266777    17A2     6.266790    54A1     6.585641  
      33B1     6.633337    33B2     6.633337    55A1     7.000918  
      34B1     7.908154    34B2     7.908154    56A1     8.281785  
      57A1     8.498796    58A1     8.721055    18A2     8.721085  
      59A1     8.916825    19A2     8.916840    35B2     8.998086  
      35B1     8.998086    36B1     9.156312    36B2     9.156312  
      60A1     9.645768    20A2    10.054078    61A1    10.054089  
      37B1    10.243730    37B2    10.243730    62A1    10.553902  
      38B1    10.730502    38B2    10.730502    39B1    11.028383  
      39B2    11.028383    63A1    11.145374    21A2    11.422838  
      64A1    11.422862    40B1    12.052432    40B2    12.052432  
      22A2    12.146954    65A1    12.146981    66A1    13.100342  
      41B1    13.725656    41B2    13.725656    67A1    13.957038  
      68A1    18.982275    69A1    23.796443    70A1    41.963659  

    Final Occupation by Irrep:
             A1    A2    B1    B2 
    DOCC [     9,    0,    3,    3 ]

  @DF-RKS Final Energy:  -511.56594577514727

   => Energetics <=

    Nuclear Repulsion Energy =             79.1815159970360014
    One-Electron Energy =                -860.8815845846759203
    Two-Electron Energy =                 299.9178745714619936
    DFT Exchange-Correlation Energy =     -29.9082348724942513
    Empirical Dispersion Energy =           0.0000000000000000
    VV10 Nonlocal Energy =                  0.1244831135247928
    Total Energy =                       -511.5659457751473269

Computation Completed


Properties will be evaluated at   0.000000,   0.000000,   0.000000 [a0]

Properties computed using the SCF density matrix

  Nuclear Dipole Moment: [e a0]
     X:     0.0000      Y:     0.0000      Z:     0.0194

  Electronic Dipole Moment: [e a0]
     X:     0.0000      Y:     0.0000      Z:     0.2577

  Dipole Moment: [e a0]
     X:     0.0000      Y:     0.0000      Z:     0.2770     Total:     0.2770

  Dipole Moment: [D]
     X:     0.0000      Y:     0.0000      Z:     0.7042     Total:     0.7042


*** tstop() called on bp1-compute00138.data.bp.acrc.priv at Tue Apr 27 17:15:20 2021
Module time:
	user time   =     111.28 seconds =       1.85 minutes
	system time =       4.32 seconds =       0.07 minutes
	total time  =          5 seconds =       0.08 minutes
Total time:
	user time   =     220.07 seconds =       3.67 minutes
	system time =       9.74 seconds =       0.16 minutes
	total time  =         11 seconds =       0.18 minutes

  //>>>>>>>>>>>>>>>>>>>>>>>>>>>>>>>>>>>//
  //    Loading displacement 3 of 5    //
  //<<<<<<<<<<<<<<<<<<<<<<<<<<<<<<<<<<<//

*** tstart() called on bp1-compute00138.data.bp.acrc.priv
*** at Tue Apr 27 17:15:20 2021

   => Loading Basis Set <=

    Name: CC-PV(Q+D)Z
    Role: ORBITAL
    Keyword: BASIS
    atoms 1 entry O          line   349 file /work/zw18965/.conda/envs/p4env/share/psi4/basis/cc-pv_qpd_z.gbs 
    atoms 2 entry C          line   249 file /work/zw18965/.conda/envs/p4env/share/psi4/basis/cc-pv_qpd_z.gbs 
    atoms 3 entry S          line   978 file /work/zw18965/.conda/envs/p4env/share/psi4/basis/cc-pv_qpd_z.gbs 


         ---------------------------------------------------------
                                   SCF
               by Justin Turney, Rob Parrish, Andy Simmonett
                          and Daniel G. A. Smith
                              RKS Reference
                       24 Threads, 137329 MiB Core
         ---------------------------------------------------------

  ==> Geometry <==

    Molecular point group: c2v
    Full point group: C_inf_v

    Geometry (in Angstrom), charge = 0, multiplicity = 1:

       Center              X                  Y                   Z               Mass       
    ------------   -----------------  -----------------  -----------------  -----------------
         O            0.000000000000     0.000000000000    -1.684262641943    15.994914619570
         C            0.000000000000     0.000000000000    -0.526603189702    12.000000000000
         S            0.000000000000     0.000000000000     1.040247760298    31.972071174400

  Running in c2v symmetry.

  Rotational constants: A = ************  B =      0.20238  C =      0.20238 [cm^-1]
  Rotational constants: A = ************  B =   6067.07496  C =   6067.07496 [MHz]
  Nuclear repulsion =   79.224854634420780

  Charge       = 0
  Multiplicity = 1
  Electrons    = 30
  Nalpha       = 15
  Nbeta        = 15

  ==> Algorithm <==

  SCF Algorithm Type is DF.
  DIIS enabled.
  MOM disabled.
  Fractional occupation disabled.
  Guess Type is SAD.
  Energy threshold   = 1.00e-08
  Density threshold  = 1.00e-08
  Integral threshold = 0.00e+00

  ==> Primary Basis <==

  Basis Set: CC-PV(Q+D)Z
    Blend: CC-PV(Q+D)Z
    Number of shells: 48
    Number of basis function: 174
    Number of Cartesian functions: 220
    Spherical Harmonics?: true
    Max angular momentum: 4

  ==> DFT Potential <==

   => Composite Functional: WB97M-V <= 

    wB97M-V Hyb-GGA Exchange-Correlation Functional

    N. Mardirossian and M. Head-Gordon, J. Chem. Phys. 144, 214110 (2016)

    Deriv               =              1
    GGA                 =           TRUE
    Meta                =           TRUE

    Exchange Hybrid     =           TRUE
    MP2 Hybrid          =          FALSE

   => Exchange-Correlation Functionals <=

    1.0000   wB97M-V exchange-correlation functional

   => Exact (HF) Exchange <=

    0.8500            HF,LR [omega = 0.3000]
    0.1500               HF 

   => VV10 Non-Local Parameters <=

    VV10 B              =     6.0000E+00
    VV10 C              =     1.0000E-02

   => Molecular Quadrature <=

    Radial Scheme          =       TREUTLER
    Pruning Scheme         =           FLAT
    Nuclear Scheme         =       TREUTLER

    BS radius alpha        =              1
    Pruning alpha          =              1
    Radial Points          =             75
    Spherical Points       =            302
    Total Points           =          65778
    Total Blocks           =            572
    Max Points             =            256
    Max Functions          =            174

   => Loading Basis Set <=

    Name: (CC-PV(Q+D)Z AUX)
    Role: JKFIT
    Keyword: DF_BASIS_SCF
    atoms 1 entry O          line   253 file /work/zw18965/.conda/envs/p4env/share/psi4/basis/cc-pvqz-jkfit.gbs 
    atoms 2 entry C          line   137 file /work/zw18965/.conda/envs/p4env/share/psi4/basis/cc-pvqz-jkfit.gbs 
    atoms 3 entry S          line   673 file /work/zw18965/.conda/envs/p4env/share/psi4/basis/cc-pvqz-jkfit.gbs 

  ==> Pre-Iterations <==

   -------------------------------------------------------
    Irrep   Nso     Nmo     Nalpha   Nbeta   Ndocc  Nsocc
   -------------------------------------------------------
     A1        70      70       0       0       0       0
     A2        22      22       0       0       0       0
     B1        41      41       0       0       0       0
     B2        41      41       0       0       0       0
   -------------------------------------------------------
    Total     174     174      15      15      15       0
   -------------------------------------------------------

  ==> Integral Setup <==

  ==> DiskDFJK: Density-Fitted J/K Matrices <==

    J tasked:                  Yes
    K tasked:                  Yes
    wK tasked:                 Yes
    Omega:               3.000E-01
    OpenMP threads:             24
    Integrals threads:          24
    Memory [MiB]:           102297
    Algorithm:                Core
    Integral Cache:           NONE
    Schwarz Cutoff:          1E-12
    Fitting Condition:       1E-10

   => Auxiliary Basis Set <=

  Basis Set: (CC-PV(Q+D)Z AUX)
    Blend: CC-PVQZ-JKFIT
    Number of shells: 96
    Number of basis function: 360
    Number of Cartesian functions: 475
    Spherical Harmonics?: true
    Max angular momentum: 5

  Cached 100.0% of DFT collocation blocks in 0.683 [GiB].

  Minimum eigenvalue in the overlap matrix is 1.3015085199E-04.
  Using Symmetric Orthogonalization.

  SCF Guess: Superposition of Atomic Densities via on-the-fly atomic UHF.

  ==> Iterations <==

                           Total Energy        Delta E     RMS |[F,P]|

   @DF-RKS iter SAD:  -511.01785045883952   -5.11018e+02   0.00000e+00 
   @DF-RKS iter   1:  -511.48772410193510   -4.69874e-01   5.20292e-03 DIIS
   @DF-RKS iter   2:  -511.42027762130090    6.74465e-02   7.01613e-03 DIIS
   @DF-RKS iter   3:  -511.56334501326603   -1.43067e-01   8.48420e-04 DIIS
   @DF-RKS iter   4:  -511.56585124877455   -2.50624e-03   1.54277e-04 DIIS
   @DF-RKS iter   5:  -511.56596939568595   -1.18147e-04   6.56967e-05 DIIS
   @DF-RKS iter   6:  -511.56599368259856   -2.42869e-05   2.72628e-05 DIIS
   @DF-RKS iter   7:  -511.56599789751243   -4.21491e-06   3.80825e-06 DIIS
   @DF-RKS iter   8:  -511.56599807362682   -1.76114e-07   6.81555e-07 DIIS
   @DF-RKS iter   9:  -511.56599807839376   -4.76695e-09   1.99886e-07 DIIS
   @DF-RKS iter  10:  -511.56599807861079   -2.17028e-10   4.04560e-08 DIIS
   @DF-RKS iter  11:  -511.56599807861772   -6.93490e-12   4.92349e-09 DIIS
  Energy and wave function converged.


  ==> Post-Iterations <==

    Orbital Energies [Eh]
    ---------------------

    Doubly Occupied:                                                      

       1A1   -89.237435     2A1   -19.418984     3A1   -10.513356  
       4A1    -8.152940     5A1    -6.063515     1B2    -6.057665  
       1B1    -6.057665     6A1    -1.274632     7A1    -0.943624  
       8A1    -0.668823     2B2    -0.592244     2B1    -0.592244  
       9A1    -0.576319     3B2    -0.395565     3B1    -0.395565  

    Virtual:                                                              

       4B2     0.048861     4B1     0.048861    10A1     0.101758  
      11A1     0.139747    12A1     0.196355     5B2     0.245095  
       5B1     0.245095     6B2     0.298496     6B1     0.298496  
      13A1     0.306824     1A2     0.315904    14A1     0.315905  
      15A1     0.425262     7B2     0.463015     7B1     0.463015  
      16A1     0.560409    17A1     0.567835     8B1     0.570359  
       8B2     0.570359    18A1     0.573880     2A2     0.573880  
      19A1     0.783140    20A1     0.905558     9B2     0.947967  
       9B1     0.947967     3A2     1.007513    21A1     1.007517  
      22A1     1.087757    10B1     1.100146    10B2     1.100146  
      23A1     1.100593     4A2     1.100594    11B2     1.116456  
      11B1     1.116456    24A1     1.205998    12B2     1.262857  
      12B1     1.262857    13B1     1.282651    13B2     1.282651  
      25A1     1.293764    26A1     1.377088     5A2     1.381527  
      27A1     1.381528    14B1     1.567104    14B2     1.567104  
      15B2     1.680663    15B1     1.680663    28A1     1.729750  
      16B2     1.734376    16B1     1.734376    29A1     1.839868  
       6A2     1.839873    30A1     1.879871    31A1     2.129185  
      17B1     2.150352    17B2     2.150352     7A2     2.163566  
      32A1     2.163569    33A1     2.332169    18B1     2.611756  
      18B2     2.611756     8A2     2.703968    34A1     2.703970  
      19B2     2.828334    19B1     2.828334    35A1     2.861979  
      20B1     2.977648    20B2     2.977648    21B1     2.993923  
      21B2     2.993923    36A1     3.004274     9A2     3.004281  
      37A1     3.007503    38A1     3.067559    22B2     3.183045  
      22B1     3.183045    10A2     3.191834    39A1     3.191862  
      23B2     3.272783    23B1     3.272783    11A2     3.376243  
      40A1     3.376245    24B2     3.543937    24B1     3.543937  
      41A1     3.682548    42A1     3.718821    43A1     3.869284  
      12A2     3.869292    25B1     3.922440    25B2     3.922440  
      44A1     3.932045    45A1     4.139943    13A2     4.144573  
      46A1     4.144576    26B1     4.444223    26B2     4.444223  
      27B1     4.724997    27B2     4.724997    14A2     4.783555  
      47A1     4.783555    48A1     4.802893    49A1     4.959935  
      28B1     5.027810    28B2     5.027810    29B2     5.307657  
      29B1     5.307657    15A2     5.683664    50A1     5.683693  
      30B2     5.689768    30B1     5.689768    31B1     5.836256  
      31B2     5.836256    51A1     5.857984    32B2     5.882546  
      32B1     5.882546    16A2     6.006511    52A1     6.006531  
      53A1     6.269432    17A2     6.269445    54A1     6.589274  
      33B1     6.636189    33B2     6.636189    55A1     7.003651  
      34B2     7.912030    34B1     7.912030    56A1     8.283767  
      57A1     8.500808    58A1     8.721320    18A2     8.721350  
      59A1     8.916550    19A2     8.916565    35B2     8.998571  
      35B1     8.998571    36B1     9.158167    36B2     9.158167  
      60A1     9.647278    20A2    10.059503    61A1    10.059514  
      37B1    10.245210    37B2    10.245210    62A1    10.554952  
      38B1    10.732475    38B2    10.732475    39B2    11.028324  
      39B1    11.028324    63A1    11.146969    21A2    11.423575  
      64A1    11.423598    40B1    12.055451    40B2    12.055451  
      22A2    12.148323    65A1    12.148351    66A1    13.104960  
      41B1    13.733907    41B2    13.733907    67A1    13.962005  
      68A1    18.983438    69A1    23.815342    70A1    41.972641  

    Final Occupation by Irrep:
             A1    A2    B1    B2 
    DOCC [     9,    0,    3,    3 ]

  @DF-RKS Final Energy:  -511.56599807861772

   => Energetics <=

    Nuclear Repulsion Energy =             79.2248546344207796
    One-Electron Energy =                -860.9665232996311488
    Two-Electron Energy =                 299.9606488823420136
    DFT Exchange-Correlation Energy =     -29.9094610300392461
    Empirical Dispersion Energy =           0.0000000000000000
    VV10 Nonlocal Energy =                  0.1244827342898856
    Total Energy =                       -511.5659980786177243

Computation Completed


Properties will be evaluated at   0.000000,   0.000000,   0.000000 [a0]

Properties computed using the SCF density matrix

  Nuclear Dipole Moment: [e a0]
     X:     0.0000      Y:     0.0000      Z:     0.0194

  Electronic Dipole Moment: [e a0]
     X:     0.0000      Y:     0.0000      Z:     0.2524

  Dipole Moment: [e a0]
     X:     0.0000      Y:     0.0000      Z:     0.2718     Total:     0.2718

  Dipole Moment: [D]
     X:     0.0000      Y:     0.0000      Z:     0.6908     Total:     0.6908


*** tstop() called on bp1-compute00138.data.bp.acrc.priv at Tue Apr 27 17:15:24 2021
Module time:
	user time   =     102.78 seconds =       1.71 minutes
	system time =       3.06 seconds =       0.05 minutes
	total time  =          4 seconds =       0.07 minutes
Total time:
	user time   =     323.00 seconds =       5.38 minutes
	system time =      12.80 seconds =       0.21 minutes
	total time  =         15 seconds =       0.25 minutes

  //>>>>>>>>>>>>>>>>>>>>>>>>>>>>>>>>>>>//
  //    Loading displacement 4 of 5    //
  //<<<<<<<<<<<<<<<<<<<<<<<<<<<<<<<<<<<//

*** tstart() called on bp1-compute00138.data.bp.acrc.priv
*** at Tue Apr 27 17:15:24 2021

   => Loading Basis Set <=

    Name: CC-PV(Q+D)Z
    Role: ORBITAL
    Keyword: BASIS
    atoms 1 entry O          line   349 file /work/zw18965/.conda/envs/p4env/share/psi4/basis/cc-pv_qpd_z.gbs 
    atoms 2 entry C          line   249 file /work/zw18965/.conda/envs/p4env/share/psi4/basis/cc-pv_qpd_z.gbs 
    atoms 3 entry S          line   978 file /work/zw18965/.conda/envs/p4env/share/psi4/basis/cc-pv_qpd_z.gbs 


         ---------------------------------------------------------
                                   SCF
               by Justin Turney, Rob Parrish, Andy Simmonett
                          and Daniel G. A. Smith
                              RKS Reference
                       24 Threads, 137329 MiB Core
         ---------------------------------------------------------

  ==> Geometry <==

    Molecular point group: c2v
    Full point group: C_inf_v

    Geometry (in Angstrom), charge = 0, multiplicity = 1:

       Center              X                  Y                   Z               Mass       
    ------------   -----------------  -----------------  -----------------  -----------------
         O            0.000000000000     0.000000000000    -1.684829158394    15.994914619570
         C            0.000000000000     0.000000000000    -0.527048412935    12.000000000000
         S            0.000000000000     0.000000000000     1.040698280408    31.972071174400

  Running in c2v symmetry.

  Rotational constants: A = ************  B =      0.20222  C =      0.20222 [cm^-1]
  Rotational constants: A = ************  B =   6062.26204  C =   6062.26204 [MHz]
  Nuclear repulsion =   79.194754216267100

  Charge       = 0
  Multiplicity = 1
  Electrons    = 30
  Nalpha       = 15
  Nbeta        = 15

  ==> Algorithm <==

  SCF Algorithm Type is DF.
  DIIS enabled.
  MOM disabled.
  Fractional occupation disabled.
  Guess Type is SAD.
  Energy threshold   = 1.00e-08
  Density threshold  = 1.00e-08
  Integral threshold = 0.00e+00

  ==> Primary Basis <==

  Basis Set: CC-PV(Q+D)Z
    Blend: CC-PV(Q+D)Z
    Number of shells: 48
    Number of basis function: 174
    Number of Cartesian functions: 220
    Spherical Harmonics?: true
    Max angular momentum: 4

  ==> DFT Potential <==

   => Composite Functional: WB97M-V <= 

    wB97M-V Hyb-GGA Exchange-Correlation Functional

    N. Mardirossian and M. Head-Gordon, J. Chem. Phys. 144, 214110 (2016)

    Deriv               =              1
    GGA                 =           TRUE
    Meta                =           TRUE

    Exchange Hybrid     =           TRUE
    MP2 Hybrid          =          FALSE

   => Exchange-Correlation Functionals <=

    1.0000   wB97M-V exchange-correlation functional

   => Exact (HF) Exchange <=

    0.8500            HF,LR [omega = 0.3000]
    0.1500               HF 

   => VV10 Non-Local Parameters <=

    VV10 B              =     6.0000E+00
    VV10 C              =     1.0000E-02

   => Molecular Quadrature <=

    Radial Scheme          =       TREUTLER
    Pruning Scheme         =           FLAT
    Nuclear Scheme         =       TREUTLER

    BS radius alpha        =              1
    Pruning alpha          =              1
    Radial Points          =             75
    Spherical Points       =            302
    Total Points           =          65778
    Total Blocks           =            572
    Max Points             =            256
    Max Functions          =            174

   => Loading Basis Set <=

    Name: (CC-PV(Q+D)Z AUX)
    Role: JKFIT
    Keyword: DF_BASIS_SCF
    atoms 1 entry O          line   253 file /work/zw18965/.conda/envs/p4env/share/psi4/basis/cc-pvqz-jkfit.gbs 
    atoms 2 entry C          line   137 file /work/zw18965/.conda/envs/p4env/share/psi4/basis/cc-pvqz-jkfit.gbs 
    atoms 3 entry S          line   673 file /work/zw18965/.conda/envs/p4env/share/psi4/basis/cc-pvqz-jkfit.gbs 

  ==> Pre-Iterations <==

   -------------------------------------------------------
    Irrep   Nso     Nmo     Nalpha   Nbeta   Ndocc  Nsocc
   -------------------------------------------------------
     A1        70      70       0       0       0       0
     A2        22      22       0       0       0       0
     B1        41      41       0       0       0       0
     B2        41      41       0       0       0       0
   -------------------------------------------------------
    Total     174     174      15      15      15       0
   -------------------------------------------------------

  ==> Integral Setup <==

  ==> DiskDFJK: Density-Fitted J/K Matrices <==

    J tasked:                  Yes
    K tasked:                  Yes
    wK tasked:                 Yes
    Omega:               3.000E-01
    OpenMP threads:             24
    Integrals threads:          24
    Memory [MiB]:           102298
    Algorithm:                Core
    Integral Cache:           NONE
    Schwarz Cutoff:          1E-12
    Fitting Condition:       1E-10

   => Auxiliary Basis Set <=

  Basis Set: (CC-PV(Q+D)Z AUX)
    Blend: CC-PVQZ-JKFIT
    Number of shells: 96
    Number of basis function: 360
    Number of Cartesian functions: 475
    Spherical Harmonics?: true
    Max angular momentum: 5

  Cached 100.0% of DFT collocation blocks in 0.682 [GiB].

  Minimum eigenvalue in the overlap matrix is 1.3056419333E-04.
  Using Symmetric Orthogonalization.

  SCF Guess: Superposition of Atomic Densities via on-the-fly atomic UHF.

  ==> Iterations <==

                           Total Energy        Delta E     RMS |[F,P]|

   @DF-RKS iter SAD:  -511.01630668853528   -5.11016e+02   0.00000e+00 
   @DF-RKS iter   1:  -511.48776443034143   -4.71458e-01   5.20139e-03 DIIS
   @DF-RKS iter   2:  -511.42031079623359    6.74536e-02   7.01586e-03 DIIS
   @DF-RKS iter   3:  -511.56333068768180   -1.43020e-01   8.47967e-04 DIIS
   @DF-RKS iter   4:  -511.56583509567747   -2.50441e-03   1.54852e-04 DIIS
   @DF-RKS iter   5:  -511.56595361490304   -1.18519e-04   6.63882e-05 DIIS
   @DF-RKS iter   6:  -511.56597842721465   -2.48123e-05   2.72559e-05 DIIS
   @DF-RKS iter   7:  -511.56598265800324   -4.23079e-06   3.82181e-06 DIIS
   @DF-RKS iter   8:  -511.56598283509618   -1.77093e-07   6.83375e-07 DIIS
   @DF-RKS iter   9:  -511.56598283988910   -4.79292e-09   2.00521e-07 DIIS
   @DF-RKS iter  10:  -511.56598284010738   -2.18279e-10   4.05429e-08 DIIS
   @DF-RKS iter  11:  -511.56598284011488   -7.50333e-12   4.93999e-09 DIIS
  Energy and wave function converged.


  ==> Post-Iterations <==

    Orbital Energies [Eh]
    ---------------------

    Doubly Occupied:                                                      

       1A1   -89.237509     2A1   -19.419138     3A1   -10.513548  
       4A1    -8.152972     5A1    -6.063556     1B1    -6.057696  
       1B2    -6.057696     6A1    -1.274675     7A1    -0.943363  
       8A1    -0.668939     2B1    -0.592239     2B2    -0.592239  
       9A1    -0.576307     3B1    -0.395512     3B2    -0.395512  

    Virtual:                                                              

       4B1     0.048739     4B2     0.048739    10A1     0.101597  
      11A1     0.139764    12A1     0.196296     5B1     0.245119  
       5B2     0.245119     6B1     0.298489     6B2     0.298489  
      13A1     0.306692     1A2     0.315947    14A1     0.315948  
      15A1     0.425137     7B1     0.462833     7B2     0.462833  
      16A1     0.560328    17A1     0.567808     8B2     0.570324  
       8B1     0.570324    18A1     0.573778     2A2     0.573779  
      19A1     0.783053    20A1     0.905452     9B1     0.947904  
       9B2     0.947904     3A2     1.007570    21A1     1.007573  
      22A1     1.087550    10B2     1.100204    10B1     1.100204  
      23A1     1.100495     4A2     1.100495    11B1     1.116199  
      11B2     1.116199    24A1     1.205930    12B1     1.262903  
      12B2     1.262903    13B2     1.282570    13B1     1.282570  
      25A1     1.293210    26A1     1.376932     5A2     1.381268  
      27A1     1.381269    14B2     1.566863    14B1     1.566863  
      15B1     1.680743    15B2     1.680743    28A1     1.730097  
      16B1     1.734251    16B2     1.734251    29A1     1.839790  
       6A2     1.839795    30A1     1.879503    31A1     2.128698  
      17B2     2.149818    17B1     2.149818     7A2     2.163164  
      32A1     2.163168    33A1     2.332342    18B2     2.611073  
      18B1     2.611073     8A2     2.703965    34A1     2.703968  
      19B1     2.828345    19B2     2.828345    35A1     2.861159  
      20B2     2.977052    20B1     2.977052    21B2     2.993887  
      21B1     2.993887    36A1     3.004326     9A2     3.004332  
      37A1     3.007290    38A1     3.067301    22B2     3.183049  
      22B1     3.183049    10A2     3.191520    39A1     3.191548  
      23B2     3.272523    23B1     3.272523    11A2     3.375731  
      40A1     3.375733    24B1     3.543925    24B2     3.543925  
      41A1     3.682161    42A1     3.718489    43A1     3.868971  
      12A2     3.868979    25B2     3.921924    25B1     3.921924  
      44A1     3.931246    45A1     4.138974    13A2     4.143767  
      46A1     4.143769    26B2     4.443393    26B1     4.443393  
      27B2     4.725189    27B1     4.725189    47A1     4.783485  
      14A2     4.783485    48A1     4.803725    49A1     4.958563  
      28B2     5.027225    28B1     5.027225    29B1     5.307106  
      29B2     5.307106    15A2     5.683308    50A1     5.683336  
      30B1     5.689288    30B2     5.689288    31B2     5.835556  
      31B1     5.835556    51A1     5.857655    32B1     5.882436  
      32B2     5.882436    16A2     6.006327    52A1     6.006347  
      53A1     6.268358    17A2     6.268371    54A1     6.588782  
      33B2     6.634033    33B1     6.634033    55A1     7.000745  
      34B2     7.910691    34B1     7.910691    56A1     8.284874  
      57A1     8.498688    58A1     8.721278    18A2     8.721307  
      59A1     8.916440    19A2     8.916454    35B1     8.997679  
      35B2     8.997679    36B2     9.157859    36B1     9.157859  
      60A1     9.646844    20A2    10.058584    61A1    10.058595  
      37B2    10.244675    37B1    10.244675    62A1    10.553496  
      38B2    10.731931    38B1    10.731931    39B1    11.028182  
      39B2    11.028182    63A1    11.146648    21A2    11.423293  
      64A1    11.423316    40B2    12.054608    40B1    12.054608  
      22A2    12.147968    65A1    12.147996    66A1    13.104432  
      41B2    13.732081    41B1    13.732081    67A1    13.961244  
      68A1    18.975067    69A1    23.811894    70A1    41.971331  

    Final Occupation by Irrep:
             A1    A2    B1    B2 
    DOCC [     9,    0,    3,    3 ]

  @DF-RKS Final Energy:  -511.56598284011488

   => Energetics <=

    Nuclear Repulsion Energy =             79.1947542162670999
    One-Electron Energy =                -860.9059728411649530
    Two-Electron Energy =                 299.9296463448022223
    DFT Exchange-Correlation Energy =     -29.9088940971274795
    Empirical Dispersion Energy =           0.0000000000000000
    VV10 Nonlocal Energy =                  0.1244835371081669
    Total Energy =                       -511.5659828401148843

Computation Completed


Properties will be evaluated at   0.000000,   0.000000,   0.000000 [a0]

Properties computed using the SCF density matrix

  Nuclear Dipole Moment: [e a0]
     X:     0.0000      Y:     0.0000      Z:     0.0194

  Electronic Dipole Moment: [e a0]
     X:     0.0000      Y:     0.0000      Z:     0.2511

  Dipole Moment: [e a0]
     X:     0.0000      Y:     0.0000      Z:     0.2705     Total:     0.2705

  Dipole Moment: [D]
     X:     0.0000      Y:     0.0000      Z:     0.6875     Total:     0.6875


*** tstop() called on bp1-compute00138.data.bp.acrc.priv at Tue Apr 27 17:15:29 2021
Module time:
	user time   =     101.69 seconds =       1.69 minutes
	system time =       2.98 seconds =       0.05 minutes
	total time  =          5 seconds =       0.08 minutes
Total time:
	user time   =     424.82 seconds =       7.08 minutes
	system time =      15.79 seconds =       0.26 minutes
	total time  =         20 seconds =       0.33 minutes

  //>>>>>>>>>>>>>>>>>>>>>>>>>>>>>>>>>>>//
  //    Loading displacement 5 of 5    //
  //<<<<<<<<<<<<<<<<<<<<<<<<<<<<<<<<<<<//

*** tstart() called on bp1-compute00138.data.bp.acrc.priv
*** at Tue Apr 27 17:15:29 2021

   => Loading Basis Set <=

    Name: CC-PV(Q+D)Z
    Role: ORBITAL
    Keyword: BASIS
    atoms 1 entry O          line   349 file /work/zw18965/.conda/envs/p4env/share/psi4/basis/cc-pv_qpd_z.gbs 
    atoms 2 entry C          line   249 file /work/zw18965/.conda/envs/p4env/share/psi4/basis/cc-pv_qpd_z.gbs 
    atoms 3 entry S          line   978 file /work/zw18965/.conda/envs/p4env/share/psi4/basis/cc-pv_qpd_z.gbs 


         ---------------------------------------------------------
                                   SCF
               by Justin Turney, Rob Parrish, Andy Simmonett
                          and Daniel G. A. Smith
                              RKS Reference
                       24 Threads, 137329 MiB Core
         ---------------------------------------------------------

  ==> Geometry <==

    Molecular point group: c2v
    Full point group: C_inf_v

    Geometry (in Angstrom), charge = 0, multiplicity = 1:

       Center              X                  Y                   Z               Mass       
    ------------   -----------------  -----------------  -----------------  -----------------
         O            0.000000000000     0.000000000000    -1.684829158394    15.994914619570
         C            0.000000000000     0.000000000000    -0.525745823852    12.000000000000
         S            0.000000000000     0.000000000000     1.040209382804    31.972071174400

  Running in c2v symmetry.

  Rotational constants: A = ************  B =      0.20233  C =      0.20233 [cm^-1]
  Rotational constants: A = ************  B =   6065.82617  C =   6065.82617 [MHz]
  Nuclear repulsion =   79.211628369170626

  Charge       = 0
  Multiplicity = 1
  Electrons    = 30
  Nalpha       = 15
  Nbeta        = 15

  ==> Algorithm <==

  SCF Algorithm Type is DF.
  DIIS enabled.
  MOM disabled.
  Fractional occupation disabled.
  Guess Type is SAD.
  Energy threshold   = 1.00e-08
  Density threshold  = 1.00e-08
  Integral threshold = 0.00e+00

  ==> Primary Basis <==

  Basis Set: CC-PV(Q+D)Z
    Blend: CC-PV(Q+D)Z
    Number of shells: 48
    Number of basis function: 174
    Number of Cartesian functions: 220
    Spherical Harmonics?: true
    Max angular momentum: 4

  ==> DFT Potential <==

   => Composite Functional: WB97M-V <= 

    wB97M-V Hyb-GGA Exchange-Correlation Functional

    N. Mardirossian and M. Head-Gordon, J. Chem. Phys. 144, 214110 (2016)

    Deriv               =              1
    GGA                 =           TRUE
    Meta                =           TRUE

    Exchange Hybrid     =           TRUE
    MP2 Hybrid          =          FALSE

   => Exchange-Correlation Functionals <=

    1.0000   wB97M-V exchange-correlation functional

   => Exact (HF) Exchange <=

    0.8500            HF,LR [omega = 0.3000]
    0.1500               HF 

   => VV10 Non-Local Parameters <=

    VV10 B              =     6.0000E+00
    VV10 C              =     1.0000E-02

   => Molecular Quadrature <=

    Radial Scheme          =       TREUTLER
    Pruning Scheme         =           FLAT
    Nuclear Scheme         =       TREUTLER

    BS radius alpha        =              1
    Pruning alpha          =              1
    Radial Points          =             75
    Spherical Points       =            302
    Total Points           =          65778
    Total Blocks           =            572
    Max Points             =            255
    Max Functions          =            174

   => Loading Basis Set <=

    Name: (CC-PV(Q+D)Z AUX)
    Role: JKFIT
    Keyword: DF_BASIS_SCF
    atoms 1 entry O          line   253 file /work/zw18965/.conda/envs/p4env/share/psi4/basis/cc-pvqz-jkfit.gbs 
    atoms 2 entry C          line   137 file /work/zw18965/.conda/envs/p4env/share/psi4/basis/cc-pvqz-jkfit.gbs 
    atoms 3 entry S          line   673 file /work/zw18965/.conda/envs/p4env/share/psi4/basis/cc-pvqz-jkfit.gbs 

  ==> Pre-Iterations <==

   -------------------------------------------------------
    Irrep   Nso     Nmo     Nalpha   Nbeta   Ndocc  Nsocc
   -------------------------------------------------------
     A1        70      70       0       0       0       0
     A2        22      22       0       0       0       0
     B1        41      41       0       0       0       0
     B2        41      41       0       0       0       0
   -------------------------------------------------------
    Total     174     174      15      15      15       0
   -------------------------------------------------------

  ==> Integral Setup <==

  ==> DiskDFJK: Density-Fitted J/K Matrices <==

    J tasked:                  Yes
    K tasked:                  Yes
    wK tasked:                 Yes
    Omega:               3.000E-01
    OpenMP threads:             24
    Integrals threads:          24
    Memory [MiB]:           102297
    Algorithm:                Core
    Integral Cache:           NONE
    Schwarz Cutoff:          1E-12
    Fitting Condition:       1E-10

   => Auxiliary Basis Set <=

  Basis Set: (CC-PV(Q+D)Z AUX)
    Blend: CC-PVQZ-JKFIT
    Number of shells: 96
    Number of basis function: 360
    Number of Cartesian functions: 475
    Spherical Harmonics?: true
    Max angular momentum: 5

  Cached 100.0% of DFT collocation blocks in 0.683 [GiB].

  Minimum eigenvalue in the overlap matrix is 1.2982078500E-04.
  Using Symmetric Orthogonalization.

  SCF Guess: Superposition of Atomic Densities via on-the-fly atomic UHF.

  ==> Iterations <==

                           Total Energy        Delta E     RMS |[F,P]|

   @DF-RKS iter SAD:  -511.01663534632581   -5.11017e+02   0.00000e+00 
   @DF-RKS iter   1:  -511.48751459938512   -4.70879e-01   5.20553e-03 DIIS
   @DF-RKS iter   2:  -511.41904777187727    6.84668e-02   7.04016e-03 DIIS
   @DF-RKS iter   3:  -511.56330739991904   -1.44260e-01   8.48525e-04 DIIS
   @DF-RKS iter   4:  -511.56581426889397   -2.50687e-03   1.54044e-04 DIIS
   @DF-RKS iter   5:  -511.56593227264631   -1.18004e-04   6.52691e-05 DIIS
   @DF-RKS iter   6:  -511.56595623081608   -2.39582e-05   2.73512e-05 DIIS
   @DF-RKS iter   7:  -511.56596045396770   -4.22315e-06   3.80772e-06 DIIS
   @DF-RKS iter   8:  -511.56596063043804   -1.76470e-07   6.81553e-07 DIIS
   @DF-RKS iter   9:  -511.56596063520982   -4.77178e-09   2.00787e-07 DIIS
   @DF-RKS iter  10:  -511.56596063542867   -2.18847e-10   4.09275e-08 DIIS
   @DF-RKS iter  11:  -511.56596063543623   -7.56017e-12   4.96461e-09 DIIS
  Energy and wave function converged.


  ==> Post-Iterations <==

    Orbital Energies [Eh]
    ---------------------

    Doubly Occupied:                                                      

       1A1   -89.237622     2A1   -19.418728     3A1   -10.513431  
       4A1    -8.153158     5A1    -6.063718     1B2    -6.057889  
       1B1    -6.057889     6A1    -1.273541     7A1    -0.944046  
       8A1    -0.668536     2B2    -0.591633     2B1    -0.591633  
       9A1    -0.576368     3B2    -0.395748     3B1    -0.395748  

    Virtual:                                                              

       4B2     0.048581     4B1     0.048581    10A1     0.101780  
      11A1     0.139737    12A1     0.196287     5B2     0.245056  
       5B1     0.245056     6B2     0.298570     6B1     0.298570  
      13A1     0.306962     1A2     0.315740    14A1     0.315740  
      15A1     0.425223     7B2     0.462967     7B1     0.462967  
      16A1     0.560393    17A1     0.567201     8B1     0.570554  
       8B2     0.570554    18A1     0.574025     2A2     0.574026  
      19A1     0.783058    20A1     0.905326     9B2     0.947679  
       9B1     0.947679     3A2     1.007286    21A1     1.007289  
      22A1     1.086972    10B2     1.099931    10B1     1.099931  
      23A1     1.100629     4A2     1.100629    11B2     1.116398  
      11B1     1.116398    24A1     1.205963    12B2     1.262601  
      12B1     1.262601    13B1     1.283113    13B2     1.283113  
      25A1     1.294113    26A1     1.377330     5A2     1.381460  
      27A1     1.381461    14B1     1.567555    14B2     1.567555  
      15B2     1.680666    15B1     1.680666    28A1     1.729383  
      16B1     1.734549    16B2     1.734549    29A1     1.840024  
       6A2     1.840028    30A1     1.879800    31A1     2.129670  
      17B1     2.150264    17B2     2.150264     7A2     2.163574  
      32A1     2.163578    33A1     2.331739    18B1     2.611368  
      18B2     2.611368     8A2     2.703739    34A1     2.703741  
      19B2     2.827976    19B1     2.827976    35A1     2.861783  
      20B1     2.977443    20B2     2.977443    21B1     2.993916  
      21B2     2.993916    36A1     3.004030     9A2     3.004037  
      37A1     3.008357    38A1     3.067700    22B2     3.182864  
      22B1     3.182864    10A2     3.191694    39A1     3.191722  
      23B2     3.272709    23B1     3.272709    11A2     3.376220  
      40A1     3.376222    24B2     3.544798    24B1     3.544798  
      41A1     3.681965    42A1     3.719063    43A1     3.869408  
      12A2     3.869416    25B1     3.923503    25B2     3.923503  
      44A1     3.932477    45A1     4.140247    13A2     4.143851  
      46A1     4.143853    26B1     4.444034    26B2     4.444034  
      27B1     4.724479    27B2     4.724479    14A2     4.783651  
      47A1     4.783652    48A1     4.805713    49A1     4.956037  
      28B1     5.027441    28B2     5.027441    29B2     5.307700  
      29B1     5.307700    15A2     5.683701    50A1     5.683729  
      30B2     5.690099    30B1     5.690099    31B1     5.834925  
      31B2     5.834925    51A1     5.857453    32B2     5.882736  
      32B1     5.882736    16A2     6.007270    52A1     6.007290  
      53A1     6.267852    17A2     6.267864    54A1     6.586136  
      33B1     6.635491    33B2     6.635491    55A1     7.003828  
      34B1     7.909497    34B2     7.909497    56A1     8.280677  
      57A1     8.500912    58A1     8.721098    18A2     8.721127  
      59A1     8.916935    19A2     8.916950    35B2     8.998982  
      35B1     8.998982    36B1     9.156619    36B2     9.156619  
      60A1     9.646184    20A2    10.054997    61A1    10.055008  
      37B1    10.244264    37B2    10.244264    62A1    10.555370  
      38B1    10.731051    38B2    10.731051    39B1    11.028526  
      39B2    11.028526    63A1    11.145692    21A2    11.423120  
      64A1    11.423144    40B1    12.053269    40B2    12.053269  
      22A2    12.147307    65A1    12.147334    66A1    13.100880  
      41B1    13.727483    41B2    13.727483    67A1    13.957790  
      68A1    18.990672    69A1    23.799900    70A1    41.964959  

    Final Occupation by Irrep:
             A1    A2    B1    B2 
    DOCC [     9,    0,    3,    3 ]

  @DF-RKS Final Energy:  -511.56596063543623

   => Energetics <=

    Nuclear Repulsion Energy =             79.2116283691706258
    One-Electron Energy =                -860.9421587723126095
    Two-Electron Energy =                 299.9488898820768554
    DFT Exchange-Correlation Energy =     -29.9088024265941002
    Empirical Dispersion Energy =           0.0000000000000000
    VV10 Nonlocal Energy =                  0.1244823122230383
    Total Energy =                       -511.5659606354361699

Computation Completed


Properties will be evaluated at   0.000000,   0.000000,   0.000000 [a0]

Properties computed using the SCF density matrix

  Nuclear Dipole Moment: [e a0]
     X:     0.0000      Y:     0.0000      Z:     0.0194

  Electronic Dipole Moment: [e a0]
     X:     0.0000      Y:     0.0000      Z:     0.2590

  Dipole Moment: [e a0]
     X:     0.0000      Y:     0.0000      Z:     0.2783     Total:     0.2783

  Dipole Moment: [D]
     X:     0.0000      Y:     0.0000      Z:     0.7074     Total:     0.7074


*** tstop() called on bp1-compute00138.data.bp.acrc.priv at Tue Apr 27 17:15:34 2021
Module time:
	user time   =     104.12 seconds =       1.74 minutes
	system time =       2.85 seconds =       0.05 minutes
	total time  =          5 seconds =       0.08 minutes
Total time:
	user time   =     529.08 seconds =       8.82 minutes
	system time =      18.65 seconds =       0.31 minutes
	total time  =         25 seconds =       0.42 minutes

         ----------------------------------------------------------
                                   FINDIF
                     R. A. King and Jonathon Misiewicz
         ---------------------------------------------------------

  Computing gradient from energies.
    Using 3-point formula.
    Energy without displacement: -511.5659730371
    Check energies below for precision!
    Forces are for mass-weighted, symmetry-adapted cartesians (in au).

     Coord      Energy(-1)        Energy(+1)            Force
        0   -511.5659457751   -511.5659980786     -0.0052303470
        1   -511.5659828401   -511.5659606354      0.0022204679


-------------------------------------------------------------
  ## New Matrix (Symmetry 0) ##
  Irrep: 1 Size: 3 x 3

                 1                   2                   3

    1     0.00000000000000     0.00000000000000    -0.01791240171946
    2     0.00000000000000     0.00000000000000     0.01144721886258
    3     0.00000000000000     0.00000000000000     0.00646518285688




			-----------------------------------------
			 OPTKING 2.0: for geometry optimizations 
			  - R.A. King,  Bethel University        
			-----------------------------------------
	At level 1: Red. Int., RFO, no backsteps, dynamic trust

	Internal coordinates to be generated automatically.
	Detected frag 1 with atoms:  1 2 3
	---Fragment 1 Bond Connectivity---
	 1 : 2
	 2 : 1 3
	 3 : 2

	---Fragment 1 Geometry and Gradient---
	 O           0.0000000000        0.0000000000       -3.1838656775
	 C           0.0000000000        0.0000000000       -0.9947463870
	 S           0.0000000000        0.0000000000        1.9661727879
	             0.0000000000        0.0000000000       -0.0179124017
	             0.0000000000        0.0000000000        0.0114472189
	             0.0000000000        0.0000000000        0.0064651829

	Previous optimization step data not found.  Starting new optimization.

	---Fragment 1 Intrafragment Coordinates---
	 - Coordinate -           - BOHR/RAD -       - ANG/DEG -
	 R(1,2)           =         2.189119	       1.158432
	 R(2,3)           =         2.960919	       1.566851
	 L(1,2,3)         =         3.141593	     180.000000
	 l(1,2,3)         =         3.141593	     180.000000

	Current energy   :      -511.5659730371

	Generating empirical Hessian (Schlegel '84) for each fragment.
	Taking RFO optimization step.
	Going to follow RFO solution 1.
	Using RFO vector 1.
	Norm of target step-size    0.01779
	Projected energy change by RFO approximation:        -0.0003206745

	Back-transformation to cartesian coordinates...
	Successfully converged to displaced geometry.

	--- Internal Coordinate Step in ANG or DEG, aJ/ANG or AJ/DEG ---
	 ---------------------------------------------------------------------------
	   Coordinate                Previous        Force       Change         New 
	   ----------                --------       ------       ------       ------
	    1 R(1,2)          =      1.158432    -0.147575    -0.007356     1.151076
	    2 R(2,3)          =      1.566851    -0.053265    -0.005875     1.560976
	    3 L(1,2,3)        =    180.000000     0.000000     0.000000   180.000000
	    4 l(1,2,3)        =    180.000000     0.000000     0.000000   180.000000
	 ---------------------------------------------------------------------------
	Successfully symmetrized geometry.

  ==> Convergence Check <==

  Measures of convergence in internal coordinates in au.
  Criteria marked as inactive (o), active & met (*), and active & unmet ( ).
  --------------------------------------------------------------------------------------------- ~
   Step     Total Energy     Delta E     MAX Force     RMS Force      MAX Disp      RMS Disp    ~
  --------------------------------------------------------------------------------------------- ~
    Convergence Criteria    1.00e-06 *    3.00e-04 *             o    1.20e-03 *             o  ~
  --------------------------------------------------------------------------------------------- ~
      1    -511.56597304   -5.12e+02      1.79e-02      9.52e-03 o    1.39e-02      8.90e-03 o  ~
  ---------------------------------------------------------------------------------------------

	Writing optimization data to binary file.
	Structure for next step:
	Cartesian Geometry (in Angstrom)
	    O     0.0000000000   0.0000000000  -1.6779667963
	    C     0.0000000000  -0.0000000000  -0.5268908287
	    S     0.0000000000   0.0000000000   1.0340851843
			--------------------------
			 OPTKING Finished Execution 
			--------------------------

    Structure for next step:
    Molecular point group: c2v
    Full point group: C_inf_v

    Geometry (in Angstrom), charge = 0, multiplicity = 1:

    O            0.000000000000     0.000000000000    -1.676302879460
    C           -0.000000000000     0.000000000000    -0.525226907321
    S            0.000000000000     0.000000000000     1.035749111802

gradient() will perform gradient computation by finite difference of analytic energies.

         ----------------------------------------------------------
                                   FINDIF
                     R. A. King and Jonathon Misiewicz
         ---------------------------------------------------------

  Using finite-differences of energies to determine gradients.
    Generating geometries for use with 3-point formula.
    Displacement size will be 5.00e-03.
    Number of atoms is 3.
    Number of symmetric SALCs is 2.
    Translations projected? 1. Rotations projected? 1.
    Number of geometries (including reference) is 5.

  //>>>>>>>>>>>>>>>>>>>>>>>>>>>>>>>>>>>//
  //    Loading displacement 1 of 5    //
  //<<<<<<<<<<<<<<<<<<<<<<<<<<<<<<<<<<<//

*** tstart() called on bp1-compute00138.data.bp.acrc.priv
*** at Tue Apr 27 17:15:34 2021

   => Loading Basis Set <=

    Name: CC-PV(Q+D)Z
    Role: ORBITAL
    Keyword: BASIS
    atoms 1 entry O          line   349 file /work/zw18965/.conda/envs/p4env/share/psi4/basis/cc-pv_qpd_z.gbs 
    atoms 2 entry C          line   249 file /work/zw18965/.conda/envs/p4env/share/psi4/basis/cc-pv_qpd_z.gbs 
    atoms 3 entry S          line   978 file /work/zw18965/.conda/envs/p4env/share/psi4/basis/cc-pv_qpd_z.gbs 


         ---------------------------------------------------------
                                   SCF
               by Justin Turney, Rob Parrish, Andy Simmonett
                          and Daniel G. A. Smith
                              RKS Reference
                       24 Threads, 137329 MiB Core
         ---------------------------------------------------------

  ==> Geometry <==

    Molecular point group: c2v
    Full point group: C_inf_v

    Geometry (in Angstrom), charge = 0, multiplicity = 1:

       Center              X                  Y                   Z               Mass       
    ------------   -----------------  -----------------  -----------------  -----------------
         O           -0.000000000000     0.000000000000    -1.676302879460    15.994914619570
         C            0.000000000000     0.000000000000    -0.525226907321    12.000000000000
         S           -0.000000000000     0.000000000000     1.035749111802    31.972071174400

  Running in c2v symmetry.

  Rotational constants: A = ************  B =      0.20420  C =      0.20420 [cm^-1]
  Rotational constants: A = ************  B =   6121.73918  C =   6121.73918 [MHz]
  Nuclear repulsion =   79.586577020634707

  Charge       = 0
  Multiplicity = 1
  Electrons    = 30
  Nalpha       = 15
  Nbeta        = 15

  ==> Algorithm <==

  SCF Algorithm Type is DF.
  DIIS enabled.
  MOM disabled.
  Fractional occupation disabled.
  Guess Type is READ.
  Energy threshold   = 1.00e-08
  Density threshold  = 1.00e-08
  Integral threshold = 0.00e+00

  ==> Primary Basis <==

  Basis Set: CC-PV(Q+D)Z
    Blend: CC-PV(Q+D)Z
    Number of shells: 48
    Number of basis function: 174
    Number of Cartesian functions: 220
    Spherical Harmonics?: true
    Max angular momentum: 4

  ==> DFT Potential <==

   => Composite Functional: WB97M-V <= 

    wB97M-V Hyb-GGA Exchange-Correlation Functional

    N. Mardirossian and M. Head-Gordon, J. Chem. Phys. 144, 214110 (2016)

    Deriv               =              1
    GGA                 =           TRUE
    Meta                =           TRUE

    Exchange Hybrid     =           TRUE
    MP2 Hybrid          =          FALSE

   => Exchange-Correlation Functionals <=

    1.0000   wB97M-V exchange-correlation functional

   => Exact (HF) Exchange <=

    0.8500            HF,LR [omega = 0.3000]
    0.1500               HF 

   => VV10 Non-Local Parameters <=

    VV10 B              =     6.0000E+00
    VV10 C              =     1.0000E-02

   => Molecular Quadrature <=

    Radial Scheme          =       TREUTLER
    Pruning Scheme         =           FLAT
    Nuclear Scheme         =       TREUTLER

    BS radius alpha        =              1
    Pruning alpha          =              1
    Radial Points          =             75
    Spherical Points       =            302
    Total Points           =          65778
    Total Blocks           =            571
    Max Points             =            255
    Max Functions          =            174

   => Loading Basis Set <=

    Name: (CC-PV(Q+D)Z AUX)
    Role: JKFIT
    Keyword: DF_BASIS_SCF
    atoms 1 entry O          line   253 file /work/zw18965/.conda/envs/p4env/share/psi4/basis/cc-pvqz-jkfit.gbs 
    atoms 2 entry C          line   137 file /work/zw18965/.conda/envs/p4env/share/psi4/basis/cc-pvqz-jkfit.gbs 
    atoms 3 entry S          line   673 file /work/zw18965/.conda/envs/p4env/share/psi4/basis/cc-pvqz-jkfit.gbs 

   => Loading Basis Set <=

    Name: CC-PV(Q+D)Z
    Role: ORBITAL
    Keyword: BASIS
    atoms 1 entry O          line   349 file /work/zw18965/.conda/envs/p4env/share/psi4/basis/cc-pv_qpd_z.gbs 
    atoms 2 entry C          line   249 file /work/zw18965/.conda/envs/p4env/share/psi4/basis/cc-pv_qpd_z.gbs 
    atoms 3 entry S          line   978 file /work/zw18965/.conda/envs/p4env/share/psi4/basis/cc-pv_qpd_z.gbs 

  Reading orbitals from file 180, no projection.

  ==> Pre-Iterations <==

   -------------------------------------------------------
    Irrep   Nso     Nmo     Nalpha   Nbeta   Ndocc  Nsocc
   -------------------------------------------------------
     A1        70      70       0       0       0       0
     A2        22      22       0       0       0       0
     B1        41      41       0       0       0       0
     B2        41      41       0       0       0       0
   -------------------------------------------------------
    Total     174     174      15      15      15       0
   -------------------------------------------------------

  ==> Integral Setup <==

  ==> DiskDFJK: Density-Fitted J/K Matrices <==

    J tasked:                  Yes
    K tasked:                  Yes
    wK tasked:                 Yes
    Omega:               3.000E-01
    OpenMP threads:             24
    Integrals threads:          24
    Memory [MiB]:           102296
    Algorithm:                Core
    Integral Cache:           NONE
    Schwarz Cutoff:          1E-12
    Fitting Condition:       1E-10

   => Auxiliary Basis Set <=

  Basis Set: (CC-PV(Q+D)Z AUX)
    Blend: CC-PVQZ-JKFIT
    Number of shells: 96
    Number of basis function: 360
    Number of Cartesian functions: 475
    Spherical Harmonics?: true
    Max angular momentum: 5

  Cached 100.0% of DFT collocation blocks in 0.684 [GiB].

  Minimum eigenvalue in the overlap matrix is 1.2719013867E-04.
  Using Symmetric Orthogonalization.

  SCF Guess: Orbitals guess was supplied from a previous computation.

  ==> Iterations <==

                           Total Energy        Delta E     RMS |[F,P]|

   @DF-RKS iter   0:  -511.57922727331305   -5.11579e+02   3.31593e-04 
   @DF-RKS iter   1:  -511.56611287508423    1.31144e-02   8.72881e-05 DIIS
   @DF-RKS iter   2:  -511.56610584168823    7.03340e-06   1.06553e-04 DIIS
   @DF-RKS iter   3:  -511.56614952132747   -4.36796e-05   1.18463e-05 DIIS
   @DF-RKS iter   4:  -511.56614985508639   -3.33759e-07   6.70088e-06 DIIS
   @DF-RKS iter   5:  -511.56614998819646   -1.33110e-07   1.61604e-06 DIIS
   @DF-RKS iter   6:  -511.56614999877746   -1.05810e-08   2.49049e-07 DIIS
   @DF-RKS iter   7:  -511.56614999941104   -6.33577e-10   5.27363e-08 DIIS
   @DF-RKS iter   8:  -511.56614999943525   -2.42153e-11   1.41480e-08 DIIS
   @DF-RKS iter   9:  -511.56614999943645   -1.19371e-12   3.35660e-09 DIIS
  Energy and wave function converged.


  ==> Post-Iterations <==

    Orbital Energies [Eh]
    ---------------------

    Doubly Occupied:                                                      

       1A1   -89.235961     2A1   -19.418338     3A1   -10.511089  
       4A1    -8.151790     5A1    -6.062328     1B2    -6.056507  
       1B1    -6.056507     6A1    -1.278298     7A1    -0.944735  
       8A1    -0.668711     2B2    -0.594607     2B1    -0.594607  
       9A1    -0.576241     3B1    -0.395417     3B2    -0.395417  

    Virtual:                                                              

       4B1     0.051170     4B2     0.051170    10A1     0.103298  
      11A1     0.139608    12A1     0.197228     5B1     0.244989  
       5B2     0.244989     6B1     0.298283     6B2     0.298283  
      13A1     0.307676     1A2     0.316075    14A1     0.316075  
      15A1     0.426702     7B1     0.465084     7B2     0.465084  
      16A1     0.561297     8B2     0.570002     8B1     0.570002  
      17A1     0.570451    18A1     0.574376     2A2     0.574377  
      19A1     0.784288    20A1     0.907546     9B1     0.949666  
       9B2     0.949666     3A2     1.007785    21A1     1.007789  
      22A1     1.092805    10B2     1.100354    10B1     1.100354  
      23A1     1.101478     4A2     1.101479    11B1     1.119321  
      11B2     1.119321    24A1     1.206927    12B1     1.263351  
      12B2     1.263351    13B1     1.281708    13B2     1.281708  
      25A1     1.298328    26A1     1.377903     5A2     1.384454  
      27A1     1.384455    14B2     1.567948    14B1     1.567948  
      15B2     1.679810    15B1     1.679810    28A1     1.727550  
      16B1     1.735024    16B2     1.735024    29A1     1.840107  
       6A2     1.840111    30A1     1.883854    31A1     2.132371  
      17B2     2.156225    17B1     2.156225     7A2     2.167662  
      32A1     2.167665    33A1     2.331944    18B2     2.620320  
      18B1     2.620320     8A2     2.704848    34A1     2.704850  
      19B1     2.829588    19B2     2.829588    35A1     2.870858  
      20B1     2.984470    20B2     2.984470    21B1     2.994326  
      21B2     2.994326    36A1     3.004664     9A2     3.004672  
      37A1     3.006661    38A1     3.070050    22B2     3.183674  
      22B1     3.183674    10A2     3.195572    39A1     3.195600  
      23B1     3.275791    23B2     3.275791    11A2     3.381699  
      40A1     3.381702    24B1     3.540645    24B2     3.540645  
      41A1     3.686943    42A1     3.722838    43A1     3.871965  
      12A2     3.871973    25B1     3.923943    25B2     3.923943  
[...]
         ---------------------------------------------------------

  ==> Geometry <==

    Molecular point group: cs
    Full point group: Cs

    Geometry (in Angstrom), charge = 0, multiplicity = 1:

       Center              X                  Y                   Z               Mass       
    ------------   -----------------  -----------------  -----------------  -----------------
         O            0.000000000000    -0.000287580069    -1.675523544495    15.994914619570
         C            0.000000000000     0.000665747400    -0.525453144160    12.000000000000
         S            0.000000000000    -0.000106003460     1.035444140813    31.972071174400

  Running in cs symmetry.

  Rotational constants: A = 2407987.46702  B =      0.20435  C =      0.20435 [cm^-1]
  Rotational constants: A = 72189648157.17372  B =   6126.12663  C =   6126.12611 [MHz]
  Nuclear repulsion =   79.617490628743568

  Charge       = 0
  Multiplicity = 1
  Electrons    = 30
  Nalpha       = 15
  Nbeta        = 15

  ==> Algorithm <==

  SCF Algorithm Type is DF.
  DIIS enabled.
  MOM disabled.
  Fractional occupation disabled.
  Guess Type is SAD.
  Energy threshold   = 1.00e-10
  Density threshold  = 1.00e-10
  Integral threshold = 0.00e+00

  ==> Primary Basis <==

  Basis Set: CC-PV(Q+D)Z
    Blend: CC-PV(Q+D)Z
    Number of shells: 48
    Number of basis function: 174
    Number of Cartesian functions: 220
    Spherical Harmonics?: true
    Max angular momentum: 4

  ==> DFT Potential <==

   => Composite Functional: WB97M-V <= 

    wB97M-V Hyb-GGA Exchange-Correlation Functional

    N. Mardirossian and M. Head-Gordon, J. Chem. Phys. 144, 214110 (2016)

    Deriv               =              1
    GGA                 =           TRUE
    Meta                =           TRUE

    Exchange Hybrid     =           TRUE
    MP2 Hybrid          =          FALSE

   => Exchange-Correlation Functionals <=

    1.0000   wB97M-V exchange-correlation functional

   => Exact (HF) Exchange <=

    0.8500            HF,LR [omega = 0.3000]
    0.1500               HF 

   => VV10 Non-Local Parameters <=

    VV10 B              =     6.0000E+00
    VV10 C              =     1.0000E-02

   => Molecular Quadrature <=

    Radial Scheme          =       TREUTLER
    Pruning Scheme         =           FLAT
    Nuclear Scheme         =       TREUTLER

    BS radius alpha        =              1
    Pruning alpha          =              1
    Radial Points          =             75
    Spherical Points       =            302
    Total Points           =          65778
    Total Blocks           =            572
    Max Points             =            256
    Max Functions          =            174

   => Loading Basis Set <=

    Name: (CC-PV(Q+D)Z AUX)
    Role: JKFIT
    Keyword: DF_BASIS_SCF
    atoms 1 entry O          line   253 file /work/zw18965/.conda/envs/p4env/share/psi4/basis/cc-pvqz-jkfit.gbs 
    atoms 2 entry C          line   137 file /work/zw18965/.conda/envs/p4env/share/psi4/basis/cc-pvqz-jkfit.gbs 
    atoms 3 entry S          line   673 file /work/zw18965/.conda/envs/p4env/share/psi4/basis/cc-pvqz-jkfit.gbs 

  ==> Pre-Iterations <==

   -------------------------------------------------------
    Irrep   Nso     Nmo     Nalpha   Nbeta   Ndocc  Nsocc
   -------------------------------------------------------
     A'       111     111       0       0       0       0
     A"        63      63       0       0       0       0
   -------------------------------------------------------
    Total     174     174      15      15      15       0
   -------------------------------------------------------

  ==> Integral Setup <==

  ==> DiskDFJK: Density-Fitted J/K Matrices <==

    J tasked:                  Yes
    K tasked:                  Yes
    wK tasked:                 Yes
    Omega:               3.000E-01
    OpenMP threads:             24
    Integrals threads:          24
    Memory [MiB]:           102296
    Algorithm:                Core
    Integral Cache:           NONE
    Schwarz Cutoff:          1E-12
    Fitting Condition:       1E-10

   => Auxiliary Basis Set <=

  Basis Set: (CC-PV(Q+D)Z AUX)
    Blend: CC-PVQZ-JKFIT
    Number of shells: 96
    Number of basis function: 360
    Number of Cartesian functions: 475
    Spherical Harmonics?: true
    Max angular momentum: 5

  Cached 100.0% of DFT collocation blocks in 0.684 [GiB].

  Minimum eigenvalue in the overlap matrix is 1.2710337895E-04.
  Using Symmetric Orthogonalization.

  SCF Guess: Superposition of Atomic Densities via on-the-fly atomic UHF.

  ==> Iterations <==

                           Total Energy        Delta E     RMS |[F,P]|

   @DF-RKS iter SAD:  -511.04004864108282   -5.11040e+02   0.00000e+00 
   @DF-RKS iter   1:  -511.48793247567119   -4.47884e-01   3.81818e-03 DIIS
   @DF-RKS iter   2:  -511.42481192107022    6.31206e-02   5.07005e-03 DIIS
   @DF-RKS iter   3:  -511.56348970412341   -1.38678e-01   6.24846e-04 DIIS
   @DF-RKS iter   4:  -511.56601244149334   -2.52274e-03   1.09437e-04 DIIS
   @DF-RKS iter   5:  -511.56612773755336   -1.15296e-04   4.37410e-05 DIIS
   @DF-RKS iter   6:  -511.56614781536939   -2.00778e-05   1.97311e-05 DIIS
   @DF-RKS iter   7:  -511.56615181563490   -4.00027e-06   2.68570e-06 DIIS
   @DF-RKS iter   8:  -511.56615197980159   -1.64167e-07   4.85118e-07 DIIS
   @DF-RKS iter   9:  -511.56615198427346   -4.47187e-09   1.38742e-07 DIIS
   @DF-RKS iter  10:  -511.56615198447156   -1.98099e-10   2.75380e-08 DIIS
   @DF-RKS iter  11:  -511.56615198447844   -6.87805e-12   3.36038e-09 DIIS
   @DF-RKS iter  12:  -511.56615198447872   -2.84217e-13   7.22717e-10 DIIS
   @DF-RKS iter  13:  -511.56615198447872    0.00000e+00   7.87739e-11 DIIS
  Energy and wave function converged.


  ==> Post-Iterations <==

    Orbital Energies [Eh]
    ---------------------

    Doubly Occupied:                                                      

       1Ap   -89.235785     2Ap   -19.418389     3Ap   -10.510898  
       4Ap    -8.151626     5Ap    -6.062167     1App   -6.056340  
       6Ap    -6.056340     7Ap    -1.278974     8Ap    -0.944654  
       9Ap    -0.668815     2App   -0.595011    10Ap    -0.595011  
      11Ap    -0.576214     3App   -0.395336    12Ap    -0.395336  

    Virtual:                                                              

      13Ap     0.051441     4App    0.051442    14Ap     0.103398  
      15Ap     0.139602    16Ap     0.197315    17Ap     0.244995  
       5App    0.244995    18Ap     0.298240     6App    0.298240  
      19Ap     0.307683     7App    0.316149    20Ap     0.316150  
      21Ap     0.426819    22Ap     0.465249     8App    0.465250  
      23Ap     0.561362     9App    0.569900    24Ap     0.569901  
      25Ap     0.570873    26Ap     0.574360    10App    0.574360  
      27Ap     0.784395    28Ap     0.907777    29Ap     0.949894  
      11App    0.949894    12App    1.007891    30Ap     1.007894  
      31Ap     1.093468    32Ap     1.100450    13App    1.100450  
      33Ap     1.101526    14App    1.101527    15App    1.119547  
      34Ap     1.119549    35Ap     1.207012    16App    1.263482  
      36Ap     1.263482    17App    1.281455    37Ap     1.281455  
      38Ap     1.298529    39Ap     1.377888    18App    1.384686  
      40Ap     1.384687    41Ap     1.567848    19App    1.567848  
      42Ap     1.679753    20App    1.679753    43Ap     1.727530  
      44Ap     1.735004    21App    1.735004    45Ap     1.840066  
      22App    1.840071    46Ap     1.884155    47Ap     2.132395  
      23App    2.156675    48Ap     2.156684    24App    2.167950  
      49Ap     2.167954    50Ap     2.332096    51Ap     2.621080  
      25App    2.621082    26App    2.704998    52Ap     2.704999  
      53Ap     2.829815    27App    2.829817    54Ap     2.871527  
      55Ap     2.985004    28App    2.985008    29App    2.994357  
      56Ap     2.994357    57Ap     3.004784    30App    3.004792  
      58Ap     3.006318    59Ap     3.070219    60Ap     3.183788  
      31App    3.183788    32App    3.195890    61Ap     3.195919  
      62Ap     3.276039    33App    3.276039    34App    3.382102  
      63Ap     3.382105    64Ap     3.540048    35App    3.540050  
      65Ap     3.687378    66Ap     3.723063    67Ap     3.872093  
      36App    3.872101    68Ap     3.923688    37App    3.923689  
      69Ap     3.939018    70Ap     4.149746    38App    4.156757  
      71Ap     4.156758    72Ap     4.453888    39App    4.453888  
      73Ap     4.725536    40App    4.725569    74Ap     4.780895  
      41App    4.783904    75Ap     4.783906    76Ap     4.993344  
      42App    5.035983    77Ap     5.035983    43App    5.313764  
      78Ap     5.313768    44App    5.687306    79Ap     5.687335  
      45App    5.693627    80Ap     5.693628    81Ap     5.849814  
      46App    5.849845    82Ap     5.863930    83Ap     5.882907  
      47App    5.882907    48App    6.005253    84Ap     6.005270  
      85Ap     6.288490    49App    6.288501    86Ap     6.608337  
      87Ap     6.663466    50App    6.663470    88Ap     7.034285  
      89Ap     7.937613    51App    7.937614    90Ap     8.284725  
      91Ap     8.524836    92Ap     8.722780    52App    8.722812  
      93Ap     8.916097    53App    8.916109    94Ap     9.006759  
      54App    9.006759    95Ap     9.168564    55App    9.168564  
      96Ap     9.656905    56App   10.089577    97Ap    10.089587  
      98Ap    10.255429    57App   10.255429    99Ap    10.568748  
     100Ap    10.744308    58App   10.744309    59App   11.029011  
     101Ap    11.029011   102Ap    11.155985    60App   11.428654  
     103Ap    11.428673    61App   12.074999   104Ap    12.074999  
      62App   12.157035   105Ap    12.157066   106Ap    13.127554  
      63App   13.782571   107Ap    13.782572   108Ap    13.990817  
     109Ap    19.044794   110Ap    23.921689   111Ap    42.022050  

    Final Occupation by Irrep:
             Ap   App 
    DOCC [    12,    3 ]

  @DF-RKS Final Energy:  -511.56615198447872

   => Energetics <=

    Nuclear Repulsion Energy =             79.6174906287435675
    One-Electron Energy =                -861.7460842648505377
    Two-Electron Energy =                 300.3566666924116930
    DFT Exchange-Correlation Energy =     -29.9187008480942467
    Empirical Dispersion Energy =           0.0000000000000000
    VV10 Nonlocal Energy =                  0.1244758073107907
    Total Energy =                       -511.5661519844787790

Computation Completed


Properties will be evaluated at   0.000000,   0.000000,   0.000000 [a0]

Properties computed using the SCF density matrix

  Nuclear Dipole Moment: [e a0]
     X:     0.0000      Y:    -0.0000      Z:     0.0193

  Electronic Dipole Moment: [e a0]
     X:     0.0000      Y:     0.0003      Z:     0.2377

  Dipole Moment: [e a0]
     X:     0.0000      Y:     0.0003      Z:     0.2570     Total:     0.2570

  Dipole Moment: [D]
     X:     0.0000      Y:     0.0007      Z:     0.6531     Total:     0.6531


*** tstop() called on bp1-compute00138.data.bp.acrc.priv at Tue Apr 27 17:17:14 2021
Module time:
	user time   =     109.91 seconds =       1.83 minutes
	system time =       2.90 seconds =       0.05 minutes
	total time  =          5 seconds =       0.08 minutes
Total time:
	user time   =    2769.64 seconds =      46.16 minutes
	system time =      79.90 seconds =       1.33 minutes
	total time  =        125 seconds =       2.08 minutes

         ----------------------------------------------------------
                                   FINDIF
                     R. A. King and Jonathon Misiewicz
         ---------------------------------------------------------

  Computing second-derivative from energies using projected, 
  symmetry-adapted, cartesian coordinates.

  9 energies passed in, including the reference geometry.
    Using 3-point formula.
    Energy without displacement: -511.5661521207
    Check energies below for precision!
    0: -1        :      -511.5661508477
    0: 1         :      -511.5661510386
    1: -1        :      -511.5661511055
    1: 1         :      -511.5661503996
    0: 1, 1: 1   :      -511.5661511075
    0: -1, 1: -1 :      -511.5661516202
    2: -1        :      -511.5661519841
    3: -1        :      -511.5661519845

-------------------------------------------------------------


  ==> Harmonic Vibrational Analysis <==

  non-mass-weighted Hessian:       Symmetric? True   Hermitian? True   Lin Dep Dim?  5 (0)
  projection of translations (True) and rotations (True) removed 5 degrees of freedom (5)
  total projector:                 Symmetric? True   Hermitian? True   Lin Dep Dim?  5 (5)
  mass-weighted Hessian:           Symmetric? True   Hermitian? True   Lin Dep Dim?  5 (0)
  pre-proj  low-frequency mode:    0.0000i [cm^-1]
  pre-proj  low-frequency mode:    0.0000  [cm^-1]
  pre-proj  low-frequency mode:    0.0000  [cm^-1]
  pre-proj  low-frequency mode:    0.0000  [cm^-1]
  pre-proj  low-frequency mode:    0.0000  [cm^-1]
  pre-proj  all modes:['0.0000i' '0.0000' '0.0000' '0.0000' '0.0000' '536.5806' '537.3082'
 '888.3978' '2142.9266']
  projected mass-weighted Hessian: Symmetric? True   Hermitian? True   Lin Dep Dim?  5 (5)
  post-proj low-frequency mode:    0.0000i [cm^-1] (TR)
  post-proj low-frequency mode:    0.0000  [cm^-1] (TR)
  post-proj low-frequency mode:    0.0000  [cm^-1] (TR)
  post-proj low-frequency mode:    0.0000  [cm^-1] (TR)
  post-proj low-frequency mode:    0.0000  [cm^-1] (TR)
  post-proj  all modes:['0.0000i' '0.0000' '0.0000' '0.0000' '0.0000' '536.5806' '537.3082'
 '888.3978' '2142.9266']

  Vibration                       6                   7                   8           
  Freq [cm^-1]                 536.5806            537.3082            888.3978       
  Irrep                           B2                  B1                  A1          
  Reduced mass [u]             13.0329             13.0329             19.5878        
  Force const [mDyne/A]         2.2109              2.2169              9.1086        
  Turning point v=0 [a0]        0.1312              0.1311              0.0832        
  RMS dev v=0 [a0 u^1/2]        0.3349              0.3347              0.2603        
  Char temp [K]                772.0200            773.0669           1278.2067       
  ----------------------------------------------------------------------------------
      1   O                0.00 -0.39 -0.00   -0.39 -0.00  0.00   -0.00  0.00 -0.70   
      2   C               -0.00  0.91 -0.00    0.91  0.00  0.00   -0.00  0.00 -0.47   
      3   S                0.00 -0.14 -0.00   -0.14 -0.00 -0.00   -0.00  0.00  0.53   

  Vibration                       9           
  Freq [cm^-1]                2142.9266       
  Irrep                           A1          
  Reduced mass [u]             13.1491        
  Force const [mDyne/A]        35.5764        
  Turning point v=0 [a0]        0.0654        
  RMS dev v=0 [a0 u^1/2]        0.1676        
  Char temp [K]               3083.1942       
  ----------------------------------------------------------------------------------
      1   O                0.00  0.00 -0.52   
      2   C                0.00  0.00  0.85   
      3   S               -0.00 -0.00 -0.06   

  ==> Thermochemistry Components <==

  Entropy, S
    Electronic S            0.000 [cal/(mol K)]        0.000 [J/(mol K)]       0.00000000 [mEh/K] (multiplicity = 1)
    Translational S        38.194 [cal/(mol K)]      159.802 [J/(mol K)]       0.06086550 [mEh/K] (mol. weight = 59.9670 [u], P = 101325.00 [Pa])
    Rotational S           15.742 [cal/(mol K)]       65.865 [J/(mol K)]       0.02508667 [mEh/K] (symmetry no. = 1)
    Vibrational S           1.291 [cal/(mol K)]        5.400 [J/(mol K)]       0.00205694 [mEh/K]
  Total S                  55.227 [cal/(mol K)]      231.068 [J/(mol K)]       0.08800910 [mEh/K]
  Correction S              0.000 [cal/(mol K)]        0.000 [J/(mol K)]       0.00000000 [mEh/K]

  Constant volume heat capacity, Cv
    Electronic Cv           0.000 [cal/(mol K)]        0.000 [J/(mol K)]       0.00000000 [mEh/K]
    Translational Cv        2.981 [cal/(mol K)]       12.472 [J/(mol K)]       0.00475022 [mEh/K]
    Rotational Cv           1.987 [cal/(mol K)]        8.314 [J/(mol K)]       0.00316681 [mEh/K]
    Vibrational Cv          2.860 [cal/(mol K)]       11.965 [J/(mol K)]       0.00455706 [mEh/K]
  Total Cv                  7.828 [cal/(mol K)]       32.751 [J/(mol K)]       0.01247408 [mEh/K]
  Correction Cv             0.000 [cal/(mol K)]        0.000 [J/(mol K)]       0.00000000 [mEh/K]

  Constant pressure heat capacity, Cp
    Electronic Cp           0.000 [cal/(mol K)]        0.000 [J/(mol K)]       0.00000000 [mEh/K]
    Translational Cp        4.968 [cal/(mol K)]       20.786 [J/(mol K)]       0.00791703 [mEh/K]
    Rotational Cp           1.987 [cal/(mol K)]        8.314 [J/(mol K)]       0.00316681 [mEh/K]
    Vibrational Cp          2.860 [cal/(mol K)]       11.965 [J/(mol K)]       0.00455706 [mEh/K]
  Total Cp                  9.815 [cal/(mol K)]       41.065 [J/(mol K)]       0.01564090 [mEh/K]
  Correction Cp             0.000 [cal/(mol K)]        0.000 [J/(mol K)]       0.00000000 [mEh/K]

  ==> Thermochemistry Energy Analysis <==

  Raw electronic energy, E0
  Total E0, Electronic energy at well bottom at 0 [K]                 -511.56615212 [Eh]

  Zero-point energy, ZPE_vib = Sum_i nu_i / 2
    Electronic ZPE          0.000 [kcal/mol]        0.000 [kJ/mol]       0.00000000 [Eh]
    Translational ZPE       0.000 [kcal/mol]        0.000 [kJ/mol]       0.00000000 [Eh]
    Rotational ZPE          0.000 [kcal/mol]        0.000 [kJ/mol]       0.00000000 [Eh]
    Vibrational ZPE         5.869 [kcal/mol]       24.555 [kJ/mol]       0.00935236 [Eh]        2052.607 [cm^-1]
  Correction ZPE            5.869 [kcal/mol]       24.555 [kJ/mol]       0.00935236 [Eh]        2052.607 [cm^-1]
  Total ZPE, Electronic energy at 0 [K]                               -511.55679976 [Eh]

  Thermal Energy, E (includes ZPE)
    Electronic E            0.000 [kcal/mol]        0.000 [kJ/mol]       0.00000000 [Eh]
    Translational E         0.889 [kcal/mol]        3.718 [kJ/mol]       0.00141628 [Eh]
    Rotational E            0.592 [kcal/mol]        2.479 [kJ/mol]       0.00094418 [Eh]
    Vibrational E           6.153 [kcal/mol]       25.744 [kJ/mol]       0.00980545 [Eh]
  Correction E              7.634 [kcal/mol]       31.942 [kJ/mol]       0.01216591 [Eh]
  Total E, Electronic energy at  298.15 [K]                           -511.55398621 [Eh]

  Enthalpy, H_trans = E_trans + k_B * T
    Electronic H            0.000 [kcal/mol]        0.000 [kJ/mol]       0.00000000 [Eh]
    Translational H         1.481 [kcal/mol]        6.197 [kJ/mol]       0.00236046 [Eh]
    Rotational H            0.592 [kcal/mol]        2.479 [kJ/mol]       0.00094418 [Eh]
    Vibrational H           6.153 [kcal/mol]       25.744 [kJ/mol]       0.00980545 [Eh]
  Correction H              8.227 [kcal/mol]       34.421 [kJ/mol]       0.01311010 [Eh]
  Total H, Enthalpy at  298.15 [K]                                    -511.55304202 [Eh]

  Gibbs free energy, G = H - T * S
    Electronic G            0.000 [kcal/mol]        0.000 [kJ/mol]       0.00000000 [Eh]
    Translational G        -9.906 [kcal/mol]      -41.448 [kJ/mol]      -0.01578659 [Eh]
    Rotational G           -4.101 [kcal/mol]      -17.159 [kJ/mol]      -0.00653541 [Eh]
    Vibrational G           5.768 [kcal/mol]       24.134 [kJ/mol]       0.00919218 [Eh]
  Correction G             -8.239 [kcal/mol]      -34.472 [kJ/mol]      -0.01312982 [Eh]
  Total G, Free enthalpy at  298.15 [K]                               -511.57928194 [Eh]

    Psi4 stopped on: Tuesday, 27 April 2021 05:17PM
    Psi4 wall time for execution: 0:02:05.56

*** Psi4 exiting successfully. Buy a developer a beer!
