
    -----------------------------------------------------------------------
          Psi4: An Open-Source Ab Initio Electronic Structure Package
                               Psi4 1.3.2 release

                         Git: Rev {HEAD} ecbda83 


    R. M. Parrish, L. A. Burns, D. G. A. Smith, A. C. Simmonett,
    A. E. DePrince III, E. G. Hohenstein, U. Bozkaya, A. Yu. Sokolov,
    R. Di Remigio, R. M. Richard, J. F. Gonthier, A. M. James,
    H. R. McAlexander, A. Kumar, M. Saitow, X. Wang, B. P. Pritchard,
    P. Verma, H. F. Schaefer III, K. Patkowski, R. A. King, E. F. Valeev,
    F. A. Evangelista, J. M. Turney, T. D. Crawford, and C. D. Sherrill,
    J. Chem. Theory Comput. 13(7) pp 3185--3197 (2017).
    (doi: 10.1021/acs.jctc.7b00174)


                         Additional Contributions by
    P. Kraus, H. Kruse, M. H. Lechner, M. C. Schieber, R. A. Shaw,
    A. Alenaizan, R. Galvelis, Z. L. Glick, S. Lehtola, and J. P. Misiewicz

    -----------------------------------------------------------------------


    Psi4 started on: Wednesday, 28 April 2021 08:53AM

    Process ID: 146542
    Host:       bp1-compute00113.data.bp.acrc.priv
    PSIDATADIR: /work/zw18965/.conda/envs/p4env/share/psi4
    Memory:     500.0 MiB
    Threads:    24
    
  ==> Input File <==

--------------------------------------------------------------------------
memory 144 GB

molecule {
0 1
P 0.0000000000 0.0000000000 -0.0679917919
H 1.1903431933 0.0000000000 0.6964572780
H -0.5951715967 -1.0308674445 0.6964572780
H -0.5951715967 1.0308674445 0.6964572780
}

set dynamic_level 1
set basis cc-pV(Q+d)Z
 
optimize("wB97M-V")
frequencies("wB97M-V")
--------------------------------------------------------------------------

  Memory set to 134.110 GiB by Python driver.
gradient() will perform gradient computation by finite difference of analytic energies.

         ----------------------------------------------------------
                                   FINDIF
                     R. A. King and Jonathon Misiewicz
         ---------------------------------------------------------

  Using finite-differences of energies to determine gradients.
    Generating geometries for use with 3-point formula.
    Displacement size will be 5.00e-03.
    Number of atoms is 4.
    Number of symmetric SALCs is 4.
    Translations projected? 1. Rotations projected? 1.
    Number of geometries (including reference) is 9.

  //>>>>>>>>>>>>>>>>>>>>>>>>>>>>>>>>>>>//
  //    Loading displacement 1 of 9    //
  //<<<<<<<<<<<<<<<<<<<<<<<<<<<<<<<<<<<//

*** tstart() called on bp1-compute00113.data.bp.acrc.priv
*** at Wed Apr 28 08:53:06 2021

   => Loading Basis Set <=

    Name: CC-PV(Q+D)Z
    Role: ORBITAL
    Keyword: BASIS
    atoms 1   entry P          line   890 file /work/zw18965/.conda/envs/p4env/share/psi4/basis/cc-pv_qpd_z.gbs 
    atoms 2-4 entry H          line    32 file /work/zw18965/.conda/envs/p4env/share/psi4/basis/cc-pv_qpd_z.gbs 


         ---------------------------------------------------------
                                   SCF
               by Justin Turney, Rob Parrish, Andy Simmonett
                          and Daniel G. A. Smith
                              RKS Reference
                       24 Threads, 137329 MiB Core
         ---------------------------------------------------------

  ==> Geometry <==

    Molecular point group: cs
    Full point group: C3v

    Geometry (in Angstrom), charge = 0, multiplicity = 1:

       Center              X                  Y                   Z               Mass       
    ------------   -----------------  -----------------  -----------------  -----------------
         P            0.000000000001     0.067984722378     0.000000000000    30.973761998420
         H            0.595171596587    -0.696464347522     1.030867444611     1.007825032230
         H            0.595171596587    -0.696464347522    -1.030867444611     1.007825032230
         H           -1.190343193220    -0.696464347522     0.000000000000     1.007825032230

  Running in cs symmetry.

  Rotational constants: A =      4.49328  B =      4.49328  C =      3.93501 [cm^-1]
  Rotational constants: A = 134705.25087  B = 134705.25086  C = 117968.59793 [MHz]
  Nuclear repulsion =   17.602846847432616

  Charge       = 0
  Multiplicity = 1
  Electrons    = 18
  Nalpha       = 9
  Nbeta        = 9

  ==> Algorithm <==

  SCF Algorithm Type is DF.
  DIIS enabled.
  MOM disabled.
  Fractional occupation disabled.
  Guess Type is SAD.
  Energy threshold   = 1.00e-08
  Density threshold  = 1.00e-08
  Integral threshold = 0.00e+00

  ==> Primary Basis <==

  Basis Set: CC-PV(Q+D)Z
    Blend: CC-PV(Q+D)Z
    Number of shells: 48
    Number of basis function: 154
    Number of Cartesian functions: 185
    Spherical Harmonics?: true
    Max angular momentum: 4

  ==> DFT Potential <==

   => Composite Functional: WB97M-V <= 

    wB97M-V Hyb-GGA Exchange-Correlation Functional

    N. Mardirossian and M. Head-Gordon, J. Chem. Phys. 144, 214110 (2016)

    Deriv               =              1
    GGA                 =           TRUE
    Meta                =           TRUE

    Exchange Hybrid     =           TRUE
    MP2 Hybrid          =          FALSE

   => Exchange-Correlation Functionals <=

    1.0000   wB97M-V exchange-correlation functional

   => Exact (HF) Exchange <=

    0.8500            HF,LR [omega = 0.3000]
    0.1500               HF 

   => VV10 Non-Local Parameters <=

    VV10 B              =     6.0000E+00
    VV10 C              =     1.0000E-02

   => Molecular Quadrature <=

    Radial Scheme          =       TREUTLER
    Pruning Scheme         =           FLAT
    Nuclear Scheme         =       TREUTLER

    BS radius alpha        =              1
    Pruning alpha          =              1
    Radial Points          =             75
    Spherical Points       =            302
    Total Points           =          89838
    Total Blocks           =            733
    Max Points             =            256
    Max Functions          =            154

   => Loading Basis Set <=

    Name: (CC-PV(Q+D)Z AUX)
    Role: JKFIT
    Keyword: DF_BASIS_SCF
    atoms 1   entry P          line   591 file /work/zw18965/.conda/envs/p4env/share/psi4/basis/cc-pvqz-jkfit.gbs 
    atoms 2-4 entry H          line    51 file /work/zw18965/.conda/envs/p4env/share/psi4/basis/cc-pvqz-jkfit.gbs 

  ==> Pre-Iterations <==

   -------------------------------------------------------
    Irrep   Nso     Nmo     Nalpha   Nbeta   Ndocc  Nsocc
   -------------------------------------------------------
     A'        91      91       0       0       0       0
     A"        63      63       0       0       0       0
   -------------------------------------------------------
    Total     154     154       9       9       9       0
   -------------------------------------------------------

  ==> Integral Setup <==

  ==> DiskDFJK: Density-Fitted J/K Matrices <==

    J tasked:                  Yes
    K tasked:                  Yes
    wK tasked:                 Yes
    Omega:               3.000E-01
    OpenMP threads:             24
    Integrals threads:          24
    Memory [MiB]:           102092
    Algorithm:                Core
    Integral Cache:           NONE
    Schwarz Cutoff:          1E-12
    Fitting Condition:       1E-10

   => Auxiliary Basis Set <=

  Basis Set: (CC-PV(Q+D)Z AUX)
    Blend: CC-PVQZ-JKFIT
    Number of shells: 79
    Number of basis function: 301
    Number of Cartesian functions: 389
    Spherical Harmonics?: true
    Max angular momentum: 5

  Cached 100.0% of DFT collocation blocks in 0.883 [GiB].

  Minimum eigenvalue in the overlap matrix is 1.9467423455E-04.
  Using Symmetric Orthogonalization.

  SCF Guess: Superposition of Atomic Densities via on-the-fly atomic UHF.

  ==> Iterations <==

                           Total Energy        Delta E     RMS |[F,P]|

   @DF-RKS iter SAD:  -342.78787106291065   -3.42788e+02   0.00000e+00 
   @DF-RKS iter   1:  -343.09219346760125   -3.04322e-01   2.28717e-03 DIIS
   @DF-RKS iter   2:  -343.11821856558475   -2.60251e-02   1.17416e-03 DIIS
   @DF-RKS iter   3:  -343.12499065782902   -6.77209e-03   9.70866e-05 DIIS
   @DF-RKS iter   4:  -343.12521286918917   -2.22211e-04   1.95764e-05 DIIS
   @DF-RKS iter   5:  -343.12522086513070   -7.99594e-06   4.55436e-06 DIIS
   @DF-RKS iter   6:  -343.12522107377958   -2.08649e-07   6.66922e-07 DIIS
   @DF-RKS iter   7:  -343.12522107966697   -5.88739e-09   1.15721e-07 DIIS
   @DF-RKS iter   8:  -343.12522107985399   -1.87015e-10   1.71670e-08 DIIS
   @DF-RKS iter   9:  -343.12522107986013   -6.13909e-12   2.59117e-09 DIIS
  Energy and wave function converged.


  ==> Post-Iterations <==

    Orbital Energies [Eh]
    ---------------------

    Doubly Occupied:                                                      

       1Ap   -77.386566     2Ap    -6.722352     3Ap    -4.835034  
       1App   -4.835033     4Ap    -4.831407     5Ap    -0.761777  
       6Ap    -0.480286     2App   -0.480285     7Ap    -0.369535  

    Virtual:                                                              

       8Ap     0.078081     3App    0.092558     9Ap     0.092558  
       4App    0.190664    10Ap     0.190664    11Ap     0.225205  
       5App    0.254967    12Ap     0.254967    13Ap     0.257936  
      14Ap     0.304003     6App    0.304004    15Ap     0.371428  
      16Ap     0.429217     7App    0.518522    17Ap     0.518524  
       8App    0.666987    18Ap     0.678156     9App    0.678159  
      10App    0.733130    19Ap     0.733131    20Ap     0.804452  
      21Ap     0.820970    11App    0.820973    22Ap     0.857811  
      12App    0.857812    23Ap     0.867278    24Ap     0.921030  
      25Ap     1.005207    13App    1.111278    14App    1.112441  
      26Ap     1.112441    27Ap     1.118309    28Ap     1.195168  
      15App    1.195169    29Ap     1.210229    30Ap     1.236674  
      16App    1.236678    31Ap     1.412757    17App    1.412764  
      32Ap     1.474778    33Ap     1.609803    18App    1.609807  
      19App    2.005338    34Ap     2.005341    35Ap     2.013700  
      20App    2.013702    21App    2.030218    36Ap     2.057942  
      22App    2.123950    37Ap     2.123953    38Ap     2.143478  
      23App    2.238388    39Ap     2.238394    40Ap     2.256811  
      24App    2.323944    25App    2.434191    41Ap     2.434203  
      42Ap     2.435510    26App    2.495749    43Ap     2.495760  
      44Ap     2.523081    27App    2.618841    45Ap     2.644045  
      46Ap     2.649251    28App    2.649260    29App    2.686431  
      47Ap     2.686448    48Ap     2.882210    49Ap     2.891808  
      30App    2.891812    50Ap     2.948752    31App    2.948754  
      32App    2.950398    51Ap     2.993155    52Ap     3.065786  
      33App    3.065795    53Ap     3.367694    54Ap     3.393635  
      34App    3.393669    55Ap     3.534592    35App    3.534596  
      56Ap     3.566193    36App    3.678725    57Ap     3.678742  
      58Ap     3.852029    37App    3.902308    59Ap     3.925056  
      38App    3.925063    39App    5.775736    60Ap     5.775768  
      61Ap     5.802653    40App    5.802660    41App    5.807788  
      62Ap     5.844104    42App    5.867288    63Ap     5.867575  
      43App    5.867599    64Ap     5.876796    44App    6.120303  
      65Ap     6.120330    45App    6.221128    66Ap     6.221208  
      67Ap     6.243428    68Ap     6.275617    46App    6.275672  
      69Ap     6.470249    70Ap     6.631378    47App    6.631415  
      71Ap     6.637220    48App    6.750407    72Ap     6.829144  
      49App    6.829181    73Ap     7.474327    74Ap     7.490175  
      50App    7.490255    75Ap     7.529950    51App    7.544612  
      76Ap     7.544703    77Ap     7.688564    52App    7.688603  
      53App    7.809578    54App    7.883158    78Ap     7.883244  
      55App    7.892533    79Ap     7.892627    80Ap     7.930851  
      81Ap     7.972858    56App    7.972874    57App    8.142571  
      82Ap     8.163856    58App    8.248229    83Ap     8.248333  
      59App    8.475134    84Ap     8.490523    60App    8.490638  
      85Ap     8.623806    61App    8.827301    86Ap     8.827329  
      62App    8.890751    87Ap     8.890886    88Ap     8.925192  
      89Ap     9.231394    90Ap    10.603211    63App   10.603296  
      91Ap    15.626928  

    Final Occupation by Irrep:
             Ap   App 
    DOCC [     7,    2 ]

  @DF-RKS Final Energy:  -343.12522107986013

   => Energetics <=

    Nuclear Repulsion Energy =             17.6028468474326161
    One-Electron Energy =                -508.5762293134740162
    Two-Electron Energy =                 166.1720382916660697
    DFT Exchange-Correlation Energy =     -18.3992377878394002
    Empirical Dispersion Energy =           0.0000000000000000
    VV10 Nonlocal Energy =                  0.0753608823546144
    Total Energy =                       -343.1252210798601254

Computation Completed


Properties will be evaluated at   0.000000,   0.000000,   0.000000 [a0]

Properties computed using the SCF density matrix

  Nuclear Dipole Moment: [e a0]
     X:    -0.0000      Y:    -2.0213      Z:     0.0000

  Electronic Dipole Moment: [e a0]
     X:     0.0000      Y:     1.7967      Z:     0.0000

  Dipole Moment: [e a0]
     X:     0.0000      Y:    -0.2246      Z:     0.0000     Total:     0.2246

  Dipole Moment: [D]
     X:     0.0000      Y:    -0.5708      Z:     0.0000     Total:     0.5708


*** tstop() called on bp1-compute00113.data.bp.acrc.priv at Wed Apr 28 08:53:12 2021
Module time:
	user time   =     112.42 seconds =       1.87 minutes
	system time =       5.71 seconds =       0.10 minutes
	total time  =          6 seconds =       0.10 minutes
Total time:
	user time   =     112.42 seconds =       1.87 minutes
	system time =       5.71 seconds =       0.10 minutes
	total time  =          6 seconds =       0.10 minutes

  //>>>>>>>>>>>>>>>>>>>>>>>>>>>>>>>>>>>//
  //    Loading displacement 2 of 9    //
  //<<<<<<<<<<<<<<<<<<<<<<<<<<<<<<<<<<<//

*** tstart() called on bp1-compute00113.data.bp.acrc.priv
*** at Wed Apr 28 08:53:12 2021

   => Loading Basis Set <=

    Name: CC-PV(Q+D)Z
    Role: ORBITAL
    Keyword: BASIS
    atoms 1   entry P          line   890 file /work/zw18965/.conda/envs/p4env/share/psi4/basis/cc-pv_qpd_z.gbs 
    atoms 2-4 entry H          line    32 file /work/zw18965/.conda/envs/p4env/share/psi4/basis/cc-pv_qpd_z.gbs 


         ---------------------------------------------------------
                                   SCF
               by Justin Turney, Rob Parrish, Andy Simmonett
                          and Daniel G. A. Smith
                              RKS Reference
                       24 Threads, 137329 MiB Core
         ---------------------------------------------------------

  ==> Geometry <==

    Molecular point group: cs
    Full point group: Cs

    Geometry (in Angstrom), charge = 0, multiplicity = 1:

       Center              X                  Y                   Z               Mass       
    ------------   -----------------  -----------------  -----------------  -----------------
         P           -0.000107127161     0.067984722378     0.000000000000    30.973761998420
         H            0.596269052699    -0.697169143675     1.030867444611     1.007825032230
         H            0.596269052699    -0.697169143675    -1.030867444611     1.007825032230
         H           -1.189245737108    -0.695054755215     0.000000000000     1.007825032230

  Running in cs symmetry.

  Rotational constants: A =      4.49334  B =      4.49328  C =      3.93496 [cm^-1]
  Rotational constants: A = 134706.87892  B = 134704.99952  C = 117967.15655 [MHz]
  Nuclear repulsion =   17.602856191068895

  Charge       = 0
  Multiplicity = 1
  Electrons    = 18
  Nalpha       = 9
  Nbeta        = 9

  ==> Algorithm <==

  SCF Algorithm Type is DF.
  DIIS enabled.
  MOM disabled.
  Fractional occupation disabled.
  Guess Type is SAD.
  Energy threshold   = 1.00e-08
  Density threshold  = 1.00e-08
  Integral threshold = 0.00e+00

  ==> Primary Basis <==

  Basis Set: CC-PV(Q+D)Z
    Blend: CC-PV(Q+D)Z
    Number of shells: 48
    Number of basis function: 154
    Number of Cartesian functions: 185
    Spherical Harmonics?: true
    Max angular momentum: 4

  ==> DFT Potential <==

   => Composite Functional: WB97M-V <= 

    wB97M-V Hyb-GGA Exchange-Correlation Functional

    N. Mardirossian and M. Head-Gordon, J. Chem. Phys. 144, 214110 (2016)

    Deriv               =              1
    GGA                 =           TRUE
    Meta                =           TRUE

    Exchange Hybrid     =           TRUE
    MP2 Hybrid          =          FALSE

   => Exchange-Correlation Functionals <=

    1.0000   wB97M-V exchange-correlation functional

   => Exact (HF) Exchange <=

    0.8500            HF,LR [omega = 0.3000]
    0.1500               HF 

   => VV10 Non-Local Parameters <=

    VV10 B              =     6.0000E+00
    VV10 C              =     1.0000E-02

   => Molecular Quadrature <=

    Radial Scheme          =       TREUTLER
    Pruning Scheme         =           FLAT
    Nuclear Scheme         =       TREUTLER

    BS radius alpha        =              1
    Pruning alpha          =              1
    Radial Points          =             75
    Spherical Points       =            302
    Total Points           =          89838
    Total Blocks           =            727
    Max Points             =            256
    Max Functions          =            154

   => Loading Basis Set <=

    Name: (CC-PV(Q+D)Z AUX)
    Role: JKFIT
    Keyword: DF_BASIS_SCF
    atoms 1   entry P          line   591 file /work/zw18965/.conda/envs/p4env/share/psi4/basis/cc-pvqz-jkfit.gbs 
    atoms 2-4 entry H          line    51 file /work/zw18965/.conda/envs/p4env/share/psi4/basis/cc-pvqz-jkfit.gbs 

  ==> Pre-Iterations <==

   -------------------------------------------------------
    Irrep   Nso     Nmo     Nalpha   Nbeta   Ndocc  Nsocc
   -------------------------------------------------------
     A'        91      91       0       0       0       0
     A"        63      63       0       0       0       0
   -------------------------------------------------------
    Total     154     154       9       9       9       0
   -------------------------------------------------------

  ==> Integral Setup <==

  ==> DiskDFJK: Density-Fitted J/K Matrices <==

    J tasked:                  Yes
    K tasked:                  Yes
    wK tasked:                 Yes
    Omega:               3.000E-01
    OpenMP threads:             24
    Integrals threads:          24
    Memory [MiB]:           102093
    Algorithm:                Core
    Integral Cache:           NONE
    Schwarz Cutoff:          1E-12
    Fitting Condition:       1E-10

   => Auxiliary Basis Set <=

  Basis Set: (CC-PV(Q+D)Z AUX)
    Blend: CC-PVQZ-JKFIT
    Number of shells: 79
    Number of basis function: 301
    Number of Cartesian functions: 389
    Spherical Harmonics?: true
    Max angular momentum: 5

  Cached 100.0% of DFT collocation blocks in 0.882 [GiB].

  Minimum eigenvalue in the overlap matrix is 1.9466730647E-04.
  Using Symmetric Orthogonalization.

  SCF Guess: Superposition of Atomic Densities via on-the-fly atomic UHF.

  ==> Iterations <==

                           Total Energy        Delta E     RMS |[F,P]|

   @DF-RKS iter SAD:  -342.78786975349777   -3.42788e+02   0.00000e+00 
   @DF-RKS iter   1:  -343.09219091559351   -3.04321e-01   2.28718e-03 DIIS
   @DF-RKS iter   2:  -343.11821628782735   -2.60254e-02   1.17417e-03 DIIS
   @DF-RKS iter   3:  -343.12498850856593   -6.77222e-03   9.70874e-05 DIIS
   @DF-RKS iter   4:  -343.12521072230692   -2.22214e-04   1.95770e-05 DIIS
   @DF-RKS iter   5:  -343.12521871844802   -7.99614e-06   4.55499e-06 DIIS
   @DF-RKS iter   6:  -343.12521892715500   -2.08707e-07   6.67142e-07 DIIS
   @DF-RKS iter   7:  -343.12521893304654   -5.89154e-09   1.15877e-07 DIIS
   @DF-RKS iter   8:  -343.12521893323316   -1.86617e-10   1.73296e-08 DIIS
   @DF-RKS iter   9:  -343.12521893323969   -6.53699e-12   2.96703e-09 DIIS
  Energy and wave function converged.


  ==> Post-Iterations <==

    Orbital Energies [Eh]
    ---------------------

    Doubly Occupied:                                                      

       1Ap   -77.386566     2Ap    -6.722352     1App   -4.835036  
       3Ap    -4.835032     4Ap    -4.831407     5Ap    -0.761777  
       6Ap    -0.480579     2App   -0.479992     7Ap    -0.369535  

    Virtual:                                                              

       8Ap     0.078079     3App    0.092385     9Ap     0.092733  
      10Ap     0.190592     4App    0.190736    11Ap     0.225205  
      12Ap     0.254934     5App    0.254999    13Ap     0.257937  
       6App    0.303929    14Ap     0.304078    15Ap     0.371428  
      16Ap     0.429217     7App    0.518303    17Ap     0.518743  
       8App    0.666984    18Ap     0.678099     9App    0.678216  
      19Ap     0.733087    10App    0.733174    20Ap     0.804450  
      11App    0.820868    21Ap     0.821074    22Ap     0.857493  
      12App    0.858127    23Ap     0.867283    24Ap     0.921031  
      25Ap     1.005205    13App    1.111243    14App    1.112326  
      26Ap     1.112589    27Ap     1.118310    15App    1.194824  
      28Ap     1.195513    29Ap     1.210230    16App    1.236272  
      30Ap     1.237080    31Ap     1.412690    17App    1.412827  
      32Ap     1.474784    18App    1.609799    33Ap     1.609812  
      34Ap     2.005115    19App    2.005563    35Ap     2.013457  
      20App    2.013944    21App    2.030219    36Ap     2.057938  
      37Ap     2.123809    22App    2.124093    38Ap     2.143482  
      39Ap     2.238262    23App    2.238509    40Ap     2.256824  
      24App    2.323946    25App    2.433839    41Ap     2.434390  
      42Ap     2.435671    26App    2.495483    43Ap     2.496023  
      44Ap     2.523079    27App    2.618832    45Ap     2.644044  
      28App    2.649016    46Ap     2.649509    29App    2.686395  
      47Ap     2.686481    48Ap     2.882202    30App    2.891309  
      49Ap     2.892303    31App    2.948148    50Ap     2.949337  
      32App    2.950422    51Ap     2.993152    52Ap     3.065773  
      33App    3.065816    53Ap     3.367696    54Ap     3.393243  
      34App    3.394061    35App    3.533454    55Ap     3.535647  
      56Ap     3.566289    57Ap     3.678328    36App    3.679127  
      58Ap     3.851989    37App    3.902247    38App    3.924840  
      59Ap     3.925394    60Ap     5.775504    39App    5.775992  
      61Ap     5.802262    40App    5.803031    41App    5.807788  
      62Ap     5.844104    63Ap     5.866930    42App    5.867301  
      43App    5.868227    64Ap     5.876875    44App    6.119780  
      65Ap     6.120833    45App    6.220406    66Ap     6.221896  
      67Ap     6.243411    46App    6.273421    68Ap     6.277872  
      69Ap     6.470238    70Ap     6.630908    47App    6.631292  
      71Ap     6.637873    48App    6.750372    49App    6.827878  
      72Ap     6.830472    73Ap     7.474213    50App    7.489735  
      74Ap     7.490759    75Ap     7.529750    51App    7.543977  
      76Ap     7.545563    77Ap     7.688487    52App    7.688680  
      53App    7.809538    54App    7.883018    78Ap     7.883316  
      55App    7.890604    79Ap     7.894512    80Ap     7.931005  
      81Ap     7.971514    56App    7.974303    57App    8.142599  
      82Ap     8.163867    83Ap     8.248276    58App    8.248288  
      59App    8.475106    60App    8.490471    84Ap     8.490675  
      85Ap     8.623780    86Ap     8.826567    61App    8.828041  
      62App    8.890343    87Ap     8.891301    88Ap     8.925256  
      89Ap     9.231387    63App   10.596529    90Ap    10.609939  
      91Ap    15.626963  

    Final Occupation by Irrep:
             Ap   App 
    DOCC [     7,    2 ]

  @DF-RKS Final Energy:  -343.12521893323969

   => Energetics <=

    Nuclear Repulsion Energy =             17.6028561910688950
    One-Electron Energy =                -508.5762418853890949
    Two-Electron Energy =                 166.1720439220166838
    DFT Exchange-Correlation Energy =     -18.3992380444954549
    Empirical Dispersion Energy =           0.0000000000000000
    VV10 Nonlocal Energy =                  0.0753608835592577
    Total Energy =                       -343.1252189332397506

Computation Completed


Properties will be evaluated at   0.000000,   0.000000,   0.000000 [a0]

Properties computed using the SCF density matrix

  Nuclear Dipole Moment: [e a0]
     X:     0.0032      Y:    -2.0213      Z:     0.0000

  Electronic Dipole Moment: [e a0]
     X:    -0.0045      Y:     1.7967      Z:     0.0000

  Dipole Moment: [e a0]
     X:    -0.0014      Y:    -0.2246      Z:     0.0000     Total:     0.2246

  Dipole Moment: [D]
     X:    -0.0034      Y:    -0.5708      Z:     0.0000     Total:     0.5708


*** tstop() called on bp1-compute00113.data.bp.acrc.priv at Wed Apr 28 08:53:17 2021
Module time:
	user time   =     108.39 seconds =       1.81 minutes
	system time =       3.61 seconds =       0.06 minutes
	total time  =          5 seconds =       0.08 minutes
Total time:
	user time   =     220.99 seconds =       3.68 minutes
	system time =       9.33 seconds =       0.16 minutes
	total time  =         11 seconds =       0.18 minutes

  //>>>>>>>>>>>>>>>>>>>>>>>>>>>>>>>>>>>//
  //    Loading displacement 3 of 9    //
  //<<<<<<<<<<<<<<<<<<<<<<<<<<<<<<<<<<<//

*** tstart() called on bp1-compute00113.data.bp.acrc.priv
*** at Wed Apr 28 08:53:17 2021

   => Loading Basis Set <=

    Name: CC-PV(Q+D)Z
    Role: ORBITAL
    Keyword: BASIS
    atoms 1   entry P          line   890 file /work/zw18965/.conda/envs/p4env/share/psi4/basis/cc-pv_qpd_z.gbs 
    atoms 2-4 entry H          line    32 file /work/zw18965/.conda/envs/p4env/share/psi4/basis/cc-pv_qpd_z.gbs 


         ---------------------------------------------------------
                                   SCF
               by Justin Turney, Rob Parrish, Andy Simmonett
                          and Daniel G. A. Smith
                              RKS Reference
                       24 Threads, 137329 MiB Core
         ---------------------------------------------------------

  ==> Geometry <==

    Molecular point group: cs
    Full point group: Cs

    Geometry (in Angstrom), charge = 0, multiplicity = 1:

       Center              X                  Y                   Z               Mass       
    ------------   -----------------  -----------------  -----------------  -----------------
         P            0.000107127164     0.067984722378     0.000000000000    30.973761998420
         H            0.594074140475    -0.695759551369     1.030867444611     1.007825032230
         H            0.594074140475    -0.695759551369    -1.030867444611     1.007825032230
         H           -1.191440649332    -0.697873939829     0.000000000000     1.007825032230

  Running in cs symmetry.

  Rotational constants: A =      4.49334  B =      4.49328  C =      3.93496 [cm^-1]
  Rotational constants: A = 134706.87892  B = 134704.99952  C = 117967.15655 [MHz]
  Nuclear repulsion =   17.602856165215442

  Charge       = 0
  Multiplicity = 1
  Electrons    = 18
  Nalpha       = 9
  Nbeta        = 9

  ==> Algorithm <==

  SCF Algorithm Type is DF.
  DIIS enabled.
  MOM disabled.
  Fractional occupation disabled.
  Guess Type is SAD.
  Energy threshold   = 1.00e-08
  Density threshold  = 1.00e-08
  Integral threshold = 0.00e+00

  ==> Primary Basis <==

  Basis Set: CC-PV(Q+D)Z
    Blend: CC-PV(Q+D)Z
    Number of shells: 48
    Number of basis function: 154
    Number of Cartesian functions: 185
    Spherical Harmonics?: true
    Max angular momentum: 4

  ==> DFT Potential <==

   => Composite Functional: WB97M-V <= 

    wB97M-V Hyb-GGA Exchange-Correlation Functional

    N. Mardirossian and M. Head-Gordon, J. Chem. Phys. 144, 214110 (2016)

    Deriv               =              1
    GGA                 =           TRUE
    Meta                =           TRUE

    Exchange Hybrid     =           TRUE
    MP2 Hybrid          =          FALSE

   => Exchange-Correlation Functionals <=

    1.0000   wB97M-V exchange-correlation functional

   => Exact (HF) Exchange <=

    0.8500            HF,LR [omega = 0.3000]
    0.1500               HF 

   => VV10 Non-Local Parameters <=

    VV10 B              =     6.0000E+00
    VV10 C              =     1.0000E-02

   => Molecular Quadrature <=

    Radial Scheme          =       TREUTLER
    Pruning Scheme         =           FLAT
    Nuclear Scheme         =       TREUTLER

    BS radius alpha        =              1
    Pruning alpha          =              1
    Radial Points          =             75
    Spherical Points       =            302
    Total Points           =          89838
    Total Blocks           =            734
    Max Points             =            256
    Max Functions          =            154

   => Loading Basis Set <=

    Name: (CC-PV(Q+D)Z AUX)
    Role: JKFIT
    Keyword: DF_BASIS_SCF
    atoms 1   entry P          line   591 file /work/zw18965/.conda/envs/p4env/share/psi4/basis/cc-pvqz-jkfit.gbs 
    atoms 2-4 entry H          line    51 file /work/zw18965/.conda/envs/p4env/share/psi4/basis/cc-pvqz-jkfit.gbs 

  ==> Pre-Iterations <==

   -------------------------------------------------------
    Irrep   Nso     Nmo     Nalpha   Nbeta   Ndocc  Nsocc
   -------------------------------------------------------
     A'        91      91       0       0       0       0
     A"        63      63       0       0       0       0
   -------------------------------------------------------
    Total     154     154       9       9       9       0
   -------------------------------------------------------

  ==> Integral Setup <==

  ==> DiskDFJK: Density-Fitted J/K Matrices <==

    J tasked:                  Yes
    K tasked:                  Yes
    wK tasked:                 Yes
    Omega:               3.000E-01
    OpenMP threads:             24
    Integrals threads:          24
    Memory [MiB]:           102092
    Algorithm:                Core
    Integral Cache:           NONE
    Schwarz Cutoff:          1E-12
    Fitting Condition:       1E-10

   => Auxiliary Basis Set <=

  Basis Set: (CC-PV(Q+D)Z AUX)
    Blend: CC-PVQZ-JKFIT
    Number of shells: 79
    Number of basis function: 301
    Number of Cartesian functions: 389
    Spherical Harmonics?: true
    Max angular momentum: 5

  Cached 100.0% of DFT collocation blocks in 0.883 [GiB].

  Minimum eigenvalue in the overlap matrix is 1.9466740658E-04.
  Using Symmetric Orthogonalization.

  SCF Guess: Superposition of Atomic Densities via on-the-fly atomic UHF.

  ==> Iterations <==

                           Total Energy        Delta E     RMS |[F,P]|

   @DF-RKS iter SAD:  -342.78787020492354   -3.42788e+02   0.00000e+00 
   @DF-RKS iter   1:  -343.09219115498109   -3.04321e-01   2.28718e-03 DIIS
   @DF-RKS iter   2:  -343.11821653900637   -2.60254e-02   1.17417e-03 DIIS
   @DF-RKS iter   3:  -343.12498877795309   -6.77224e-03   9.70872e-05 DIIS
   @DF-RKS iter   4:  -343.12521098973076   -2.22212e-04   1.95776e-05 DIIS
   @DF-RKS iter   5:  -343.12521898607611   -7.99635e-06   4.55513e-06 DIIS
   @DF-RKS iter   6:  -343.12521919479553   -2.08719e-07   6.67153e-07 DIIS
   @DF-RKS iter   7:  -343.12521920068826   -5.89273e-09   1.15878e-07 DIIS
   @DF-RKS iter   8:  -343.12521920087562   -1.87356e-10   1.73305e-08 DIIS
   @DF-RKS iter   9:  -343.12521920088182   -6.19593e-12   2.96921e-09 DIIS
  Energy and wave function converged.


  ==> Post-Iterations <==

    Orbital Energies [Eh]
    ---------------------

    Doubly Occupied:                                                      

       1Ap   -77.386565     2Ap    -6.722352     3Ap    -4.835037  
       1App   -4.835031     4Ap    -4.831407     5Ap    -0.761777  
       2App   -0.480579     6Ap    -0.479993     7Ap    -0.369535  

    Virtual:                                                              

       8Ap     0.078079     9Ap     0.092386     3App    0.092731  
       4App    0.190592    10Ap     0.190736    11Ap     0.225205  
       5App    0.254935    12Ap     0.254998    13Ap     0.257937  
      14Ap     0.303928     6App    0.304079    15Ap     0.371428  
      16Ap     0.429216    17Ap     0.518306     7App    0.518741  
       8App    0.666985     9App    0.678106    18Ap     0.678210  
      10App    0.733087    19Ap     0.733175    20Ap     0.804451  
      21Ap     0.820865    11App    0.821078    12App    0.857498  
      22Ap     0.858122    23Ap     0.867284    24Ap     0.921031  
      25Ap     1.005205    13App    1.111250    26Ap     1.112292  
      14App    1.112617    27Ap     1.118308    28Ap     1.194822  
      15App    1.195513    29Ap     1.210230    30Ap     1.236269  
      16App    1.237083    17App    1.412703    31Ap     1.412813  
      32Ap     1.474786    33Ap     1.609800    18App    1.609815  
      19App    2.005112    34Ap     2.005566    20App    2.013458  
      35Ap     2.013943    21App    2.030217    36Ap     2.057937  
      22App    2.123808    37Ap     2.124093    38Ap     2.143481  
      23App    2.238265    39Ap     2.238500    40Ap     2.256824  
      24App    2.323943    41Ap     2.433752    25App    2.434538  
      42Ap     2.435611    43Ap     2.495495    26App    2.496012  
      44Ap     2.523078    27App    2.618836    45Ap     2.644045  
      46Ap     2.649005    28App    2.649519    47Ap     2.686413  
      29App    2.686466    48Ap     2.882204    49Ap     2.891308  
      30App    2.892305    50Ap     2.948172    31App    2.949297  
      32App    2.950447    51Ap     2.993153    33App    3.065777  
      52Ap     3.065804    53Ap     3.367690    34App    3.393274  
      54Ap     3.394033    55Ap     3.533360    35App    3.535746  
      56Ap     3.566284    36App    3.678304    57Ap     3.679141  
      58Ap     3.851991    37App    3.902247    59Ap     3.924809  
      38App    3.925416    39App    5.775470    60Ap     5.776023  
      40App    5.802282    61Ap     5.803012    41App    5.807787  
      62Ap     5.844101    42App    5.866979    43App    5.867296  
      63Ap     5.868105    64Ap     5.876879    65Ap     6.119822  
      44App    6.120826    66Ap     6.220486    45App    6.221833  
      67Ap     6.243441    68Ap     6.273315    46App    6.277940  
      69Ap     6.470228    70Ap     6.630605    47App    6.631512  
      71Ap     6.637862    48App    6.750422    72Ap     6.827905  
      49App    6.830515    73Ap     7.474195    74Ap     7.489754  
      50App    7.490752    75Ap     7.529770    76Ap     7.544296  
      51App    7.545261    52App    7.688527    77Ap     7.688647  
      53App    7.809549    78Ap     7.883085    54App    7.883222  
      79Ap     7.890578    55App    7.894539    80Ap     7.930959  
      56App    7.971539    81Ap     7.974221    57App    8.142586  
      82Ap     8.163851    58App    8.248178    83Ap     8.248399  
      59App    8.475134    84Ap     8.490351    60App    8.490825  
      85Ap     8.623813    61App    8.826562    86Ap     8.828091  
      87Ap     8.890431    62App    8.891162    88Ap     8.925193  
      89Ap     9.231388    90Ap    10.596459    63App   10.610056  
      91Ap    15.626967  

    Final Occupation by Irrep:
             Ap   App 
    DOCC [     7,    2 ]

  @DF-RKS Final Energy:  -343.12521920088182

   => Energetics <=

    Nuclear Repulsion Energy =             17.6028561652154423
    One-Electron Energy =                -508.5762435635461429
    Two-Electron Energy =                 166.1720459399468268
    DFT Exchange-Correlation Energy =     -18.3992386254489197
    Empirical Dispersion Energy =           0.0000000000000000
    VV10 Nonlocal Energy =                  0.0753608829510112
    Total Energy =                       -343.1252192008817588

Computation Completed


Properties will be evaluated at   0.000000,   0.000000,   0.000000 [a0]

Properties computed using the SCF density matrix

  Nuclear Dipole Moment: [e a0]
     X:    -0.0032      Y:    -2.0213      Z:     0.0000

  Electronic Dipole Moment: [e a0]
     X:     0.0045      Y:     1.7967      Z:     0.0000

  Dipole Moment: [e a0]
     X:     0.0014      Y:    -0.2246      Z:     0.0000     Total:     0.2246

  Dipole Moment: [D]
     X:     0.0035      Y:    -0.5708      Z:     0.0000     Total:     0.5708


*** tstop() called on bp1-compute00113.data.bp.acrc.priv at Wed Apr 28 08:53:21 2021
Module time:
	user time   =      98.86 seconds =       1.65 minutes
	system time =       2.75 seconds =       0.05 minutes
	total time  =          4 seconds =       0.07 minutes
Total time:
	user time   =     320.02 seconds =       5.33 minutes
	system time =      12.09 seconds =       0.20 minutes
	total time  =         15 seconds =       0.25 minutes

  //>>>>>>>>>>>>>>>>>>>>>>>>>>>>>>>>>>>//
  //    Loading displacement 4 of 9    //
  //<<<<<<<<<<<<<<<<<<<<<<<<<<<<<<<<<<<//

*** tstart() called on bp1-compute00113.data.bp.acrc.priv
*** at Wed Apr 28 08:53:21 2021

   => Loading Basis Set <=

    Name: CC-PV(Q+D)Z
    Role: ORBITAL
    Keyword: BASIS
    atoms 1   entry P          line   890 file /work/zw18965/.conda/envs/p4env/share/psi4/basis/cc-pv_qpd_z.gbs 
    atoms 2-4 entry H          line    32 file /work/zw18965/.conda/envs/p4env/share/psi4/basis/cc-pv_qpd_z.gbs 


         ---------------------------------------------------------
                                   SCF
               by Justin Turney, Rob Parrish, Andy Simmonett
                          and Daniel G. A. Smith
                              RKS Reference
                       24 Threads, 137329 MiB Core
         ---------------------------------------------------------

  ==> Geometry <==

    Molecular point group: cs
    Full point group: C3v

    Geometry (in Angstrom), charge = 0, multiplicity = 1:

       Center              X                  Y                   Z               Mass       
    ------------   -----------------  -----------------  -----------------  -----------------
         P            0.000000000001     0.067842945456     0.000000000000    30.973761998420
         H            0.595171596587    -0.695011924562     1.030867444611     1.007825032230
         H            0.595171596587    -0.695011924562    -1.030867444611     1.007825032230
         H           -1.190343193220    -0.695011924562     0.000000000000     1.007825032230

  Running in cs symmetry.

  Rotational constants: A =      4.50133  B =      4.50133  C =      3.93501 [cm^-1]
  Rotational constants: A = 134946.49342  B = 134946.49341  C = 117968.59793 [MHz]
  Nuclear repulsion =   17.613095820028434

  Charge       = 0
  Multiplicity = 1
  Electrons    = 18
  Nalpha       = 9
  Nbeta        = 9

  ==> Algorithm <==

  SCF Algorithm Type is DF.
  DIIS enabled.
  MOM disabled.
  Fractional occupation disabled.
  Guess Type is SAD.
  Energy threshold   = 1.00e-08
  Density threshold  = 1.00e-08
  Integral threshold = 0.00e+00

  ==> Primary Basis <==

  Basis Set: CC-PV(Q+D)Z
    Blend: CC-PV(Q+D)Z
    Number of shells: 48
    Number of basis function: 154
    Number of Cartesian functions: 185
    Spherical Harmonics?: true
    Max angular momentum: 4

  ==> DFT Potential <==

   => Composite Functional: WB97M-V <= 

    wB97M-V Hyb-GGA Exchange-Correlation Functional

    N. Mardirossian and M. Head-Gordon, J. Chem. Phys. 144, 214110 (2016)

    Deriv               =              1
    GGA                 =           TRUE
    Meta                =           TRUE

    Exchange Hybrid     =           TRUE
    MP2 Hybrid          =          FALSE

   => Exchange-Correlation Functionals <=

    1.0000   wB97M-V exchange-correlation functional

   => Exact (HF) Exchange <=

    0.8500            HF,LR [omega = 0.3000]
    0.1500               HF 

   => VV10 Non-Local Parameters <=

    VV10 B              =     6.0000E+00
    VV10 C              =     1.0000E-02

   => Molecular Quadrature <=

    Radial Scheme          =       TREUTLER
    Pruning Scheme         =           FLAT
    Nuclear Scheme         =       TREUTLER

    BS radius alpha        =              1
    Pruning alpha          =              1
    Radial Points          =             75
    Spherical Points       =            302
    Total Points           =          89838
    Total Blocks           =            730
    Max Points             =            256
    Max Functions          =            154

   => Loading Basis Set <=

    Name: (CC-PV(Q+D)Z AUX)
    Role: JKFIT
    Keyword: DF_BASIS_SCF
    atoms 1   entry P          line   591 file /work/zw18965/.conda/envs/p4env/share/psi4/basis/cc-pvqz-jkfit.gbs 
    atoms 2-4 entry H          line    51 file /work/zw18965/.conda/envs/p4env/share/psi4/basis/cc-pvqz-jkfit.gbs 

  ==> Pre-Iterations <==

   -------------------------------------------------------
    Irrep   Nso     Nmo     Nalpha   Nbeta   Ndocc  Nsocc
   -------------------------------------------------------
     A'        91      91       0       0       0       0
     A"        63      63       0       0       0       0
   -------------------------------------------------------
    Total     154     154       9       9       9       0
   -------------------------------------------------------

  ==> Integral Setup <==

  ==> DiskDFJK: Density-Fitted J/K Matrices <==

    J tasked:                  Yes
    K tasked:                  Yes
    wK tasked:                 Yes
    Omega:               3.000E-01
    OpenMP threads:             24
    Integrals threads:          24
    Memory [MiB]:           102092
    Algorithm:                Core
    Integral Cache:           NONE
    Schwarz Cutoff:          1E-12
    Fitting Condition:       1E-10

   => Auxiliary Basis Set <=

  Basis Set: (CC-PV(Q+D)Z AUX)
    Blend: CC-PVQZ-JKFIT
    Number of shells: 79
    Number of basis function: 301
    Number of Cartesian functions: 389
    Spherical Harmonics?: true
    Max angular momentum: 5

  Cached 100.0% of DFT collocation blocks in 0.883 [GiB].

  Minimum eigenvalue in the overlap matrix is 1.9404892903E-04.
  Using Symmetric Orthogonalization.

  SCF Guess: Superposition of Atomic Densities via on-the-fly atomic UHF.

  ==> Iterations <==

                           Total Energy        Delta E     RMS |[F,P]|

   @DF-RKS iter SAD:  -342.78871878935865   -3.42789e+02   0.00000e+00 
   @DF-RKS iter   1:  -343.09217188985207   -3.03453e-01   2.28833e-03 DIIS
   @DF-RKS iter   2:  -343.11822732570863   -2.60554e-02   1.17403e-03 DIIS
   @DF-RKS iter   3:  -343.12499121756952   -6.76389e-03   9.71559e-05 DIIS
   @DF-RKS iter   4:  -343.12521363231247   -2.22415e-04   1.95521e-05 DIIS
   @DF-RKS iter   5:  -343.12522161841304   -7.98610e-06   4.54965e-06 DIIS
   @DF-RKS iter   6:  -343.12522182638696   -2.07974e-07   6.66848e-07 DIIS
   @DF-RKS iter   7:  -343.12522183226787   -5.88091e-09   1.16043e-07 DIIS
   @DF-RKS iter   8:  -343.12522183245363   -1.85764e-10   1.71553e-08 DIIS
   @DF-RKS iter   9:  -343.12522183246017   -6.53699e-12   2.56156e-09 DIIS
  Energy and wave function converged.


  ==> Post-Iterations <==

    Orbital Energies [Eh]
    ---------------------

    Doubly Occupied:                                                      

       1Ap   -77.386363     2Ap    -6.722213     3Ap    -4.834894  
       1App   -4.834893     4Ap    -4.831262     5Ap    -0.761939  
       6Ap    -0.480556     2App   -0.480555     7Ap    -0.369328  

    Virtual:                                                              

       8Ap     0.078143     3App    0.092709     9Ap     0.092709  
       4App    0.190604    10Ap     0.190604    11Ap     0.225214  
       5App    0.254967    12Ap     0.254967    13Ap     0.257919  
      14Ap     0.304098     6App    0.304098    15Ap     0.371601  
      16Ap     0.429198     7App    0.518751    17Ap     0.518753  
       8App    0.666930    18Ap     0.678414     9App    0.678417  
      10App    0.733076    19Ap     0.733077    20Ap     0.804240  
      21Ap     0.820916    11App    0.820920    22Ap     0.858129  
      12App    0.858130    23Ap     0.867451    24Ap     0.921323  
      25Ap     1.005605    13App    1.111490    14App    1.112724  
      26Ap     1.112725    27Ap     1.117877    28Ap     1.195551  
      15App    1.195552    29Ap     1.209955    30Ap     1.236483  
      16App    1.236487    31Ap     1.412653    17App    1.412659  
      32Ap     1.474943    33Ap     1.610604    18App    1.610608  
      19App    2.005260    34Ap     2.005263    35Ap     2.013786  
      20App    2.013787    21App    2.030068    36Ap     2.058434  
      22App    2.124276    37Ap     2.124280    38Ap     2.143931  
      23App    2.238770    39Ap     2.238776    40Ap     2.257689  
      24App    2.324445    25App    2.434565    41Ap     2.434577  
      42Ap     2.436170    26App    2.496406    43Ap     2.496417  
      44Ap     2.522873    27App    2.618432    45Ap     2.644357  
      46Ap     2.649494    28App    2.649503    29App    2.687350  
      47Ap     2.687367    48Ap     2.882303    49Ap     2.893117  
      30App    2.893121    50Ap     2.949103    31App    2.949105  
      32App    2.951149    51Ap     2.992738    52Ap     3.066557  
      33App    3.066567    53Ap     3.368135    54Ap     3.393208  
      34App    3.393241    55Ap     3.536179    35App    3.536184  
      56Ap     3.567402    36App    3.678975    57Ap     3.678992  
      58Ap     3.852749    37App    3.904398    59Ap     3.925859  
      38App    3.925866    39App    5.775541    60Ap     5.775571  
      61Ap     5.802107    40App    5.802114    41App    5.807612  
      62Ap     5.844262    63Ap     5.867345    42App    5.867368  
      43App    5.867525    64Ap     5.876470    44App    6.120986  
      65Ap     6.121014    45App    6.222816    66Ap     6.222893  
      67Ap     6.243386    68Ap     6.279070    46App    6.279121  
      69Ap     6.470805    70Ap     6.633668    47App    6.633707  
      71Ap     6.639878    48App    6.752022    72Ap     6.830880  
      49App    6.830913    73Ap     7.475251    74Ap     7.491479  
      50App    7.491560    75Ap     7.531444    51App    7.545574  
      76Ap     7.545666    77Ap     7.689730    52App    7.689770  
      53App    7.811607    54App    7.883415    78Ap     7.883497  
      55App    7.894756    79Ap     7.894850    80Ap     7.931968  
      81Ap     7.975169    56App    7.975184    57App    8.143797  
      82Ap     8.165293    58App    8.248443    83Ap     8.248544  
      59App    8.474724    84Ap     8.490459    60App    8.490572  
      85Ap     8.624796    61App    8.829765    86Ap     8.829789  
      62App    8.891019    87Ap     8.891156    88Ap     8.925796  
      89Ap     9.232080    90Ap    10.609963    63App   10.610045  
      91Ap    15.636973  

    Final Occupation by Irrep:
             Ap   App 
    DOCC [     7,    2 ]

  @DF-RKS Final Energy:  -343.12522183246017

   => Energetics <=

    Nuclear Repulsion Energy =             17.6130958200284340
    One-Electron Energy =                -508.5969597689009447
    Two-Electron Energy =                 166.1830578760519757
    DFT Exchange-Correlation Energy =     -18.3997773597003302
    Empirical Dispersion Energy =           0.0000000000000000
    VV10 Nonlocal Energy =                  0.0753616000606888
    Total Energy =                       -343.1252218324601699

Computation Completed


Properties will be evaluated at   0.000000,   0.000000,   0.000000 [a0]

Properties computed using the SCF density matrix

  Nuclear Dipole Moment: [e a0]
     X:    -0.0000      Y:    -2.0171      Z:     0.0000

  Electronic Dipole Moment: [e a0]
     X:     0.0000      Y:     1.7914      Z:     0.0000

  Dipole Moment: [e a0]
     X:     0.0000      Y:    -0.2257      Z:     0.0000     Total:     0.2257

  Dipole Moment: [D]
     X:     0.0000      Y:    -0.5736      Z:     0.0000     Total:     0.5736


*** tstop() called on bp1-compute00113.data.bp.acrc.priv at Wed Apr 28 08:53:26 2021
Module time:
	user time   =     101.00 seconds =       1.68 minutes
	system time =       2.62 seconds =       0.04 minutes
	total time  =          5 seconds =       0.08 minutes
Total time:
	user time   =     421.16 seconds =       7.02 minutes
	system time =      14.73 seconds =       0.25 minutes
	total time  =         20 seconds =       0.33 minutes

  //>>>>>>>>>>>>>>>>>>>>>>>>>>>>>>>>>>>//
  //    Loading displacement 5 of 9    //
  //<<<<<<<<<<<<<<<<<<<<<<<<<<<<<<<<<<<//

*** tstart() called on bp1-compute00113.data.bp.acrc.priv
*** at Wed Apr 28 08:53:26 2021

   => Loading Basis Set <=

    Name: CC-PV(Q+D)Z
    Role: ORBITAL
    Keyword: BASIS
    atoms 1   entry P          line   890 file /work/zw18965/.conda/envs/p4env/share/psi4/basis/cc-pv_qpd_z.gbs 
    atoms 2-4 entry H          line    32 file /work/zw18965/.conda/envs/p4env/share/psi4/basis/cc-pv_qpd_z.gbs 


         ---------------------------------------------------------
                                   SCF
               by Justin Turney, Rob Parrish, Andy Simmonett
                          and Daniel G. A. Smith
                              RKS Reference
                       24 Threads, 137329 MiB Core
         ---------------------------------------------------------

  ==> Geometry <==

    Molecular point group: cs
    Full point group: C3v

    Geometry (in Angstrom), charge = 0, multiplicity = 1:

       Center              X                  Y                   Z               Mass       
    ------------   -----------------  -----------------  -----------------  -----------------
         P            0.000000000001     0.068126499300     0.000000000000    30.973761998420
         H            0.595171596587    -0.697916770482     1.030867444611     1.007825032230
         H            0.595171596587    -0.697916770482    -1.030867444611     1.007825032230
         H           -1.190343193220    -0.697916770482     0.000000000000     1.007825032230

  Running in cs symmetry.

  Rotational constants: A =      4.48525  B =      4.48525  C =      3.93501 [cm^-1]
  Rotational constants: A = 134464.36840  B = 134464.36839  C = 117968.59793 [MHz]
  Nuclear repulsion =   17.592595224261025

  Charge       = 0
  Multiplicity = 1
  Electrons    = 18
  Nalpha       = 9
  Nbeta        = 9

  ==> Algorithm <==

  SCF Algorithm Type is DF.
  DIIS enabled.
  MOM disabled.
  Fractional occupation disabled.
  Guess Type is SAD.
  Energy threshold   = 1.00e-08
  Density threshold  = 1.00e-08
  Integral threshold = 0.00e+00

  ==> Primary Basis <==

  Basis Set: CC-PV(Q+D)Z
    Blend: CC-PV(Q+D)Z
    Number of shells: 48
    Number of basis function: 154
    Number of Cartesian functions: 185
    Spherical Harmonics?: true
    Max angular momentum: 4

  ==> DFT Potential <==

   => Composite Functional: WB97M-V <= 

    wB97M-V Hyb-GGA Exchange-Correlation Functional

    N. Mardirossian and M. Head-Gordon, J. Chem. Phys. 144, 214110 (2016)

    Deriv               =              1
    GGA                 =           TRUE
    Meta                =           TRUE

    Exchange Hybrid     =           TRUE
    MP2 Hybrid          =          FALSE

   => Exchange-Correlation Functionals <=

    1.0000   wB97M-V exchange-correlation functional

   => Exact (HF) Exchange <=

    0.8500            HF,LR [omega = 0.3000]
    0.1500               HF 

   => VV10 Non-Local Parameters <=

    VV10 B              =     6.0000E+00
    VV10 C              =     1.0000E-02

   => Molecular Quadrature <=

    Radial Scheme          =       TREUTLER
    Pruning Scheme         =           FLAT
    Nuclear Scheme         =       TREUTLER

    BS radius alpha        =              1
    Pruning alpha          =              1
    Radial Points          =             75
    Spherical Points       =            302
    Total Points           =          89836
    Total Blocks           =            736
    Max Points             =            255
    Max Functions          =            154

   => Loading Basis Set <=

    Name: (CC-PV(Q+D)Z AUX)
    Role: JKFIT
    Keyword: DF_BASIS_SCF
    atoms 1   entry P          line   591 file /work/zw18965/.conda/envs/p4env/share/psi4/basis/cc-pvqz-jkfit.gbs 
    atoms 2-4 entry H          line    51 file /work/zw18965/.conda/envs/p4env/share/psi4/basis/cc-pvqz-jkfit.gbs 

  ==> Pre-Iterations <==

   -------------------------------------------------------
    Irrep   Nso     Nmo     Nalpha   Nbeta   Ndocc  Nsocc
   -------------------------------------------------------
     A'        91      91       0       0       0       0
     A"        63      63       0       0       0       0
   -------------------------------------------------------
    Total     154     154       9       9       9       0
   -------------------------------------------------------

  ==> Integral Setup <==

  ==> DiskDFJK: Density-Fitted J/K Matrices <==

    J tasked:                  Yes
    K tasked:                  Yes
    wK tasked:                 Yes
    Omega:               3.000E-01
    OpenMP threads:             24
    Integrals threads:          24
    Memory [MiB]:           102092
    Algorithm:                Core
    Integral Cache:           NONE
    Schwarz Cutoff:          1E-12
    Fitting Condition:       1E-10

   => Auxiliary Basis Set <=

  Basis Set: (CC-PV(Q+D)Z AUX)
    Blend: CC-PVQZ-JKFIT
    Number of shells: 79
    Number of basis function: 301
    Number of Cartesian functions: 389
    Spherical Harmonics?: true
    Max angular momentum: 5

  Cached 100.0% of DFT collocation blocks in 0.883 [GiB].

  Minimum eigenvalue in the overlap matrix is 1.9530333957E-04.
  Using Symmetric Orthogonalization.

  SCF Guess: Superposition of Atomic Densities via on-the-fly atomic UHF.

  ==> Iterations <==

                           Total Energy        Delta E     RMS |[F,P]|

   @DF-RKS iter SAD:  -342.78702105881706   -3.42787e+02   0.00000e+00 
   @DF-RKS iter   1:  -343.09221312426524   -3.05192e-01   2.28600e-03 DIIS
   @DF-RKS iter   2:  -343.11820755545034   -2.59944e-02   1.17429e-03 DIIS
   @DF-RKS iter   3:  -343.12498788046611   -6.78033e-03   9.70179e-05 DIIS
   @DF-RKS iter   4:  -343.12520989268955   -2.22012e-04   1.96016e-05 DIIS
   @DF-RKS iter   5:  -343.12521789915320   -8.00646e-06   4.55921e-06 DIIS
   @DF-RKS iter   6:  -343.12521810851047   -2.09357e-07   6.67007e-07 DIIS
   @DF-RKS iter   7:  -343.12521811440740   -5.89694e-09   1.15408e-07 DIIS
   @DF-RKS iter   8:  -343.12521811459402   -1.86617e-10   1.71901e-08 DIIS
   @DF-RKS iter   9:  -343.12521811460044   -6.42331e-12   2.62623e-09 DIIS
  Energy and wave function converged.


  ==> Post-Iterations <==

    Orbital Energies [Eh]
    ---------------------

    Doubly Occupied:                                                      

       1Ap   -77.386769     2Ap    -6.722491     3Ap    -4.835174  
       1App   -4.835174     4Ap    -4.831552     5Ap    -0.761615  
       6Ap    -0.480016     2App   -0.480015     7Ap    -0.369741  

    Virtual:                                                              

       8Ap     0.078018     3App    0.092407     9Ap     0.092407  
       4App    0.190724    10Ap     0.190724    11Ap     0.225196  
       5App    0.254967    12Ap     0.254967    13Ap     0.257953  
      14Ap     0.303909     6App    0.303909    15Ap     0.371253  
      16Ap     0.429237     7App    0.518293    17Ap     0.518295  
       8App    0.667043    18Ap     0.677896     9App    0.677899  
      10App    0.733185    19Ap     0.733186    20Ap     0.804665  
      21Ap     0.821023    11App    0.821026    22Ap     0.857495  
      12App    0.857496    23Ap     0.867099    24Ap     0.920740  
      25Ap     1.004810    13App    1.111064    14App    1.112157  
      26Ap     1.112157    27Ap     1.118741    28Ap     1.194784  
      15App    1.194785    29Ap     1.210506    30Ap     1.236861  
      16App    1.236865    31Ap     1.412863    17App    1.412870  
      32Ap     1.474617    33Ap     1.609001    18App    1.609006  
      19App    2.005417    34Ap     2.005420    35Ap     2.013619  
      20App    2.013620    21App    2.030368    36Ap     2.057437  
      22App    2.123624    37Ap     2.123628    38Ap     2.143032  
      23App    2.238004    39Ap     2.238009    40Ap     2.255929  
      24App    2.323444    25App    2.433815    41Ap     2.433827  
      42Ap     2.434849    26App    2.495090    43Ap     2.495101  
      44Ap     2.523291    27App    2.619247    45Ap     2.643736  
      46Ap     2.649004    28App    2.649013    29App    2.685512  
      47Ap     2.685529    48Ap     2.882106    49Ap     2.890501  
      30App    2.890505    50Ap     2.948392    31App    2.948394  
      32App    2.949648    51Ap     2.993581    52Ap     3.065019  
      33App    3.065029    53Ap     3.367254    54Ap     3.394059  
      34App    3.394092    55Ap     3.533009    35App    3.533014  
      56Ap     3.564976    36App    3.678470    57Ap     3.678487  
      58Ap     3.851314    37App    3.900214    59Ap     3.924252  
      38App    3.924259    39App    5.775928    60Ap     5.775961  
      61Ap     5.803192    40App    5.803200    41App    5.807960  
      62Ap     5.843936    42App    5.867062    63Ap     5.867821  
      43App    5.867847    64Ap     5.877137    44App    6.119593  
      65Ap     6.119618    45App    6.219461    66Ap     6.219543  
      67Ap     6.243472    68Ap     6.272164    46App    6.272224  
      69Ap     6.469689    70Ap     6.629091    47App    6.629127  
      71Ap     6.634565    48App    6.748785    72Ap     6.827402  
      49App    6.827442    73Ap     7.473389    74Ap     7.488865  
      50App    7.488944    75Ap     7.528466    51App    7.543631  
      76Ap     7.543722    77Ap     7.687420    52App    7.687457  
      53App    7.807545    54App    7.882817    78Ap     7.882908  
      55App    7.890399    79Ap     7.890494    80Ap     7.929734  
      81Ap     7.970563    56App    7.970581    57App    8.141360  
      82Ap     8.162414    58App    8.248002    83Ap     8.248110  
      59App    8.475543    84Ap     8.490583    60App    8.490700  
      85Ap     8.622826    61App    8.824798    86Ap     8.824831  
      62App    8.890518    87Ap     8.890653    88Ap     8.924581  
      89Ap     9.230706    90Ap    10.596450    63App   10.596537  
      91Ap    15.616896  

    Final Occupation by Irrep:
             Ap   App 
    DOCC [     7,    2 ]

  @DF-RKS Final Energy:  -343.12521811460044

   => Energetics <=

    Nuclear Repulsion Energy =             17.5925952242610251
    One-Electron Energy =                -508.5554874742765605
    Two-Electron Energy =                 166.1610118726623853
    DFT Exchange-Correlation Energy =     -18.3986978993507790
    Empirical Dispersion Energy =           0.0000000000000000
    VV10 Nonlocal Energy =                  0.0753601621035083
    Total Energy =                       -343.1252181146005000

Computation Completed


Properties will be evaluated at   0.000000,   0.000000,   0.000000 [a0]

Properties computed using the SCF density matrix

  Nuclear Dipole Moment: [e a0]
     X:    -0.0000      Y:    -2.0255      Z:     0.0000

  Electronic Dipole Moment: [e a0]
     X:     0.0000      Y:     1.8021      Z:     0.0000

  Dipole Moment: [e a0]
     X:     0.0000      Y:    -0.2234      Z:     0.0000     Total:     0.2234

  Dipole Moment: [D]
     X:     0.0000      Y:    -0.5679      Z:     0.0000     Total:     0.5679


*** tstop() called on bp1-compute00113.data.bp.acrc.priv at Wed Apr 28 08:53:30 2021
Module time:
	user time   =     100.28 seconds =       1.67 minutes
	system time =       2.87 seconds =       0.05 minutes
	total time  =          4 seconds =       0.07 minutes
Total time:
	user time   =     521.58 seconds =       8.69 minutes
	system time =      17.60 seconds =       0.29 minutes
	total time  =         24 seconds =       0.40 minutes

  //>>>>>>>>>>>>>>>>>>>>>>>>>>>>>>>>>>>//
  //    Loading displacement 6 of 9    //
  //<<<<<<<<<<<<<<<<<<<<<<<<<<<<<<<<<<<//

*** tstart() called on bp1-compute00113.data.bp.acrc.priv
*** at Wed Apr 28 08:53:30 2021

   => Loading Basis Set <=

    Name: CC-PV(Q+D)Z
    Role: ORBITAL
    Keyword: BASIS
    atoms 1   entry P          line   890 file /work/zw18965/.conda/envs/p4env/share/psi4/basis/cc-pv_qpd_z.gbs 
    atoms 2-4 entry H          line    32 file /work/zw18965/.conda/envs/p4env/share/psi4/basis/cc-pv_qpd_z.gbs 


         ---------------------------------------------------------
                                   SCF
               by Justin Turney, Rob Parrish, Andy Simmonett
                          and Daniel G. A. Smith
                              RKS Reference
                       24 Threads, 137329 MiB Core
         ---------------------------------------------------------

  ==> Geometry <==

    Molecular point group: cs
    Full point group: Cs

    Geometry (in Angstrom), charge = 0, multiplicity = 1:

       Center              X                  Y                   Z               Mass       
    ------------   -----------------  -----------------  -----------------  -----------------
         P            0.000000000001     0.067984722378     0.000000000000    30.973761998420
         H            0.594095619703    -0.696464347522     1.030867444611     1.007825032230
         H            0.594095619703    -0.696464347522    -1.030867444611     1.007825032230
         H           -1.188191239451    -0.696464347522     0.000000000000     1.007825032230

  Running in cs symmetry.

  Rotational constants: A =      4.50257  B =      4.49328  C =      3.94213 [cm^-1]
  Rotational constants: A = 134983.64962  B = 134705.25086  C = 118182.05942 [MHz]
  Nuclear repulsion =   17.614322033411948

  Charge       = 0
  Multiplicity = 1
  Electrons    = 18
  Nalpha       = 9
  Nbeta        = 9

  ==> Algorithm <==

  SCF Algorithm Type is DF.
  DIIS enabled.
  MOM disabled.
  Fractional occupation disabled.
  Guess Type is SAD.
  Energy threshold   = 1.00e-08
  Density threshold  = 1.00e-08
  Integral threshold = 0.00e+00

  ==> Primary Basis <==

  Basis Set: CC-PV(Q+D)Z
    Blend: CC-PV(Q+D)Z
    Number of shells: 48
    Number of basis function: 154
    Number of Cartesian functions: 185
    Spherical Harmonics?: true
    Max angular momentum: 4

  ==> DFT Potential <==

   => Composite Functional: WB97M-V <= 

    wB97M-V Hyb-GGA Exchange-Correlation Functional

    N. Mardirossian and M. Head-Gordon, J. Chem. Phys. 144, 214110 (2016)

    Deriv               =              1
    GGA                 =           TRUE
    Meta                =           TRUE

    Exchange Hybrid     =           TRUE
    MP2 Hybrid          =          FALSE

   => Exchange-Correlation Functionals <=

    1.0000   wB97M-V exchange-correlation functional

   => Exact (HF) Exchange <=

    0.8500            HF,LR [omega = 0.3000]
    0.1500               HF 

   => VV10 Non-Local Parameters <=

    VV10 B              =     6.0000E+00
    VV10 C              =     1.0000E-02

   => Molecular Quadrature <=

    Radial Scheme          =       TREUTLER
    Pruning Scheme         =           FLAT
    Nuclear Scheme         =       TREUTLER

    BS radius alpha        =              1
    Pruning alpha          =              1
    Radial Points          =             75
    Spherical Points       =            302
    Total Points           =          89836
    Total Blocks           =            734
    Max Points             =            256
    Max Functions          =            154

   => Loading Basis Set <=

    Name: (CC-PV(Q+D)Z AUX)
    Role: JKFIT
    Keyword: DF_BASIS_SCF
    atoms 1   entry P          line   591 file /work/zw18965/.conda/envs/p4env/share/psi4/basis/cc-pvqz-jkfit.gbs 
    atoms 2-4 entry H          line    51 file /work/zw18965/.conda/envs/p4env/share/psi4/basis/cc-pvqz-jkfit.gbs 

  ==> Pre-Iterations <==

   -------------------------------------------------------
    Irrep   Nso     Nmo     Nalpha   Nbeta   Ndocc  Nsocc
   -------------------------------------------------------
     A'        91      91       0       0       0       0
     A"        63      63       0       0       0       0
   -------------------------------------------------------
    Total     154     154       9       9       9       0
   -------------------------------------------------------

  ==> Integral Setup <==

  ==> DiskDFJK: Density-Fitted J/K Matrices <==

    J tasked:                  Yes
    K tasked:                  Yes
    wK tasked:                 Yes
    Omega:               3.000E-01
    OpenMP threads:             24
    Integrals threads:          24
    Memory [MiB]:           102092
    Algorithm:                Core
    Integral Cache:           NONE
    Schwarz Cutoff:          1E-12
    Fitting Condition:       1E-10

   => Auxiliary Basis Set <=

  Basis Set: (CC-PV(Q+D)Z AUX)
    Blend: CC-PVQZ-JKFIT
    Number of shells: 79
    Number of basis function: 301
    Number of Cartesian functions: 389
    Spherical Harmonics?: true
    Max angular momentum: 5

  Cached 100.0% of DFT collocation blocks in 0.883 [GiB].

  Minimum eigenvalue in the overlap matrix is 1.9390640901E-04.
  Using Symmetric Orthogonalization.

  SCF Guess: Superposition of Atomic Densities via on-the-fly atomic UHF.

  ==> Iterations <==

                           Total Energy        Delta E     RMS |[F,P]|

   @DF-RKS iter SAD:  -342.78898477939572   -3.42789e+02   0.00000e+00 
   @DF-RKS iter   1:  -343.09219847310413   -3.03214e-01   2.28813e-03 DIIS
   @DF-RKS iter   2:  -343.11823309583156   -2.60346e-02   1.17388e-03 DIIS
   @DF-RKS iter   3:  -343.12499584087601   -6.76275e-03   9.70690e-05 DIIS
   @DF-RKS iter   4:  -343.12521784365993   -2.22003e-04   1.96488e-05 DIIS
   @DF-RKS iter   5:  -343.12522586811008   -8.02445e-06   4.57057e-06 DIIS
   @DF-RKS iter   6:  -343.12522607860194   -2.10492e-07   6.69432e-07 DIIS
   @DF-RKS iter   7:  -343.12522608453605   -5.93411e-09   1.15667e-07 DIIS
   @DF-RKS iter   8:  -343.12522608472375   -1.87697e-10   1.71771e-08 DIIS
   @DF-RKS iter   9:  -343.12522608473017   -6.42331e-12   2.61756e-09 DIIS
  Energy and wave function converged.


  ==> Post-Iterations <==

    Orbital Energies [Eh]
    ---------------------

    Doubly Occupied:                                                      

       1Ap   -77.386344     2Ap    -6.722197     1App   -4.834876  
       3Ap    -4.834875     4Ap    -4.831249     5Ap    -0.761976  
       2App   -0.480403     6Ap    -0.480345     7Ap    -0.369592  

    Virtual:                                                              

       8Ap     0.078149     9Ap     0.092651     3App    0.092664  
       4App    0.190641    10Ap     0.190658    11Ap     0.225176  
       5App    0.254956    12Ap     0.255013    13Ap     0.257972  
       6App    0.304043    14Ap     0.304057    15Ap     0.371693  
      16Ap     0.429511    17Ap     0.518530     7App    0.518668  
       8App    0.667338     9App    0.677939    18Ap     0.678447  
      10App    0.733172    19Ap     0.733267    20Ap     0.804372  
      11App    0.820797    21Ap     0.821077    22Ap     0.857957  
      12App    0.858107    23Ap     0.867528    24Ap     0.920962  
      25Ap     1.005537    13App    1.111288    26Ap     1.112330  
      14App    1.112523    27Ap     1.118160    15App    1.195340  
      28Ap     1.195688    29Ap     1.210522    30Ap     1.236751  
      16App    1.237415    31Ap     1.412723    17App    1.412766  
      32Ap     1.474554    18App    1.609332    33Ap     1.609935  
      19App    2.005348    34Ap     2.006493    20App    2.013875  
      35Ap     2.014932    21App    2.030793    36Ap     2.058574  
      22App    2.124196    37Ap     2.124221    38Ap     2.143643  
      39Ap     2.238592    23App    2.238749    40Ap     2.257035  
      24App    2.324575    25App    2.434315    41Ap     2.434558  
      42Ap     2.435763    43Ap     2.496228    26App    2.496287  
      44Ap     2.523764    27App    2.619426    45Ap     2.644044  
      28App    2.649278    46Ap     2.649952    29App    2.686626  
      47Ap     2.686649    48Ap     2.883249    49Ap     2.891919  
      30App    2.892234    31App    2.949324    50Ap     2.949881  
      32App    2.951420    51Ap     2.994826    33App    3.066884  
      52Ap     3.066943    53Ap     3.367417    54Ap     3.392940  
      34App    3.393224    35App    3.535209    55Ap     3.536424  
      56Ap     3.567282    57Ap     3.680134    36App    3.681712  
      58Ap     3.852742    37App    3.903327    38App    3.926262  
      59Ap     3.927036    39App    5.775731    60Ap     5.776059  
      40App    5.802714    61Ap     5.802912    41App    5.808316  
      62Ap     5.844928    63Ap     5.866870    42App    5.867692  
      43App    5.868437    64Ap     5.877207    65Ap     6.120561  
      44App    6.121287    66Ap     6.221899    45App    6.221982  
      67Ap     6.243116    46App    6.277201    68Ap     6.278188  
      69Ap     6.474132    70Ap     6.633584    47App    6.634635  
      71Ap     6.641243    48App    6.750985    49App    6.830399  
      72Ap     6.830783    73Ap     7.475932    74Ap     7.491796  
      50App    7.491831    75Ap     7.531404    51App    7.546548  
      76Ap     7.546561    52App    7.687879    77Ap     7.688101  
      53App    7.811272    54App    7.883829    78Ap     7.884804  
      55App    7.894255    79Ap     7.895001    80Ap     7.933666  
      81Ap     7.973981    56App    7.977211    57App    8.143319  
      82Ap     8.165058    83Ap     8.248575    58App    8.249728  
      59App    8.477142    60App    8.491546    84Ap     8.493387  
      85Ap     8.624603    86Ap     8.828175    61App    8.828241  
      62App    8.891525    87Ap     8.892291    88Ap     8.926460  
      89Ap     9.233624    63App   10.606795    90Ap    10.613007  
      91Ap    15.638127  

    Final Occupation by Irrep:
             Ap   App 
    DOCC [     7,    2 ]

  @DF-RKS Final Energy:  -343.12522608473017

   => Energetics <=

    Nuclear Repulsion Energy =             17.6143220334119484
    One-Electron Energy =                -508.5996715182486696
    Two-Electron Energy =                 166.1846019640433383
    DFT Exchange-Correlation Energy =     -18.3998397174589066
    Empirical Dispersion Energy =           0.0000000000000000
    VV10 Nonlocal Energy =                  0.0753611535220740
    Total Energy =                       -343.1252260847302296

Computation Completed


Properties will be evaluated at   0.000000,   0.000000,   0.000000 [a0]

Properties computed using the SCF density matrix

  Nuclear Dipole Moment: [e a0]
     X:    -0.0000      Y:    -2.0213      Z:     0.0000

  Electronic Dipole Moment: [e a0]
     X:    -0.0002      Y:     1.7964      Z:     0.0000

  Dipole Moment: [e a0]
     X:    -0.0002      Y:    -0.2249      Z:     0.0000     Total:     0.2249

  Dipole Moment: [D]
     X:    -0.0006      Y:    -0.5715      Z:     0.0000     Total:     0.5715


*** tstop() called on bp1-compute00113.data.bp.acrc.priv at Wed Apr 28 08:53:34 2021
Module time:
	user time   =      99.63 seconds =       1.66 minutes
	system time =       2.52 seconds =       0.04 minutes
	total time  =          4 seconds =       0.07 minutes
Total time:
	user time   =     621.36 seconds =      10.36 minutes
	system time =      20.12 seconds =       0.34 minutes
	total time  =         28 seconds =       0.47 minutes

  //>>>>>>>>>>>>>>>>>>>>>>>>>>>>>>>>>>>//
  //    Loading displacement 7 of 9    //
  //<<<<<<<<<<<<<<<<<<<<<<<<<<<<<<<<<<<//

*** tstart() called on bp1-compute00113.data.bp.acrc.priv
*** at Wed Apr 28 08:53:34 2021

   => Loading Basis Set <=

    Name: CC-PV(Q+D)Z
    Role: ORBITAL
    Keyword: BASIS
    atoms 1   entry P          line   890 file /work/zw18965/.conda/envs/p4env/share/psi4/basis/cc-pv_qpd_z.gbs 
    atoms 2-4 entry H          line    32 file /work/zw18965/.conda/envs/p4env/share/psi4/basis/cc-pv_qpd_z.gbs 


         ---------------------------------------------------------
                                   SCF
               by Justin Turney, Rob Parrish, Andy Simmonett
                          and Daniel G. A. Smith
                              RKS Reference
                       24 Threads, 137329 MiB Core
         ---------------------------------------------------------

  ==> Geometry <==

    Molecular point group: cs
    Full point group: Cs

    Geometry (in Angstrom), charge = 0, multiplicity = 1:

       Center              X                  Y                   Z               Mass       
    ------------   -----------------  -----------------  -----------------  -----------------
         P            0.000000000001     0.067984722378     0.000000000000    30.973761998420
         H            0.596247573472    -0.696464347522     1.030867444611     1.007825032230
         H            0.596247573472    -0.696464347522    -1.030867444611     1.007825032230
         H           -1.192495146989    -0.696464347522     0.000000000000     1.007825032230

  Running in cs symmetry.

  Rotational constants: A =      4.49328  B =      4.48402  C =      3.92790 [cm^-1]
  Rotational constants: A = 134705.25086  B = 134427.49749  C = 117755.52198 [MHz]
  Nuclear repulsion =   17.591384783026541

  Charge       = 0
  Multiplicity = 1
  Electrons    = 18
  Nalpha       = 9
  Nbeta        = 9

  ==> Algorithm <==

  SCF Algorithm Type is DF.
  DIIS enabled.
  MOM disabled.
  Fractional occupation disabled.
  Guess Type is SAD.
  Energy threshold   = 1.00e-08
  Density threshold  = 1.00e-08
  Integral threshold = 0.00e+00

  ==> Primary Basis <==

  Basis Set: CC-PV(Q+D)Z
    Blend: CC-PV(Q+D)Z
    Number of shells: 48
    Number of basis function: 154
    Number of Cartesian functions: 185
    Spherical Harmonics?: true
    Max angular momentum: 4

  ==> DFT Potential <==

   => Composite Functional: WB97M-V <= 

    wB97M-V Hyb-GGA Exchange-Correlation Functional

    N. Mardirossian and M. Head-Gordon, J. Chem. Phys. 144, 214110 (2016)

    Deriv               =              1
    GGA                 =           TRUE
    Meta                =           TRUE

    Exchange Hybrid     =           TRUE
    MP2 Hybrid          =          FALSE

   => Exchange-Correlation Functionals <=

    1.0000   wB97M-V exchange-correlation functional

   => Exact (HF) Exchange <=

    0.8500            HF,LR [omega = 0.3000]
    0.1500               HF 

   => VV10 Non-Local Parameters <=

    VV10 B              =     6.0000E+00
    VV10 C              =     1.0000E-02

   => Molecular Quadrature <=

    Radial Scheme          =       TREUTLER
    Pruning Scheme         =           FLAT
    Nuclear Scheme         =       TREUTLER

    BS radius alpha        =              1
    Pruning alpha          =              1
    Radial Points          =             75
    Spherical Points       =            302
    Total Points           =          89838
    Total Blocks           =            734
    Max Points             =            256
    Max Functions          =            154

   => Loading Basis Set <=

    Name: (CC-PV(Q+D)Z AUX)
    Role: JKFIT
    Keyword: DF_BASIS_SCF
    atoms 1   entry P          line   591 file /work/zw18965/.conda/envs/p4env/share/psi4/basis/cc-pvqz-jkfit.gbs 
    atoms 2-4 entry H          line    51 file /work/zw18965/.conda/envs/p4env/share/psi4/basis/cc-pvqz-jkfit.gbs 

  ==> Pre-Iterations <==

   -------------------------------------------------------
    Irrep   Nso     Nmo     Nalpha   Nbeta   Ndocc  Nsocc
   -------------------------------------------------------
     A'        91      91       0       0       0       0
     A"        63      63       0       0       0       0
   -------------------------------------------------------
    Total     154     154       9       9       9       0
   -------------------------------------------------------

  ==> Integral Setup <==

  ==> DiskDFJK: Density-Fitted J/K Matrices <==

    J tasked:                  Yes
    K tasked:                  Yes
    wK tasked:                 Yes
    Omega:               3.000E-01
    OpenMP threads:             24
    Integrals threads:          24
    Memory [MiB]:           102092
    Algorithm:                Core
    Integral Cache:           NONE
    Schwarz Cutoff:          1E-12
    Fitting Condition:       1E-10

   => Auxiliary Basis Set <=

  Basis Set: (CC-PV(Q+D)Z AUX)
    Blend: CC-PVQZ-JKFIT
    Number of shells: 79
    Number of basis function: 301
    Number of Cartesian functions: 389
    Spherical Harmonics?: true
    Max angular momentum: 5

  Cached 100.0% of DFT collocation blocks in 0.883 [GiB].

  Minimum eigenvalue in the overlap matrix is 1.9544168176E-04.
  Using Symmetric Orthogonalization.

  SCF Guess: Superposition of Atomic Densities via on-the-fly atomic UHF.

  ==> Iterations <==

                           Total Energy        Delta E     RMS |[F,P]|

   @DF-RKS iter SAD:  -342.78675706242871   -3.42787e+02   0.00000e+00 
   @DF-RKS iter   1:  -343.09218450806804   -3.05427e-01   2.28622e-03 DIIS
   @DF-RKS iter   2:  -343.11820038872474   -2.60159e-02   1.17445e-03 DIIS
   @DF-RKS iter   3:  -343.12498194297694   -6.78155e-03   9.71048e-05 DIIS
   @DF-RKS iter   4:  -343.12520436539205   -2.22422e-04   1.95042e-05 DIIS
   @DF-RKS iter   5:  -343.12521233308064   -7.96769e-06   4.53797e-06 DIIS
   @DF-RKS iter   6:  -343.12521253989649   -2.06816e-07   6.64436e-07 DIIS
   @DF-RKS iter   7:  -343.12521254574006   -5.84356e-09   1.15817e-07 DIIS
   @DF-RKS iter   8:  -343.12521254592593   -1.85878e-10   1.71835e-08 DIIS
   @DF-RKS iter   9:  -343.12521254593264   -6.70752e-12   2.59211e-09 DIIS
  Energy and wave function converged.


  ==> Post-Iterations <==

    Orbital Energies [Eh]
    ---------------------

    Doubly Occupied:                                                      

       1Ap   -77.386787     2Ap    -6.722507     3Ap    -4.835193  
       1App   -4.835191     4Ap    -4.831565     5Ap    -0.761579  
       6Ap    -0.480226     2App   -0.480167     7Ap    -0.369478  

    Virtual:                                                              

       8Ap     0.078010     3App    0.092452     9Ap     0.092467  
      10Ap     0.190671     4App    0.190687    11Ap     0.225234  
      12Ap     0.254920     5App    0.254978    13Ap     0.257901  
      14Ap     0.303949     6App    0.303965    15Ap     0.371161  
      16Ap     0.428925     7App    0.518376    17Ap     0.518519  
       8App    0.666632    18Ap     0.677862     9App    0.678379  
      19Ap     0.732995    10App    0.733090    20Ap     0.804530  
      21Ap     0.820863    11App    0.821149    12App    0.857519  
      22Ap     0.857654    23Ap     0.867039    24Ap     0.921098  
      25Ap     1.004878    13App    1.111245    14App    1.112380  
      26Ap     1.112551    27Ap     1.118460    28Ap     1.194640  
      15App    1.194997    29Ap     1.209930    16App    1.235939  
      30Ap     1.236607    17App    1.412763    31Ap     1.412794  
      32Ap     1.475000    33Ap     1.609672    18App    1.610276  
      34Ap     2.004192    19App    2.005319    35Ap     2.012480  
      20App    2.013509    21App    2.029673    36Ap     2.057302  
      37Ap     2.123692    22App    2.123703    38Ap     2.143310  
[...]
  Rotational constants: A = 135088.37084  B = 134695.26398  C = 118988.87286 [MHz]
  Nuclear repulsion =   17.637218534670360

  Charge       = 0
  Multiplicity = 1
  Electrons    = 18
  Nalpha       = 9
  Nbeta        = 9

  ==> Algorithm <==

  SCF Algorithm Type is DF.
  DIIS enabled.
  MOM disabled.
  Fractional occupation disabled.
  Guess Type is SAD.
  Energy threshold   = 1.00e-10
  Density threshold  = 1.00e-10
  Integral threshold = 0.00e+00

  ==> Primary Basis <==

  Basis Set: CC-PV(Q+D)Z
    Blend: CC-PV(Q+D)Z
    Number of shells: 48
    Number of basis function: 154
    Number of Cartesian functions: 185
    Spherical Harmonics?: true
    Max angular momentum: 4

  ==> DFT Potential <==

   => Composite Functional: WB97M-V <= 

    wB97M-V Hyb-GGA Exchange-Correlation Functional

    N. Mardirossian and M. Head-Gordon, J. Chem. Phys. 144, 214110 (2016)

    Deriv               =              1
    GGA                 =           TRUE
    Meta                =           TRUE

    Exchange Hybrid     =           TRUE
    MP2 Hybrid          =          FALSE

   => Exchange-Correlation Functionals <=

    1.0000   wB97M-V exchange-correlation functional

   => Exact (HF) Exchange <=

    0.8500            HF,LR [omega = 0.3000]
    0.1500               HF 

   => VV10 Non-Local Parameters <=

    VV10 B              =     6.0000E+00
    VV10 C              =     1.0000E-02

   => Molecular Quadrature <=

    Radial Scheme          =       TREUTLER
    Pruning Scheme         =           FLAT
    Nuclear Scheme         =       TREUTLER

    BS radius alpha        =              1
    Pruning alpha          =              1
    Radial Points          =             75
    Spherical Points       =            302
    Total Points           =          89835
    Total Blocks           =            739
    Max Points             =            256
    Max Functions          =            154

   => Loading Basis Set <=

    Name: (CC-PV(Q+D)Z AUX)
    Role: JKFIT
    Keyword: DF_BASIS_SCF
    atoms 1   entry P          line   591 file /work/zw18965/.conda/envs/p4env/share/psi4/basis/cc-pvqz-jkfit.gbs 
    atoms 2-4 entry H          line    51 file /work/zw18965/.conda/envs/p4env/share/psi4/basis/cc-pvqz-jkfit.gbs 

  ==> Pre-Iterations <==

   -------------------------------------------------------
    Irrep   Nso     Nmo     Nalpha   Nbeta   Ndocc  Nsocc
   -------------------------------------------------------
     A        154     154       0       0       0       0
   -------------------------------------------------------
    Total     154     154       9       9       9       0
   -------------------------------------------------------

  ==> Integral Setup <==

  ==> DiskDFJK: Density-Fitted J/K Matrices <==

    J tasked:                  Yes
    K tasked:                  Yes
    wK tasked:                 Yes
    Omega:               3.000E-01
    OpenMP threads:             24
    Integrals threads:          24
    Memory [MiB]:           102095
    Algorithm:                Core
    Integral Cache:           NONE
    Schwarz Cutoff:          1E-12
    Fitting Condition:       1E-10

   => Auxiliary Basis Set <=

  Basis Set: (CC-PV(Q+D)Z AUX)
    Blend: CC-PVQZ-JKFIT
    Number of shells: 79
    Number of basis function: 301
    Number of Cartesian functions: 389
    Spherical Harmonics?: true
    Max angular momentum: 5

  Cached 100.0% of DFT collocation blocks in 0.880 [GiB].

  Minimum eigenvalue in the overlap matrix is 1.9227930895E-04.
  Using Symmetric Orthogonalization.

  SCF Guess: Superposition of Atomic Densities via on-the-fly atomic UHF.

  ==> Iterations <==

                           Total Energy        Delta E     RMS |[F,P]|

   @DF-RKS iter SAD:  -342.79149798790326   -3.42791e+02   0.00000e+00 
   @DF-RKS iter   1:  -343.09224815258494   -3.00750e-01   1.64543e-03 DIIS
   @DF-RKS iter   2:  -343.11825838409709   -2.60102e-02   8.43079e-04 DIIS
   @DF-RKS iter   3:  -343.12500215649771   -6.74377e-03   6.96202e-05 DIIS
   @DF-RKS iter   4:  -343.12522299006400   -2.20834e-04   1.43569e-05 DIIS
   @DF-RKS iter   5:  -343.12523114600219   -8.15594e-06   3.33459e-06 DIIS
   @DF-RKS iter   6:  -343.12523136506695   -2.19065e-07   4.88094e-07 DIIS
   @DF-RKS iter   7:  -343.12523137119786   -6.13090e-09   8.28161e-08 DIIS
   @DF-RKS iter   8:  -343.12523137138999   -1.92131e-10   1.25957e-08 DIIS
   @DF-RKS iter   9:  -343.12523137139647   -6.48015e-12   2.34794e-09 DIIS
   @DF-RKS iter  10:  -343.12523137139794   -1.47793e-12   6.27197e-10 DIIS
   @DF-RKS iter  11:  -343.12523137139732    6.25278e-13   1.61835e-10 DIIS
   @DF-RKS iter  12:  -343.12523137139772   -3.97904e-13   2.63650e-11 DIIS
  Energy and wave function converged.


  ==> Post-Iterations <==

    Orbital Energies [Eh]
    ---------------------

    Doubly Occupied:                                                      

       1A    -77.385912     2A     -6.721886     3A     -4.834557  
       4A     -4.834554     5A     -4.830939     6A     -0.762404  
       7A     -0.480509     8A     -0.479833     9A     -0.370217  

    Virtual:                                                              

      10A      0.078283    11A      0.092548    12A      0.092912  
      13A      0.190630    14A      0.190799    15A      0.225042  
      16A      0.254979    17A      0.255124    18A      0.258133  
      19A      0.303975    20A      0.304103    21A      0.372335  
      22A      0.430681    23A      0.518109    24A      0.518747  
      25A      0.668770    26A      0.677366    27A      0.678216  
      28A      0.733551    29A      0.733770    30A      0.804463  
      31A      0.820834    32A      0.821024    33A      0.858023  
      34A      0.858465    35A      0.868083    36A      0.920150  
      37A      1.006025    38A      1.110825    39A      1.111605  
      40A      1.112118    41A      1.118468    42A      1.195939  
      43A      1.196138    44A      1.212203    45A      1.238085  
      46A      1.239833    47A      1.412870    48A      1.412929  
      49A      1.473412    50A      1.606909    51A      1.607764  
      52A      2.007242    53A      2.009343    54A      2.015991  
      55A      2.017955    56A      2.033220    57A      2.059882  
      58A      2.124376    59A      2.124690    60A      2.143390  
      61A      2.238931    62A      2.238964    63A      2.256175  
      64A      2.325988    65A      2.434287    66A      2.434655  
      67A      2.435651    68A      2.496543    69A      2.497183  
      70A      2.526747    71A      2.622394    72A      2.643437  
      73A      2.650172    74A      2.650639    75A      2.685520  
      76A      2.685587    77A      2.886908    78A      2.889790  
      79A      2.891232    80A      2.951933    81A      2.952404  
      82A      2.953584    83A      3.002062    84A      3.069549  
      85A      3.069702    86A      3.365505    87A      3.391521  
      88A      3.391973    89A      3.537024    90A      3.537617  
      91A      3.568990    92A      3.687963    93A      3.689410  
      94A      3.854059    95A      3.902994    96A      3.930702  
      97A      3.931197    98A      5.776442    99A      5.777447  
     100A      5.804002   101A      5.805075   102A      5.810569  
     103A      5.847482   104A      5.866616   105A      5.866716  
     106A      5.872493   107A      5.879475   108A      6.120763  
     109A      6.122862   110A      6.220702   111A      6.222054  
     112A      6.242083   113A      6.277045   114A      6.280287  
     115A      6.487727   116A      6.639800   117A      6.641021  
     118A      6.649628   119A      6.749882   120A      6.831340  
     121A      6.833452   122A      7.480264   123A      7.494704  
     124A      7.495730   125A      7.534090   126A      7.550930  
     127A      7.552386   128A      7.683269   129A      7.683814  
     130A      7.813658   131A      7.886997   132A      7.888477  
     133A      7.896562   134A      7.899962   135A      7.941899  
     136A      7.980577   137A      7.982400   138A      8.143654  
     139A      8.166706   140A      8.251113   141A      8.252748  
     142A      8.485831   143A      8.498135   144A      8.500823  
     145A      8.625453   146A      8.825674   147A      8.827253  
     148A      8.895789   149A      8.895972   150A      8.930111  
     151A      9.240775   152A     10.619084   153A     10.623825  
     154A     15.660423  

    Final Occupation by Irrep:
              A 
    DOCC [     9 ]

  @DF-RKS Final Energy:  -343.12523137139772

   => Energetics <=

    Nuclear Repulsion Energy =             17.6372185346703603
    One-Electron Energy =                -508.6468517023335494
    Two-Electron Energy =                 166.2100737749211703
    DFT Exchange-Correlation Energy =     -18.4010328640796956
    Empirical Dispersion Energy =           0.0000000000000000
    VV10 Nonlocal Energy =                  0.0753608854239829
    Total Energy =                       -343.1252313713977173

Computation Completed


Properties will be evaluated at   0.000000,   0.000000,   0.000000 [a0]

Properties computed using the SCF density matrix

  Nuclear Dipole Moment: [e a0]
     X:    -0.0002      Y:    -2.0296      Z:     0.0032

  Electronic Dipole Moment: [e a0]
     X:     0.0003      Y:     1.8058      Z:    -0.0042

  Dipole Moment: [e a0]
     X:     0.0001      Y:    -0.2238      Z:    -0.0010     Total:     0.2238

  Dipole Moment: [D]
     X:     0.0001      Y:    -0.5688      Z:    -0.0027     Total:     0.5688


*** tstop() called on bp1-compute00113.data.bp.acrc.priv at Wed Apr 28 08:57:03 2021
Module time:
	user time   =     115.16 seconds =       1.92 minutes
	system time =       2.42 seconds =       0.04 minutes
	total time  =          6 seconds =       0.10 minutes
Total time:
	user time   =    5276.56 seconds =      87.94 minutes
	system time =     129.72 seconds =       2.16 minutes
	total time  =        237 seconds =       3.95 minutes

         ----------------------------------------------------------
                                   FINDIF
                     R. A. King and Jonathon Misiewicz
         ---------------------------------------------------------

  Computing second-derivative from energies using projected, 
  symmetry-adapted, cartesian coordinates.

  25 energies passed in, including the reference geometry.
    Using 3-point formula.
    Energy without displacement: -343.1252344831
    Check energies below for precision!
    0: -1        :      -343.1252324928
    0: 1         :      -343.1252324015
    1: -1        :      -343.1252326994
    1: 1         :      -343.1252340219
    2: -1        :      -343.1252320391
    2: 1         :      -343.1252333660
    3: -1        :      -343.1252320380
    3: 1         :      -343.1252333660
    0: 1, 1: 1   :      -343.1252319402
    0: -1, 1: -1 :      -343.1252306940
    0: 1, 2: 1   :      -343.1252298287
    0: -1, 2: -1 :      -343.1252285486
    1: 1, 2: 1   :      -343.1252314509
    1: -1, 2: -1 :      -343.1252287802
    0: 1, 3: 1   :      -343.1252327740
    0: -1, 3: -1 :      -343.1252315429
    1: 1, 3: 1   :      -343.1252314507
    1: -1, 3: -1 :      -343.1252287791
    2: 1, 3: 1   :      -343.1252314691
    2: -1, 3: -1 :      -343.1252288053
    4: -1        :      -343.1252324305
    5: -1        :      -343.1252313275
    4: 1, 5: 1   :      -343.1252313715
    4: -1, 5: -1 :      -343.1252313714

-------------------------------------------------------------


  ==> Harmonic Vibrational Analysis <==

  non-mass-weighted Hessian:       Symmetric? True   Hermitian? True   Lin Dep Dim?  6 (0)
  projection of translations (True) and rotations (True) removed 6 degrees of freedom (6)
  total projector:                 Symmetric? True   Hermitian? True   Lin Dep Dim?  6 (6)
  mass-weighted Hessian:           Symmetric? True   Hermitian? True   Lin Dep Dim?  6 (0)
  pre-proj  low-frequency mode:    0.0000i [cm^-1]
  pre-proj  low-frequency mode:    0.0000i [cm^-1]
  pre-proj  low-frequency mode:    0.0000i [cm^-1]
  pre-proj  low-frequency mode:    0.0000  [cm^-1]
  pre-proj  low-frequency mode:    0.0000  [cm^-1]
  pre-proj  low-frequency mode:    0.0000  [cm^-1]
  pre-proj  all modes:['0.0000i' '0.0000i' '0.0000i' '0.0000' '0.0000' '0.0000' '1013.9914'
 '1138.7823' '1732.3385' '2436.2854' '2438.3077' '2830.0344']
  projected mass-weighted Hessian: Symmetric? True   Hermitian? True   Lin Dep Dim?  6 (6)
  post-proj low-frequency mode:    0.0000i [cm^-1] (TR)
  post-proj low-frequency mode:    0.0000i [cm^-1] (TR)
  post-proj low-frequency mode:    0.0000i [cm^-1] (TR)
  post-proj low-frequency mode:    0.0000  [cm^-1] (TR)
  post-proj low-frequency mode:    0.0000  [cm^-1] (TR)
  post-proj low-frequency mode:    0.0000  [cm^-1] (TR)
  post-proj  all modes:['0.0000i' '0.0000i' '0.0000i' '0.0000' '0.0000' '0.0000' '1013.9914'
 '1138.7823' '1732.3385' '2436.2854' '2438.3077' '2830.0344']

  Vibration                       7                   8                   9           
  Freq [cm^-1]                1013.9914           1138.7823           1732.3385       
  Irrep                           Ap                  Ap                 App          
  Reduced mass [u]              1.0750              1.0255              1.0452        
  Force const [mDyne/A]         0.6512              0.7835              1.8480        
  Turning point v=0 [a0]        0.3324              0.3211              0.2579        
  RMS dev v=0 [a0 u^1/2]        0.2437              0.2299              0.1864        
  Char temp [K]               1458.9078           1638.4542           2492.4494       
  ----------------------------------------------------------------------------------
      1   P                0.00 -0.05  0.00   -0.02 -0.00 -0.00   -0.00  0.00 -0.04   
      2   H                0.14  0.49  0.28    0.49 -0.15 -0.40   -0.26 -0.41  0.21   
      3   H                0.14  0.49 -0.28    0.49 -0.15  0.40    0.26  0.41  0.21   
      4   H               -0.31  0.47  0.00   -0.23  0.33  0.00    0.00  0.00  0.67   

  Vibration                       10                  11                  12          
  Freq [cm^-1]                2436.2854           2438.3077           2830.0344       
  Irrep                           Ap                  Ap                 App          
  Reduced mass [u]              1.0343              1.0384              1.0211        
  Force const [mDyne/A]         3.6172              3.6376              4.8185        
  Turning point v=0 [a0]        0.2186              0.2181              0.2041        
  RMS dev v=0 [a0 u^1/2]        0.1572              0.1571              0.1458        
  Char temp [K]               3505.2722           3508.1819           4071.7894       
  ----------------------------------------------------------------------------------
      1   P               -0.02 -0.02  0.00   -0.03  0.01 -0.00    0.00 -0.00 -0.02   
      2   H               -0.13  0.14 -0.22    0.27 -0.34  0.48    0.43 -0.24  0.46   
      3   H               -0.13  0.14  0.22    0.27 -0.34 -0.48   -0.43  0.24  0.46   
      4   H                0.78  0.47  0.00    0.34  0.23 -0.00    0.00  0.00 -0.28   

  ==> Thermochemistry Components <==

  Entropy, S
    Electronic S            0.000 [cal/(mol K)]        0.000 [J/(mol K)]       0.00000000 [mEh/K] (multiplicity = 1)
    Translational S        36.502 [cal/(mol K)]      152.724 [J/(mol K)]       0.05816968 [mEh/K] (mol. weight = 33.9972 [u], P = 101325.00 [Pa])
    Rotational S           15.659 [cal/(mol K)]       65.517 [J/(mol K)]       0.02495396 [mEh/K] (symmetry no. = 1)
    Vibrational S           0.146 [cal/(mol K)]        0.612 [J/(mol K)]       0.00023329 [mEh/K]
  Total S                  52.307 [cal/(mol K)]      218.854 [J/(mol K)]       0.08335692 [mEh/K]
  Correction S              0.000 [cal/(mol K)]        0.000 [J/(mol K)]       0.00000000 [mEh/K]

  Constant volume heat capacity, Cv
    Electronic Cv           0.000 [cal/(mol K)]        0.000 [J/(mol K)]       0.00000000 [mEh/K]
    Translational Cv        2.981 [cal/(mol K)]       12.472 [J/(mol K)]       0.00475022 [mEh/K]
    Rotational Cv           2.981 [cal/(mol K)]       12.472 [J/(mol K)]       0.00475022 [mEh/K]
    Vibrational Cv          0.648 [cal/(mol K)]        2.710 [J/(mol K)]       0.00103235 [mEh/K]
  Total Cv                  6.609 [cal/(mol K)]       27.654 [J/(mol K)]       0.01053278 [mEh/K]
  Correction Cv             0.000 [cal/(mol K)]        0.000 [J/(mol K)]       0.00000000 [mEh/K]

  Constant pressure heat capacity, Cp
    Electronic Cp           0.000 [cal/(mol K)]        0.000 [J/(mol K)]       0.00000000 [mEh/K]
    Translational Cp        4.968 [cal/(mol K)]       20.786 [J/(mol K)]       0.00791703 [mEh/K]
    Rotational Cp           2.981 [cal/(mol K)]       12.472 [J/(mol K)]       0.00475022 [mEh/K]
    Vibrational Cp          0.648 [cal/(mol K)]        2.710 [J/(mol K)]       0.00103235 [mEh/K]
  Total Cp                  8.597 [cal/(mol K)]       35.968 [J/(mol K)]       0.01369959 [mEh/K]
  Correction Cp             0.000 [cal/(mol K)]        0.000 [J/(mol K)]       0.00000000 [mEh/K]

  ==> Thermochemistry Energy Analysis <==

  Raw electronic energy, E0
  Total E0, Electronic energy at well bottom at 0 [K]                 -343.12523448 [Eh]

  Zero-point energy, ZPE_vib = Sum_i nu_i / 2
    Electronic ZPE          0.000 [kcal/mol]        0.000 [kJ/mol]       0.00000000 [Eh]
    Translational ZPE       0.000 [kcal/mol]        0.000 [kJ/mol]       0.00000000 [Eh]
    Rotational ZPE          0.000 [kcal/mol]        0.000 [kJ/mol]       0.00000000 [Eh]
    Vibrational ZPE        16.568 [kcal/mol]       69.322 [kJ/mol]       0.02640337 [Eh]        5794.870 [cm^-1]
  Correction ZPE           16.568 [kcal/mol]       69.322 [kJ/mol]       0.02640337 [Eh]        5794.870 [cm^-1]
  Total ZPE, Electronic energy at 0 [K]                               -343.09883111 [Eh]

  Thermal Energy, E (includes ZPE)
    Electronic E            0.000 [kcal/mol]        0.000 [kJ/mol]       0.00000000 [Eh]
    Translational E         0.889 [kcal/mol]        3.718 [kJ/mol]       0.00141628 [Eh]
    Rotational E            0.889 [kcal/mol]        3.718 [kJ/mol]       0.00141628 [Eh]
    Vibrational E          16.605 [kcal/mol]       69.475 [kJ/mol]       0.02646170 [Eh]
  Correction E             18.382 [kcal/mol]       76.912 [kJ/mol]       0.02929425 [Eh]
  Total E, Electronic energy at  298.15 [K]                           -343.09594023 [Eh]

  Enthalpy, H_trans = E_trans + k_B * T
    Electronic H            0.000 [kcal/mol]        0.000 [kJ/mol]       0.00000000 [Eh]
    Translational H         1.481 [kcal/mol]        6.197 [kJ/mol]       0.00236046 [Eh]
    Rotational H            0.889 [kcal/mol]        3.718 [kJ/mol]       0.00141628 [Eh]
    Vibrational H          16.605 [kcal/mol]       69.475 [kJ/mol]       0.02646170 [Eh]
  Correction H             18.975 [kcal/mol]       79.391 [kJ/mol]       0.03023843 [Eh]
  Total H, Enthalpy at  298.15 [K]                                    -343.09499605 [Eh]

  Gibbs free energy, G = H - T * S
    Electronic G            0.000 [kcal/mol]        0.000 [kJ/mol]       0.00000000 [Eh]
    Translational G        -9.402 [kcal/mol]      -39.337 [kJ/mol]      -0.01498283 [Eh]
    Rotational G           -3.780 [kcal/mol]      -15.815 [kJ/mol]      -0.00602375 [Eh]
    Vibrational G          16.561 [kcal/mol]       69.293 [kJ/mol]       0.02639214 [Eh]
  Correction G              3.379 [kcal/mol]       14.140 [kJ/mol]       0.00538557 [Eh]
  Total G, Free enthalpy at  298.15 [K]                               -343.11984892 [Eh]

    Psi4 stopped on: Wednesday, 28 April 2021 08:57AM
    Psi4 wall time for execution: 0:03:57.74

*** Psi4 exiting successfully. Buy a developer a beer!
