
    -----------------------------------------------------------------------
          Psi4: An Open-Source Ab Initio Electronic Structure Package
                               Psi4 1.3.2 release

                         Git: Rev {HEAD} ecbda83 


    R. M. Parrish, L. A. Burns, D. G. A. Smith, A. C. Simmonett,
    A. E. DePrince III, E. G. Hohenstein, U. Bozkaya, A. Yu. Sokolov,
    R. Di Remigio, R. M. Richard, J. F. Gonthier, A. M. James,
    H. R. McAlexander, A. Kumar, M. Saitow, X. Wang, B. P. Pritchard,
    P. Verma, H. F. Schaefer III, K. Patkowski, R. A. King, E. F. Valeev,
    F. A. Evangelista, J. M. Turney, T. D. Crawford, and C. D. Sherrill,
    J. Chem. Theory Comput. 13(7) pp 3185--3197 (2017).
    (doi: 10.1021/acs.jctc.7b00174)


                         Additional Contributions by
    P. Kraus, H. Kruse, M. H. Lechner, M. C. Schieber, R. A. Shaw,
    A. Alenaizan, R. Galvelis, Z. L. Glick, S. Lehtola, and J. P. Misiewicz

    -----------------------------------------------------------------------


    Psi4 started on: Tuesday, 27 April 2021 05:17PM

    Process ID: 252835
    Host:       bp1-compute00048.data.bp.acrc.priv
    PSIDATADIR: /work/zw18965/.conda/envs/p4env/share/psi4
    Memory:     500.0 MiB
    Threads:    24
    
  ==> Input File <==

--------------------------------------------------------------------------
memory 144 GB

molecule {
0 3
S 0.0000000000 0.0000000000 0.0000000000
O 0.0000000000 0.0000000000 1.4862145500
}

set reference uks
set dynamic_level 1
set basis cc-pV(Q+d)Z
 
optimize("wB97M-V")
frequencies("wB97M-V")
--------------------------------------------------------------------------

  Memory set to 134.110 GiB by Python driver.
gradient() will perform gradient computation by finite difference of analytic energies.

         ----------------------------------------------------------
                                   FINDIF
                     R. A. King and Jonathon Misiewicz
         ---------------------------------------------------------

  Using finite-differences of energies to determine gradients.
    Generating geometries for use with 3-point formula.
    Displacement size will be 5.00e-03.
    Number of atoms is 2.
    Number of symmetric SALCs is 1.
    Translations projected? 1. Rotations projected? 1.
    Number of geometries (including reference) is 3.

  //>>>>>>>>>>>>>>>>>>>>>>>>>>>>>>>>>>>//
  //    Loading displacement 1 of 3    //
  //<<<<<<<<<<<<<<<<<<<<<<<<<<<<<<<<<<<//

*** tstart() called on bp1-compute00048.data.bp.acrc.priv
*** at Tue Apr 27 17:17:33 2021

   => Loading Basis Set <=

    Name: CC-PV(Q+D)Z
    Role: ORBITAL
    Keyword: BASIS
    atoms 1 entry S          line   978 file /work/zw18965/.conda/envs/p4env/share/psi4/basis/cc-pv_qpd_z.gbs 
    atoms 2 entry O          line   349 file /work/zw18965/.conda/envs/p4env/share/psi4/basis/cc-pv_qpd_z.gbs 


         ---------------------------------------------------------
                                   SCF
               by Justin Turney, Rob Parrish, Andy Simmonett
                          and Daniel G. A. Smith
                              UKS Reference
                       24 Threads, 137329 MiB Core
         ---------------------------------------------------------

  ==> Geometry <==

    Molecular point group: c2v
    Full point group: C_inf_v

    Geometry (in Angstrom), charge = 0, multiplicity = 3:

       Center              X                  Y                   Z               Mass       
    ------------   -----------------  -----------------  -----------------  -----------------
         S            0.000000000000     0.000000000000    -0.495588255967    31.972071174400
         O            0.000000000000     0.000000000000     0.990626294033    15.994914619570

  Running in c2v symmetry.

  Rotational constants: A = ************  B =      0.71585  C =      0.71585 [cm^-1]
  Rotational constants: A = ************  B =  21460.70147  C =  21460.70147 [MHz]
  Nuclear repulsion =   45.575306045658088

  Charge       = 0
  Multiplicity = 3
  Electrons    = 24
  Nalpha       = 13
  Nbeta        = 11

  ==> Algorithm <==

  SCF Algorithm Type is DF.
  DIIS enabled.
  MOM disabled.
  Fractional occupation disabled.
  Guess Type is SAD.
  Energy threshold   = 1.00e-08
  Density threshold  = 1.00e-08
  Integral threshold = 0.00e+00

  ==> Primary Basis <==

  Basis Set: CC-PV(Q+D)Z
    Blend: CC-PV(Q+D)Z
    Number of shells: 33
    Number of basis function: 119
    Number of Cartesian functions: 150
    Spherical Harmonics?: true
    Max angular momentum: 4

  ==> DFT Potential <==

   => Composite Functional: WB97M-V <= 

    wB97M-V Hyb-GGA Exchange-Correlation Functional

    N. Mardirossian and M. Head-Gordon, J. Chem. Phys. 144, 214110 (2016)

    Deriv               =              1
    GGA                 =           TRUE
    Meta                =           TRUE

    Exchange Hybrid     =           TRUE
    MP2 Hybrid          =          FALSE

   => Exchange-Correlation Functionals <=

    1.0000   wB97M-V exchange-correlation functional

   => Exact (HF) Exchange <=

    0.8500            HF,LR [omega = 0.3000]
    0.1500               HF 

   => VV10 Non-Local Parameters <=

    VV10 B              =     6.0000E+00
    VV10 C              =     1.0000E-02

   => Molecular Quadrature <=

    Radial Scheme          =       TREUTLER
    Pruning Scheme         =           FLAT
    Nuclear Scheme         =       TREUTLER

    BS radius alpha        =              1
    Pruning alpha          =              1
    Radial Points          =             75
    Spherical Points       =            302
    Total Points           =          43670
    Total Blocks           =            402
    Max Points             =            256
    Max Functions          =            119

   => Loading Basis Set <=

    Name: (CC-PV(Q+D)Z AUX)
    Role: JKFIT
    Keyword: DF_BASIS_SCF
    atoms 1 entry S          line   673 file /work/zw18965/.conda/envs/p4env/share/psi4/basis/cc-pvqz-jkfit.gbs 
    atoms 2 entry O          line   253 file /work/zw18965/.conda/envs/p4env/share/psi4/basis/cc-pvqz-jkfit.gbs 

  ==> Pre-Iterations <==

   -------------------------------------------------------
    Irrep   Nso     Nmo     Nalpha   Nbeta   Ndocc  Nsocc
   -------------------------------------------------------
     A1        48      48       0       0       0       0
     A2        15      15       0       0       0       0
     B1        28      28       0       0       0       0
     B2        28      28       0       0       0       0
   -------------------------------------------------------
    Total     119     119      13      11      11       2
   -------------------------------------------------------

  ==> Integral Setup <==

  ==> DiskDFJK: Density-Fitted J/K Matrices <==

    J tasked:                  Yes
    K tasked:                  Yes
    wK tasked:                 Yes
    Omega:               3.000E-01
    OpenMP threads:             24
    Integrals threads:          24
    Memory [MiB]:           102657
    Algorithm:                Core
    Integral Cache:           NONE
    Schwarz Cutoff:          1E-12
    Fitting Condition:       1E-10

   => Auxiliary Basis Set <=

  Basis Set: (CC-PV(Q+D)Z AUX)
    Blend: CC-PVQZ-JKFIT
    Number of shells: 68
    Number of basis function: 254
    Number of Cartesian functions: 333
    Spherical Harmonics?: true
    Max angular momentum: 5

  Cached 100.0% of DFT collocation blocks in 0.331 [GiB].

  Minimum eigenvalue in the overlap matrix is 6.3061915798E-04.
  Using Symmetric Orthogonalization.

  SCF Guess: Superposition of Atomic Densities via on-the-fly atomic UHF.

  ==> Iterations <==

                           Total Energy        Delta E     RMS |[F,P]|

   @DF-UKS iter SAD:  -472.93334291876124   -4.72933e+02   0.00000e+00 
   @DF-UKS iter   1:  -473.29781894104730   -3.64476e-01   7.47977e-03 DIIS
   @DF-UKS iter   2:  -473.19413689682591    1.03682e-01   1.12297e-02 DIIS
   @DF-UKS iter   3:  -473.38160112909333   -1.87464e-01   8.98360e-04 DIIS
   @DF-UKS iter   4:  -473.38284004153263   -1.23891e-03   2.32487e-04 DIIS
   @DF-UKS iter   5:  -473.38303814324871   -1.98102e-04   7.32480e-05 DIIS
   @DF-UKS iter   6:  -473.38306810621441   -2.99630e-05   2.64104e-05 DIIS
   @DF-UKS iter   7:  -473.38307382487648   -5.71866e-06   9.60206e-06 DIIS
   @DF-UKS iter   8:  -473.38307431929434   -4.94418e-07   3.21632e-06 DIIS
   @DF-UKS iter   9:  -473.38307436369149   -4.43972e-08   5.59190e-07 DIIS
   @DF-UKS iter  10:  -473.38307436508273   -1.39124e-09   1.02449e-07 DIIS
   @DF-UKS iter  11:  -473.38307436513861   -5.58771e-11   3.15106e-08 DIIS
   @DF-UKS iter  12:  -473.38307436514276   -4.14957e-12   6.16833e-09 DIIS
  Energy and wave function converged.


  ==> Post-Iterations <==

   @Spin Contamination Metric:   8.283664678E-03
   @S^2 Expected:                2.000000000E+00
   @S^2 Observed:                2.008283665E+00
   @S   Expected:                1.000000000E+00
   @S   Observed:                1.000000000E+00

    Orbital Energies [Eh]
    ---------------------

    Alpha Occupied:                                                       

       1A1   -89.299794     2A1   -19.405527     3A1    -8.207567  
       1B2    -6.118032     1B1    -6.118032     4A1    -6.114957  
       5A1    -1.217221     6A1    -0.802376     2B1    -0.566493  
       2B2    -0.566493     7A1    -0.562031     3B2    -0.356082  
       3B1    -0.356082  

    Alpha Virtual:                                                        

       8A1     0.074763     9A1     0.242639     4B2     0.243285  
       4B1     0.243285    10A1     0.276216     1A2     0.298662  
      11A1     0.298662     5B2     0.397049     5B1     0.397049  
      12A1     0.420185     6B1     0.551282     6B2     0.551282  
      13A1     0.654584    14A1     0.901138     2A2     0.961981  
      15A1     0.961986     3A2     0.968947    16A1     0.968947  
       7B2     0.984362     7B1     0.984362    17A1     1.063934  
       8B2     1.070876     8B1     1.070876     9B2     1.210486  
       9B1     1.210486    10B2     1.256744    10B1     1.256744  
      18A1     1.269528     4A2     1.385314    19A1     1.385316  
      20A1     1.425255    21A1     1.692778    11B1     1.717783  
      11B2     1.717783    22A1     2.026372    12B1     2.476960  
      12B2     2.476960    23A1     2.595393     5A2     2.595398  
      24A1     2.645873    13B2     2.745441    13B1     2.745441  
      14B2     2.825274    14B1     2.825274     6A2     2.825311  
      25A1     2.825318    15B2     2.922307    15B1     2.922307  
      26A1     2.930385     7A2     2.930417    16B1     3.104007  
      16B2     3.104007    27A1     3.130952     8A2     3.170062  
      28A1     3.170088    17B1     3.349244    17B2     3.349244  
      29A1     3.390433    18B2     3.516514    18B1     3.516514  
      30A1     3.566552     9A2     3.817573    31A1     3.817589  
      32A1     3.849604    33A1     4.045269    10A2     4.045283  
      19B1     4.293023    19B2     4.293023    34A1     4.563474  
      20B2     4.674174    20B1     4.674174    35A1     4.794681  
      21B2     5.381514    21B1     5.381514    36A1     7.104294  
      37A1     8.596835    22B2     8.602217    22B1     8.602217  
      38A1     8.641750    11A2     8.641794    12A2     8.895550  
      39A1     8.895742    23B2     8.919581    23B1     8.919581  
      40A1     9.094061    13A2     9.094091    24B1     9.436206  
      24B2     9.436206    41A1     9.731484    25B1    10.019717  
      25B2    10.019717    42A1    10.764474    26B2    10.969114  
      26B1    10.969114    43A1    11.204532    14A2    11.204600  
      27B1    11.777607    27B2    11.777607    44A1    11.883681  
      45A1    12.016317    15A2    12.016425    28B1    12.296886  
      28B2    12.296886    46A1    13.039097    47A1    18.118702  
      48A1    41.030468  

    Beta Occupied:                                                        

       1A1   -89.292528     2A1   -19.383728     3A1    -8.200272  
       4A1    -6.110571     1B2    -6.102278     1B1    -6.102278  
       5A1    -1.177610     6A1    -0.738864     7A1    -0.527241  
       2B2    -0.493939     2B1    -0.493939  

    Beta Virtual:                                                         

       3B2    -0.041762     3B1    -0.041762     8A1     0.092421  
       9A1     0.246107     4B2     0.247203     4B1     0.247203  
      10A1     0.292784     1A2     0.330084    11A1     0.330084  
      12A1     0.428176     5B2     0.434611     5B1     0.434611  
       6B2     0.565134     6B1     0.565134    13A1     0.668905  
      14A1     0.908518    15A1     0.984812     2A2     0.984813  
       3A2     1.001398    16A1     1.001400     7B2     1.003920  
       7B1     1.003920    17A1     1.086895     8B2     1.107024  
       8B1     1.107024     9B1     1.256307     9B2     1.256307  
      10B1     1.290061    10B2     1.290061    18A1     1.295953  
       4A2     1.411487    19A1     1.411495    20A1     1.438589  
      21A1     1.717664    11B2     1.736501    11B1     1.736501  
      22A1     2.055190    12B2     2.525879    12B1     2.525879  
      23A1     2.663171     5A2     2.663184    24A1     2.677185  
      13B1     2.785392    13B2     2.785392    25A1     2.858768  
       6A2     2.858768    14B1     2.878741    14B2     2.878741  
      15B1     2.951538    15B2     2.951538    26A1     3.029244  
       7A2     3.029258    27A1     3.163291    16B2     3.194351  
      16B1     3.194351     8A2     3.236154    28A1     3.236170  
      17B1     3.396181    17B2     3.396181    29A1     3.422933  
      18B1     3.563434    18B2     3.563434    30A1     3.601562  
       9A2     3.869938    31A1     3.869949    32A1     3.880057  
      10A2     4.085393    33A1     4.085397    19B2     4.326290  
      19B1     4.326290    34A1     4.582490    20B1     4.715030  
      20B2     4.715030    35A1     4.814319    21B1     5.436551  
      21B2     5.436551    36A1     7.130601    37A1     8.619066  
      22B1     8.625443    22B2     8.625443    38A1     8.680252  
      11A2     8.680291    23B2     8.971657    23B1     8.971657  
      12A2     8.973024    39A1     8.973221    40A1     9.133165  
      13A2     9.133178    24B2     9.469286    24B1     9.469286  
      41A1     9.761033    25B2    10.082565    25B1    10.082565  
      42A1    10.802645    26B1    11.076324    26B2    11.076324  
      43A1    11.278862    14A2    11.278953    27B2    11.827140  
      27B1    11.827140    44A1    11.914054    45A1    12.136865  
      15A2    12.136981    28B2    12.366925    28B1    12.366925  
      46A1    13.083612    47A1    18.133981    48A1    41.057192  

    Final Occupation by Irrep:
             A1    A2    B1    B2 
    DOCC [     7,    0,    2,    2 ]
    SOCC [     0,    0,    1,    1 ]

  @DF-UKS Final Energy:  -473.38307436514276

   => Energetics <=

    Nuclear Repulsion Energy =             45.5753060456580883
    One-Electron Energy =                -743.2975655912467801
    Two-Electron Energy =                 250.2749318166091541
    DFT Exchange-Correlation Energy =     -26.0365532222480454
    Empirical Dispersion Energy =           0.0000000000000000
    VV10 Nonlocal Energy =                  0.1008065860848430
    Total Energy =                       -473.3830743651427042

  UHF NO Occupations:
  HONO-2 :    2 B1 1.9982448
  HONO-1 :    3 B1 1.0000000
  HONO-0 :    3 B2 1.0000000
  LUNO+0 :    4 B1 0.0017552
  LUNO+1 :    4 B2 0.0017552
  LUNO+2 :    8 A1 0.0003458
  LUNO+3 :    9 A1 0.0002202


Computation Completed


Properties will be evaluated at   0.000000,   0.000000,   0.000000 [a0]

Properties computed using the SCF density matrix

  Nuclear Dipole Moment: [e a0]
     X:     0.0000      Y:     0.0000      Z:    -0.0083

  Electronic Dipole Moment: [e a0]
     X:     0.0000      Y:     0.0000      Z:    -0.6125

  Dipole Moment: [e a0]
     X:     0.0000      Y:     0.0000      Z:    -0.6209     Total:     0.6209

  Dipole Moment: [D]
     X:     0.0000      Y:     0.0000      Z:    -1.5781     Total:     1.5781


*** tstop() called on bp1-compute00048.data.bp.acrc.priv at Tue Apr 27 17:17:43 2021
Module time:
	user time   =     210.53 seconds =       3.51 minutes
	system time =      11.84 seconds =       0.20 minutes
	total time  =         10 seconds =       0.17 minutes
Total time:
	user time   =     210.53 seconds =       3.51 minutes
	system time =      11.84 seconds =       0.20 minutes
	total time  =         10 seconds =       0.17 minutes

  //>>>>>>>>>>>>>>>>>>>>>>>>>>>>>>>>>>>//
  //    Loading displacement 2 of 3    //
  //<<<<<<<<<<<<<<<<<<<<<<<<<<<<<<<<<<<//

*** tstart() called on bp1-compute00048.data.bp.acrc.priv
*** at Tue Apr 27 17:17:43 2021

   => Loading Basis Set <=

    Name: CC-PV(Q+D)Z
    Role: ORBITAL
    Keyword: BASIS
    atoms 1 entry S          line   978 file /work/zw18965/.conda/envs/p4env/share/psi4/basis/cc-pv_qpd_z.gbs 
    atoms 2 entry O          line   349 file /work/zw18965/.conda/envs/p4env/share/psi4/basis/cc-pv_qpd_z.gbs 


         ---------------------------------------------------------
                                   SCF
               by Justin Turney, Rob Parrish, Andy Simmonett
                          and Daniel G. A. Smith
                              UKS Reference
                       24 Threads, 137329 MiB Core
         ---------------------------------------------------------

  ==> Geometry <==

    Molecular point group: c2v
    Full point group: C_inf_v

    Geometry (in Angstrom), charge = 0, multiplicity = 3:

       Center              X                  Y                   Z               Mass       
    ------------   -----------------  -----------------  -----------------  -----------------
         S            0.000000000000     0.000000000000    -0.495858468507    31.972071174400
         O            0.000000000000     0.000000000000     0.991166419115    15.994914619570

  Running in c2v symmetry.

  Rotational constants: A = ************  B =      0.71507  C =      0.71507 [cm^-1]
  Rotational constants: A = ************  B =  21437.31830  C =  21437.31830 [MHz]
  Nuclear repulsion =   45.550470291095749

  Charge       = 0
  Multiplicity = 3
  Electrons    = 24
  Nalpha       = 13
  Nbeta        = 11

  ==> Algorithm <==

  SCF Algorithm Type is DF.
  DIIS enabled.
  MOM disabled.
  Fractional occupation disabled.
  Guess Type is SAD.
  Energy threshold   = 1.00e-08
  Density threshold  = 1.00e-08
  Integral threshold = 0.00e+00

  ==> Primary Basis <==

  Basis Set: CC-PV(Q+D)Z
    Blend: CC-PV(Q+D)Z
    Number of shells: 33
    Number of basis function: 119
    Number of Cartesian functions: 150
    Spherical Harmonics?: true
    Max angular momentum: 4

  ==> DFT Potential <==

   => Composite Functional: WB97M-V <= 

    wB97M-V Hyb-GGA Exchange-Correlation Functional

    N. Mardirossian and M. Head-Gordon, J. Chem. Phys. 144, 214110 (2016)

    Deriv               =              1
    GGA                 =           TRUE
    Meta                =           TRUE

    Exchange Hybrid     =           TRUE
    MP2 Hybrid          =          FALSE

   => Exchange-Correlation Functionals <=

    1.0000   wB97M-V exchange-correlation functional

   => Exact (HF) Exchange <=

    0.8500            HF,LR [omega = 0.3000]
    0.1500               HF 

   => VV10 Non-Local Parameters <=

    VV10 B              =     6.0000E+00
    VV10 C              =     1.0000E-02

   => Molecular Quadrature <=

    Radial Scheme          =       TREUTLER
    Pruning Scheme         =           FLAT
    Nuclear Scheme         =       TREUTLER

    BS radius alpha        =              1
    Pruning alpha          =              1
    Radial Points          =             75
    Spherical Points       =            302
    Total Points           =          43670
    Total Blocks           =            402
    Max Points             =            256
    Max Functions          =            119

   => Loading Basis Set <=

    Name: (CC-PV(Q+D)Z AUX)
    Role: JKFIT
    Keyword: DF_BASIS_SCF
    atoms 1 entry S          line   673 file /work/zw18965/.conda/envs/p4env/share/psi4/basis/cc-pvqz-jkfit.gbs 
    atoms 2 entry O          line   253 file /work/zw18965/.conda/envs/p4env/share/psi4/basis/cc-pvqz-jkfit.gbs 

  ==> Pre-Iterations <==

   -------------------------------------------------------
    Irrep   Nso     Nmo     Nalpha   Nbeta   Ndocc  Nsocc
   -------------------------------------------------------
     A1        48      48       0       0       0       0
     A2        15      15       0       0       0       0
     B1        28      28       0       0       0       0
     B2        28      28       0       0       0       0
   -------------------------------------------------------
    Total     119     119      13      11      11       2
   -------------------------------------------------------

  ==> Integral Setup <==

  ==> DiskDFJK: Density-Fitted J/K Matrices <==

    J tasked:                  Yes
    K tasked:                  Yes
    wK tasked:                 Yes
    Omega:               3.000E-01
    OpenMP threads:             24
    Integrals threads:          24
    Memory [MiB]:           102657
    Algorithm:                Core
    Integral Cache:           NONE
    Schwarz Cutoff:          1E-12
    Fitting Condition:       1E-10

   => Auxiliary Basis Set <=

  Basis Set: (CC-PV(Q+D)Z AUX)
    Blend: CC-PVQZ-JKFIT
    Number of shells: 68
    Number of basis function: 254
    Number of Cartesian functions: 333
    Spherical Harmonics?: true
    Max angular momentum: 5

  Cached 100.0% of DFT collocation blocks in 0.331 [GiB].

  Minimum eigenvalue in the overlap matrix is 6.3125533362E-04.
  Using Symmetric Orthogonalization.

  SCF Guess: Superposition of Atomic Densities via on-the-fly atomic UHF.

  ==> Iterations <==

                           Total Energy        Delta E     RMS |[F,P]|

   @DF-UKS iter SAD:  -472.93180344907313   -4.72932e+02   0.00000e+00 
   @DF-UKS iter   1:  -473.29776212641860   -3.65959e-01   7.47980e-03 DIIS
   @DF-UKS iter   2:  -473.19363213901255    1.04130e-01   1.12417e-02 DIIS
   @DF-UKS iter   3:  -473.38158259649725   -1.87950e-01   8.98522e-04 DIIS
   @DF-UKS iter   4:  -473.38282264621290   -1.24005e-03   2.33046e-04 DIIS
   @DF-UKS iter   5:  -473.38302161246713   -1.98966e-04   7.35452e-05 DIIS
   @DF-UKS iter   6:  -473.38305182765652   -3.02152e-05   2.65494e-05 DIIS
   @DF-UKS iter   7:  -473.38305760834822   -5.78069e-06   9.66157e-06 DIIS
   @DF-UKS iter   8:  -473.38305810871969   -5.00371e-07   3.23962e-06 DIIS
   @DF-UKS iter   9:  -473.38305815381892   -4.50992e-08   5.61140e-07 DIIS
   @DF-UKS iter  10:  -473.38305815522182   -1.40290e-09   1.02833e-07 DIIS
   @DF-UKS iter  11:  -473.38305815527792   -5.61045e-11   3.16408e-08 DIIS
   @DF-UKS iter  12:  -473.38305815528236   -4.43379e-12   6.21266e-09 DIIS
  Energy and wave function converged.


  ==> Post-Iterations <==

   @Spin Contamination Metric:   8.297367470E-03
   @S^2 Expected:                2.000000000E+00
   @S^2 Observed:                2.008297367E+00
   @S   Expected:                1.000000000E+00
   @S   Observed:                1.000000000E+00

    Orbital Energies [Eh]
    ---------------------

    Alpha Occupied:                                                       

       1A1   -89.299873     2A1   -19.405624     3A1    -8.207623  
       1B2    -6.118089     1B1    -6.118089     4A1    -6.115016  
       5A1    -1.216883     6A1    -0.802497     2B1    -0.566321  
       2B2    -0.566321     7A1    -0.561956     3B2    -0.356214  
       3B1    -0.356214  

    Alpha Virtual:                                                        

       8A1     0.074622     9A1     0.242653     4B2     0.243291  
       4B1     0.243291    10A1     0.276131     1A2     0.298669  
      11A1     0.298669     5B2     0.396877     5B1     0.396877  
      12A1     0.420050     6B1     0.551354     6B2     0.551354  
      13A1     0.654334    14A1     0.900995     2A2     0.961933  
      15A1     0.961938     3A2     0.968989    16A1     0.968989  
       7B2     0.984300     7B1     0.984300    17A1     1.063650  
       8B2     1.070883     8B1     1.070883     9B2     1.210437  
       9B1     1.210437    10B2     1.256482    10B1     1.256482  
      18A1     1.269594     4A2     1.385066    19A1     1.385068  
      20A1     1.425025    21A1     1.693016    11B1     1.717819  
      11B2     1.717819    22A1     2.025710    12B1     2.476636  
      12B2     2.476636    23A1     2.595357     5A2     2.595362  
      24A1     2.645792    13B2     2.745275    13B1     2.745275  
       6A2     2.825177    25A1     2.825184    14B2     2.825491  
      14B1     2.825491    15B2     2.921841    15B1     2.921841  
      26A1     2.930385     7A2     2.930417    16B1     3.103986  
      16B2     3.103986    27A1     3.130691     8A2     3.169934  
      28A1     3.169960    17B1     3.348825    17B2     3.348825  
      29A1     3.390679    18B2     3.516239    18B1     3.516239  
      30A1     3.565680     9A2     3.816925    31A1     3.816941  
      32A1     3.848658    33A1     4.044592    10A2     4.044605  
      19B1     4.292391    19B2     4.292391    34A1     4.561282  
      20B2     4.673997    20B1     4.673997    35A1     4.795574  
      21B2     5.379984    21B1     5.379984    36A1     7.101571  
      37A1     8.596143    22B2     8.603121    22B1     8.603121  
      38A1     8.641704    11A2     8.641748    12A2     8.895587  
      39A1     8.895781    23B2     8.919472    23B1     8.919472  
      40A1     9.093450    13A2     9.093481    24B1     9.434337  
      24B2     9.434337    41A1     9.730154    25B1    10.019085  
      25B2    10.019085    42A1    10.764327    26B2    10.968998  
      26B1    10.968998    43A1    11.203963    14A2    11.204031  
      27B1    11.776366    27B2    11.776366    44A1    11.884039  
      45A1    12.016171    15A2    12.016279    28B1    12.296304  
      28B2    12.296304    46A1    13.036681    47A1    18.112425  
      48A1    41.027312  

    Beta Occupied:                                                        

       1A1   -89.292607     2A1   -19.383812     3A1    -8.200328  
       4A1    -6.110630     1B2    -6.102334     1B1    -6.102334  
       5A1    -1.177230     6A1    -0.738991     7A1    -0.527173  
       2B2    -0.493713     2B1    -0.493713  

    Beta Virtual:                                                         

       3B2    -0.041888     3B1    -0.041888     8A1     0.092299  
       9A1     0.246129     4B2     0.247212     4B1     0.247212  
      10A1     0.292690     1A2     0.330083    11A1     0.330083  
      12A1     0.428036     5B2     0.434434     5B1     0.434434  
       6B2     0.565221     6B1     0.565221    13A1     0.668660  
      14A1     0.908377    15A1     0.984832     2A2     0.984833  
       3A2     1.001356    16A1     1.001357     7B2     1.003849  
       7B1     1.003849    17A1     1.086602     8B2     1.107015  
       8B1     1.107015     9B1     1.256110     9B2     1.256110  
      10B1     1.289921    10B2     1.289921    18A1     1.296016  
       4A2     1.411240    19A1     1.411248    20A1     1.438346  
      21A1     1.717889    11B2     1.736535    11B1     1.736535  
      22A1     2.054522    12B2     2.525608    12B1     2.525608  
      23A1     2.663114     5A2     2.663128    24A1     2.677101  
      13B1     2.785206    13B2     2.785206    25A1     2.858649  
       6A2     2.858650    14B1     2.878971    14B2     2.878971  
      15B1     2.951027    15B2     2.951027    26A1     3.029222  
       7A2     3.029236    27A1     3.163016    16B2     3.194304  
      16B1     3.194304     8A2     3.235984    28A1     3.235999  
      17B1     3.395762    17B2     3.395762    29A1     3.423192  
      18B1     3.563156    18B2     3.563156    30A1     3.600734  
       9A2     3.869259    31A1     3.869270    32A1     3.879080  
      10A2     4.084772    33A1     4.084776    19B2     4.325704  
      19B1     4.325704    34A1     4.580245    20B1     4.714765  
      20B2     4.714765    35A1     4.815260    21B1     5.435048  
      21B2     5.435048    36A1     7.127856    37A1     8.618374  
      22B1     8.626338    22B2     8.626338    38A1     8.680199  
      11A2     8.680237    23B2     8.971592    23B1     8.971592  
      12A2     8.973123    39A1     8.973321    40A1     9.132579  
      13A2     9.132593    24B2     9.467424    24B1     9.467424  
      41A1     9.759686    25B2    10.081976    25B1    10.081976  
      42A1    10.802539    26B1    11.076279    26B2    11.076279  
      43A1    11.278340    14A2    11.278431    27B2    11.825944  
      27B1    11.825944    44A1    11.914413    45A1    12.136795  
      15A2    12.136911    28B2    12.366379    28B1    12.366379  
      46A1    13.081213    47A1    18.127712    48A1    41.054049  

    Final Occupation by Irrep:
             A1    A2    B1    B2 
    DOCC [     7,    0,    2,    2 ]
    SOCC [     0,    0,    1,    1 ]

  @DF-UKS Final Energy:  -473.38305815528236

   => Energetics <=

    Nuclear Repulsion Energy =             45.5504702910957491
    One-Electron Energy =                -743.2484871462270348
    Two-Electron Energy =                 250.2502329680529272
    DFT Exchange-Correlation Energy =     -26.0360816643591804
    Empirical Dispersion Energy =           0.0000000000000000
    VV10 Nonlocal Energy =                  0.1008073961551404
    Total Energy =                       -473.3830581552824128

  UHF NO Occupations:
  HONO-2 :    2 B1 1.9982415
  HONO-1 :    3 B1 1.0000000
  HONO-0 :    3 B2 1.0000000
  LUNO+0 :    4 B1 0.0017585
  LUNO+1 :    4 B2 0.0017585
  LUNO+2 :    8 A1 0.0003459
  LUNO+3 :    9 A1 0.0002202


Computation Completed


Properties will be evaluated at   0.000000,   0.000000,   0.000000 [a0]

Properties computed using the SCF density matrix

  Nuclear Dipole Moment: [e a0]
     X:     0.0000      Y:     0.0000      Z:    -0.0083

  Electronic Dipole Moment: [e a0]
     X:     0.0000      Y:     0.0000      Z:    -0.6132

  Dipole Moment: [e a0]
     X:     0.0000      Y:     0.0000      Z:    -0.6216     Total:     0.6216

  Dipole Moment: [D]
     X:     0.0000      Y:     0.0000      Z:    -1.5799     Total:     1.5799


*** tstop() called on bp1-compute00048.data.bp.acrc.priv at Tue Apr 27 17:17:52 2021
Module time:
	user time   =     211.67 seconds =       3.53 minutes
	system time =       9.85 seconds =       0.16 minutes
	total time  =          9 seconds =       0.15 minutes
Total time:
	user time   =     422.33 seconds =       7.04 minutes
	system time =      21.70 seconds =       0.36 minutes
	total time  =         19 seconds =       0.32 minutes

  //>>>>>>>>>>>>>>>>>>>>>>>>>>>>>>>>>>>//
  //    Loading displacement 3 of 3    //
  //<<<<<<<<<<<<<<<<<<<<<<<<<<<<<<<<<<<//

*** tstart() called on bp1-compute00048.data.bp.acrc.priv
*** at Tue Apr 27 17:17:52 2021

   => Loading Basis Set <=

    Name: CC-PV(Q+D)Z
    Role: ORBITAL
    Keyword: BASIS
    atoms 1 entry S          line   978 file /work/zw18965/.conda/envs/p4env/share/psi4/basis/cc-pv_qpd_z.gbs 
    atoms 2 entry O          line   349 file /work/zw18965/.conda/envs/p4env/share/psi4/basis/cc-pv_qpd_z.gbs 


         ---------------------------------------------------------
                                   SCF
               by Justin Turney, Rob Parrish, Andy Simmonett
                          and Daniel G. A. Smith
                              UKS Reference
                       24 Threads, 137329 MiB Core
         ---------------------------------------------------------

  ==> Geometry <==

    Molecular point group: c2v
    Full point group: C_inf_v

    Geometry (in Angstrom), charge = 0, multiplicity = 3:

       Center              X                  Y                   Z               Mass       
    ------------   -----------------  -----------------  -----------------  -----------------
         S            0.000000000000     0.000000000000    -0.495318043426    31.972071174400
         O            0.000000000000     0.000000000000     0.990086168951    15.994914619570

  Running in c2v symmetry.

  Rotational constants: A = ************  B =      0.71663  C =      0.71663 [cm^-1]
  Rotational constants: A = ************  B =  21484.12291  C =  21484.12291 [MHz]
  Nuclear repulsion =   45.600168897688086

  Charge       = 0
  Multiplicity = 3
  Electrons    = 24
  Nalpha       = 13
  Nbeta        = 11

  ==> Algorithm <==

  SCF Algorithm Type is DF.
  DIIS enabled.
  MOM disabled.
  Fractional occupation disabled.
  Guess Type is SAD.
  Energy threshold   = 1.00e-08
  Density threshold  = 1.00e-08
  Integral threshold = 0.00e+00

  ==> Primary Basis <==

  Basis Set: CC-PV(Q+D)Z
    Blend: CC-PV(Q+D)Z
    Number of shells: 33
    Number of basis function: 119
    Number of Cartesian functions: 150
    Spherical Harmonics?: true
    Max angular momentum: 4

  ==> DFT Potential <==

   => Composite Functional: WB97M-V <= 

    wB97M-V Hyb-GGA Exchange-Correlation Functional

    N. Mardirossian and M. Head-Gordon, J. Chem. Phys. 144, 214110 (2016)

    Deriv               =              1
    GGA                 =           TRUE
    Meta                =           TRUE

    Exchange Hybrid     =           TRUE
    MP2 Hybrid          =          FALSE

   => Exchange-Correlation Functionals <=

    1.0000   wB97M-V exchange-correlation functional

   => Exact (HF) Exchange <=

    0.8500            HF,LR [omega = 0.3000]
    0.1500               HF 

   => VV10 Non-Local Parameters <=

    VV10 B              =     6.0000E+00
    VV10 C              =     1.0000E-02

   => Molecular Quadrature <=

    Radial Scheme          =       TREUTLER
    Pruning Scheme         =           FLAT
    Nuclear Scheme         =       TREUTLER

    BS radius alpha        =              1
    Pruning alpha          =              1
    Radial Points          =             75
    Spherical Points       =            302
    Total Points           =          43670
    Total Blocks           =            402
    Max Points             =            256
    Max Functions          =            119

   => Loading Basis Set <=

    Name: (CC-PV(Q+D)Z AUX)
    Role: JKFIT
    Keyword: DF_BASIS_SCF
    atoms 1 entry S          line   673 file /work/zw18965/.conda/envs/p4env/share/psi4/basis/cc-pvqz-jkfit.gbs 
    atoms 2 entry O          line   253 file /work/zw18965/.conda/envs/p4env/share/psi4/basis/cc-pvqz-jkfit.gbs 

  ==> Pre-Iterations <==

   -------------------------------------------------------
    Irrep   Nso     Nmo     Nalpha   Nbeta   Ndocc  Nsocc
   -------------------------------------------------------
     A1        48      48       0       0       0       0
     A2        15      15       0       0       0       0
     B1        28      28       0       0       0       0
     B2        28      28       0       0       0       0
   -------------------------------------------------------
    Total     119     119      13      11      11       2
   -------------------------------------------------------

  ==> Integral Setup <==

  ==> DiskDFJK: Density-Fitted J/K Matrices <==

    J tasked:                  Yes
    K tasked:                  Yes
    wK tasked:                 Yes
    Omega:               3.000E-01
    OpenMP threads:             24
    Integrals threads:          24
    Memory [MiB]:           102657
    Algorithm:                Core
    Integral Cache:           NONE
    Schwarz Cutoff:          1E-12
    Fitting Condition:       1E-10

   => Auxiliary Basis Set <=

  Basis Set: (CC-PV(Q+D)Z AUX)
    Blend: CC-PVQZ-JKFIT
    Number of shells: 68
    Number of basis function: 254
    Number of Cartesian functions: 333
    Spherical Harmonics?: true
    Max angular momentum: 5

  Cached 100.0% of DFT collocation blocks in 0.331 [GiB].

  Minimum eigenvalue in the overlap matrix is 6.2997925780E-04.
  Using Symmetric Orthogonalization.

  SCF Guess: Superposition of Atomic Densities via on-the-fly atomic UHF.

  ==> Iterations <==

                           Total Energy        Delta E     RMS |[F,P]|

   @DF-UKS iter SAD:  -472.93490952923656   -4.72935e+02   0.00000e+00 
   @DF-UKS iter   1:  -473.29787783584118   -3.62968e-01   7.47962e-03 DIIS
   @DF-UKS iter   2:  -473.19464673233415    1.03231e-01   1.12174e-02 DIIS
   @DF-UKS iter   3:  -473.38161849435147   -1.86972e-01   8.98170e-04 DIIS
   @DF-UKS iter   4:  -473.38285618004005   -1.23769e-03   2.31903e-04 DIIS
   @DF-UKS iter   5:  -473.38305337159863   -1.97192e-04   7.29349e-05 DIIS
   @DF-UKS iter   6:  -473.38308307232910   -2.97007e-05   2.62661e-05 DIIS
   @DF-UKS iter   7:  -473.38308872745034   -5.65512e-06   9.53900e-06 DIIS
   @DF-UKS iter   8:  -473.38308921565715   -4.88207e-07   3.19075e-06 DIIS
   @DF-UKS iter   9:  -473.38308925928374   -4.36266e-08   5.57145e-07 DIIS
   @DF-UKS iter  10:  -473.38308926066327   -1.37953e-09   1.02048e-07 DIIS
   @DF-UKS iter  11:  -473.38308926071863   -5.53655e-11   3.13766e-08 DIIS
   @DF-UKS iter  12:  -473.38308926072256   -3.92220e-12   6.12200e-09 DIIS
  Energy and wave function converged.


  ==> Post-Iterations <==

   @Spin Contamination Metric:   8.269961079E-03
   @S^2 Expected:                2.000000000E+00
   @S^2 Observed:                2.008269961E+00
   @S   Expected:                1.000000000E+00
   @S   Observed:                1.000000000E+00

    Orbital Energies [Eh]
    ---------------------

    Alpha Occupied:                                                       

       1A1   -89.299715     2A1   -19.405430     3A1    -8.207511  
       1B1    -6.117975     1B2    -6.117975     4A1    -6.114898  
       5A1    -1.217560     6A1    -0.802254     2B2    -0.566667  
       2B1    -0.566667     7A1    -0.562107     3B1    -0.355950  
       3B2    -0.355950  

    Alpha Virtual:                                                        

       8A1     0.074903     9A1     0.242624     4B1     0.243279  
       4B2     0.243279    10A1     0.276301     1A2     0.298654  
      11A1     0.298654     5B1     0.397221     5B2     0.397221  
      12A1     0.420320     6B2     0.551210     6B1     0.551210  
      13A1     0.654834    14A1     0.901280     2A2     0.962029  
      15A1     0.962034     3A2     0.968905    16A1     0.968905  
       7B1     0.984424     7B2     0.984424    17A1     1.064219  
       8B1     1.070869     8B2     1.070869     9B1     1.210533  
       9B2     1.210533    10B1     1.257006    10B2     1.257006  
      18A1     1.269461     4A2     1.385562    19A1     1.385564  
      20A1     1.425487    21A1     1.692542    11B2     1.717746  
      11B1     1.717746    22A1     2.027033    12B2     2.477284  
      12B1     2.477284    23A1     2.595429     5A2     2.595434  
      24A1     2.645954    13B1     2.745607    13B2     2.745607  
      14B1     2.825056    14B2     2.825056     6A2     2.825445  
      25A1     2.825452    15B1     2.922774    15B2     2.922774  
      26A1     2.930385     7A2     2.930417    16B2     3.104028  
      16B1     3.104028    27A1     3.131208     8A2     3.170191  
      28A1     3.170217    17B2     3.349663    17B1     3.349663  
      29A1     3.390186    18B1     3.516788    18B2     3.516788  
      30A1     3.567424     9A2     3.818220    31A1     3.818236  
      32A1     3.850551    33A1     4.045948    10A2     4.045962  
      19B2     4.293653    19B1     4.293653    34A1     4.565674  
      20B1     4.674351    20B2     4.674351    35A1     4.793790  
      21B1     5.383049    21B2     5.383049    36A1     7.107003  
      37A1     8.597543    22B1     8.601311    22B2     8.601311  
      38A1     8.641796    11A2     8.641840    12A2     8.895512  
      39A1     8.895703    23B1     8.919690    23B2     8.919690  
      40A1     9.094674    13A2     9.094703    24B2     9.438078  
      24B1     9.438078    41A1     9.732809    25B2    10.020349  
      25B1    10.020349    42A1    10.764620    26B1    10.969230  
      26B2    10.969230    43A1    11.205102    14A2    11.205170  
      27B2    11.778843    27B1    11.778843    44A1    11.883331  
      45A1    12.016463    15A2    12.016571    28B2    12.297474  
      28B1    12.297474    46A1    13.041507    47A1    18.125000  
      48A1    41.033626  

    Beta Occupied:                                                        

       1A1   -89.292449     2A1   -19.383644     3A1    -8.200216  
       4A1    -6.110511     1B1    -6.102221     1B2    -6.102221  
       5A1    -1.177991     6A1    -0.738736     7A1    -0.527310  
       2B1    -0.494166     2B2    -0.494166  

    Beta Virtual:                                                         

       3B1    -0.041636     3B2    -0.041636     8A1     0.092542  
       9A1     0.246086     4B1     0.247195     4B2     0.247195  
      10A1     0.292878     1A2     0.330084    11A1     0.330084  
      12A1     0.428315     5B1     0.434789     5B2     0.434789  
       6B1     0.565046     6B2     0.565046    13A1     0.669149  
      14A1     0.908659    15A1     0.984792     2A2     0.984793  
       3A2     1.001440    16A1     1.001442     7B1     1.003991  
       7B2     1.003991    17A1     1.087188     8B2     1.107032  
       8B1     1.107032     9B2     1.256501     9B1     1.256501  
      10B2     1.290202    10B1     1.290202    18A1     1.295889  
       4A2     1.411734    19A1     1.411742    20A1     1.438833  
      21A1     1.717439    11B1     1.736466    11B2     1.736466  
      22A1     2.055857    12B1     2.526151    12B2     2.526151  
      23A1     2.663227     5A2     2.663240    24A1     2.677270  
      13B2     2.785579    13B1     2.785579    25A1     2.858886  
       6A2     2.858886    14B2     2.878510    14B1     2.878510  
      15B2     2.952049    15B1     2.952049    26A1     3.029265  
       7A2     3.029279    27A1     3.163560    16B1     3.194399  
      16B2     3.194399     8A2     3.236324    28A1     3.236340  
      17B2     3.396601    17B1     3.396601    29A1     3.422675  
      18B2     3.563712    18B1     3.563712    30A1     3.602389  
       9A2     3.870616    31A1     3.870627    32A1     3.881035  
      10A2     4.086017    33A1     4.086022    19B1     4.326873  
      19B2     4.326873    34A1     4.584743    20B2     4.715294  
      20B1     4.715294    35A1     4.813378    21B2     5.438059  
      21B1     5.438059    36A1     7.133332    37A1     8.619775  
      22B2     8.624546    22B1     8.624546    38A1     8.680305  
      11A2     8.680343    23B1     8.971723    23B2     8.971723  
      12A2     8.972924    39A1     8.973121    40A1     9.133753  
      13A2     9.133765    24B1     9.471151    24B2     9.471151  
      41A1     9.762375    25B1    10.083156    25B2    10.083156  
      42A1    10.802748    26B2    11.076369    26B1    11.076369  
      43A1    11.279384    14A2    11.279475    27B1    11.828332  
      27B2    11.828332    44A1    11.913702    45A1    12.136934  
      15A2    12.137050    28B1    12.367477    28B2    12.367477  
      46A1    13.086007    47A1    18.140272    48A1    41.060336  

    Final Occupation by Irrep:
             A1    A2    B1    B2 
    DOCC [     7,    0,    2,    2 ]
    SOCC [     0,    0,    1,    1 ]

  @DF-UKS Final Energy:  -473.38308926072256

   => Energetics <=

    Nuclear Repulsion Energy =             45.6001688976880857
    One-Electron Energy =                -743.3466940672624332
    Two-Electron Energy =                 250.2996557412475340
    DFT Exchange-Correlation Energy =     -26.0370256090059691
    Empirical Dispersion Energy =           0.0000000000000000
    VV10 Nonlocal Energy =                  0.1008057766101784
    Total Energy =                       -473.3830892607226701

  UHF NO Occupations:
  HONO-2 :    2 B2 1.9982481
  HONO-1 :    3 B2 1.0000000
  HONO-0 :    3 B1 1.0000000
  LUNO+0 :    4 B2 0.0017519
  LUNO+1 :    4 B1 0.0017519
  LUNO+2 :    8 A1 0.0003457
  LUNO+3 :    9 A1 0.0002202


Computation Completed


Properties will be evaluated at   0.000000,   0.000000,   0.000000 [a0]

Properties computed using the SCF density matrix

  Nuclear Dipole Moment: [e a0]
     X:     0.0000      Y:     0.0000      Z:    -0.0083

  Electronic Dipole Moment: [e a0]
     X:     0.0000      Y:     0.0000      Z:    -0.6119

  Dipole Moment: [e a0]
     X:     0.0000      Y:     0.0000      Z:    -0.6202     Total:     0.6202

  Dipole Moment: [D]
     X:     0.0000      Y:     0.0000      Z:    -1.5763     Total:     1.5763


*** tstop() called on bp1-compute00048.data.bp.acrc.priv at Tue Apr 27 17:18:01 2021
Module time:
	user time   =     205.77 seconds =       3.43 minutes
	system time =       9.20 seconds =       0.15 minutes
	total time  =          9 seconds =       0.15 minutes
Total time:
	user time   =     628.24 seconds =      10.47 minutes
	system time =      30.90 seconds =       0.52 minutes
	total time  =         28 seconds =       0.47 minutes

         ----------------------------------------------------------
                                   FINDIF
                     R. A. King and Jonathon Misiewicz
         ---------------------------------------------------------

  Computing gradient from energies.
    Using 3-point formula.
    Energy without displacement: -473.3830743651
    Check energies below for precision!
    Forces are for mass-weighted, symmetry-adapted cartesians (in au).

     Coord      Energy(-1)        Energy(+1)            Force
        0   -473.3830581553   -473.3830892607     -0.0031105440


-------------------------------------------------------------
  ## New Matrix (Symmetry 0) ##
  Irrep: 1 Size: 2 x 3

                 1                   2                   3

    1     0.00000000000000     0.00000000000000    -0.01015643950667
    2     0.00000000000000     0.00000000000000     0.01015643950667




			-----------------------------------------
			 OPTKING 2.0: for geometry optimizations 
			  - R.A. King,  Bethel University        
			-----------------------------------------
	At level 1: Red. Int., RFO, no backsteps, dynamic trust

	Internal coordinates to be generated automatically.
	Detected frag 1 with atoms:  1 2
	---Fragment 1 Bond Connectivity---
	 1 : 2
	 2 : 1

	---Fragment 1 Geometry and Gradient---
	 S           0.0000000000        0.0000000000       -0.9365260748
	 O           0.0000000000        0.0000000000        1.8720123884
	             0.0000000000        0.0000000000       -0.0101564395
	             0.0000000000        0.0000000000        0.0101564395

	Previous optimization step data not found.  Starting new optimization.

	---Fragment 1 Intrafragment Coordinates---
	 - Coordinate -           - BOHR/RAD -       - ANG/DEG -
	 R(1,2)           =         2.808538	       1.486215

	Current energy   :      -473.3830743651

	Generating empirical Hessian (Schlegel '84) for each fragment.
	Taking RFO optimization step.
	Going to follow RFO solution 1.
	Using RFO vector 1.
	Norm of target step-size    0.01247
	Projected energy change by RFO approximation:        -0.0000488910

	Back-transformation to cartesian coordinates...
	Successfully converged to displaced geometry.

	--- Internal Coordinate Step in ANG or DEG, aJ/ANG or AJ/DEG ---
	 ---------------------------------------------------------------------------
	   Coordinate                Previous        Force       Change         New 
	   ----------                --------       ------       ------       ------
	    1 R(1,2)          =      1.486215    -0.083676    -0.006599     1.479615
	 ---------------------------------------------------------------------------
	Successfully symmetrized geometry.

  ==> Convergence Check <==

  Measures of convergence in internal coordinates in au.
  Criteria marked as inactive (o), active & met (*), and active & unmet ( ).
  --------------------------------------------------------------------------------------------- ~
   Step     Total Energy     Delta E     MAX Force     RMS Force      MAX Disp      RMS Disp    ~
  --------------------------------------------------------------------------------------------- ~
    Convergence Criteria    1.00e-06 *    3.00e-04 *             o    1.20e-03 *             o  ~
  --------------------------------------------------------------------------------------------- ~
      1    -473.38307437   -4.73e+02      1.02e-02      1.02e-02 o    1.25e-02      1.25e-02 o  ~
  ---------------------------------------------------------------------------------------------

	Writing optimization data to binary file.
	Structure for next step:
	Cartesian Geometry (in Angstrom)
	    S     0.0000000000   0.0000000000  -0.4922886311
	    O     0.0000000000   0.0000000000   0.9873266673
			--------------------------
			 OPTKING Finished Execution 
			--------------------------

    Structure for next step:
    Molecular point group: c2v
    Full point group: C_inf_v

    Geometry (in Angstrom), charge = 0, multiplicity = 3:

    S            0.000000000000     0.000000000000    -0.493387692996
    O            0.000000000000     0.000000000000     0.986227611228

gradient() will perform gradient computation by finite difference of analytic energies.

         ----------------------------------------------------------
                                   FINDIF
                     R. A. King and Jonathon Misiewicz
         ---------------------------------------------------------

  Using finite-differences of energies to determine gradients.
    Generating geometries for use with 3-point formula.
    Displacement size will be 5.00e-03.
    Number of atoms is 2.
    Number of symmetric SALCs is 1.
    Translations projected? 1. Rotations projected? 1.
    Number of geometries (including reference) is 3.

  //>>>>>>>>>>>>>>>>>>>>>>>>>>>>>>>>>>>//
  //    Loading displacement 1 of 3    //
  //<<<<<<<<<<<<<<<<<<<<<<<<<<<<<<<<<<<//

*** tstart() called on bp1-compute00048.data.bp.acrc.priv
*** at Tue Apr 27 17:18:01 2021

   => Loading Basis Set <=

    Name: CC-PV(Q+D)Z
    Role: ORBITAL
    Keyword: BASIS
    atoms 1 entry S          line   978 file /work/zw18965/.conda/envs/p4env/share/psi4/basis/cc-pv_qpd_z.gbs 
    atoms 2 entry O          line   349 file /work/zw18965/.conda/envs/p4env/share/psi4/basis/cc-pv_qpd_z.gbs 


         ---------------------------------------------------------
                                   SCF
               by Justin Turney, Rob Parrish, Andy Simmonett
                          and Daniel G. A. Smith
                              UKS Reference
                       24 Threads, 137329 MiB Core
         ---------------------------------------------------------

  ==> Geometry <==

    Molecular point group: c2v
    Full point group: C_inf_v

    Geometry (in Angstrom), charge = 0, multiplicity = 3:

       Center              X                  Y                   Z               Mass       
    ------------   -----------------  -----------------  -----------------  -----------------
         S            0.000000000000     0.000000000000    -0.493387692996    31.972071174400
         O            0.000000000000     0.000000000000     0.986227611228    15.994914619570

  Running in c2v symmetry.

  Rotational constants: A = ************  B =      0.72225  C =      0.72225 [cm^-1]
  Rotational constants: A = ************  B =  21652.56252  C =  21652.56252 [MHz]
  Nuclear repulsion =   45.778576885737358

  Charge       = 0
  Multiplicity = 3
  Electrons    = 24
  Nalpha       = 13
  Nbeta        = 11

  ==> Algorithm <==

  SCF Algorithm Type is DF.
  DIIS enabled.
  MOM disabled.
  Fractional occupation disabled.
  Guess Type is READ.
  Energy threshold   = 1.00e-08
  Density threshold  = 1.00e-08
  Integral threshold = 0.00e+00

  ==> Primary Basis <==

  Basis Set: CC-PV(Q+D)Z
    Blend: CC-PV(Q+D)Z
    Number of shells: 33
    Number of basis function: 119
    Number of Cartesian functions: 150
    Spherical Harmonics?: true
    Max angular momentum: 4

  ==> DFT Potential <==

   => Composite Functional: WB97M-V <= 

    wB97M-V Hyb-GGA Exchange-Correlation Functional

    N. Mardirossian and M. Head-Gordon, J. Chem. Phys. 144, 214110 (2016)

    Deriv               =              1
    GGA                 =           TRUE
    Meta                =           TRUE

    Exchange Hybrid     =           TRUE
    MP2 Hybrid          =          FALSE

   => Exchange-Correlation Functionals <=

    1.0000   wB97M-V exchange-correlation functional

   => Exact (HF) Exchange <=

    0.8500            HF,LR [omega = 0.3000]
    0.1500               HF 

   => VV10 Non-Local Parameters <=

    VV10 B              =     6.0000E+00
    VV10 C              =     1.0000E-02

   => Molecular Quadrature <=

    Radial Scheme          =       TREUTLER
    Pruning Scheme         =           FLAT
    Nuclear Scheme         =       TREUTLER

    BS radius alpha        =              1
    Pruning alpha          =              1
    Radial Points          =             75
    Spherical Points       =            302
    Total Points           =          43670
    Total Blocks           =            401
    Max Points             =            256
    Max Functions          =            119

   => Loading Basis Set <=

    Name: (CC-PV(Q+D)Z AUX)
    Role: JKFIT
    Keyword: DF_BASIS_SCF
    atoms 1 entry S          line   673 file /work/zw18965/.conda/envs/p4env/share/psi4/basis/cc-pvqz-jkfit.gbs 
    atoms 2 entry O          line   253 file /work/zw18965/.conda/envs/p4env/share/psi4/basis/cc-pvqz-jkfit.gbs 

   => Loading Basis Set <=

    Name: CC-PV(Q+D)Z
    Role: ORBITAL
    Keyword: BASIS
    atoms 1 entry S          line   978 file /work/zw18965/.conda/envs/p4env/share/psi4/basis/cc-pv_qpd_z.gbs 
    atoms 2 entry O          line   349 file /work/zw18965/.conda/envs/p4env/share/psi4/basis/cc-pv_qpd_z.gbs 

  Reading orbitals from file 180, no projection.

  ==> Pre-Iterations <==

   -------------------------------------------------------
    Irrep   Nso     Nmo     Nalpha   Nbeta   Ndocc  Nsocc
   -------------------------------------------------------
     A1        48      48       0       0       0       0
     A2        15      15       0       0       0       0
     B1        28      28       0       0       0       0
     B2        28      28       0       0       0       0
   -------------------------------------------------------
    Total     119     119      13      11      11       2
   -------------------------------------------------------

  ==> Integral Setup <==

  ==> DiskDFJK: Density-Fitted J/K Matrices <==

    J tasked:                  Yes
    K tasked:                  Yes
    wK tasked:                 Yes
    Omega:               3.000E-01
    OpenMP threads:             24
    Integrals threads:          24
    Memory [MiB]:           102657
    Algorithm:                Core
    Integral Cache:           NONE
    Schwarz Cutoff:          1E-12
    Fitting Condition:       1E-10

   => Auxiliary Basis Set <=

  Basis Set: (CC-PV(Q+D)Z AUX)
    Blend: CC-PVQZ-JKFIT
    Number of shells: 68
    Number of basis function: 254
    Number of Cartesian functions: 333
    Spherical Harmonics?: true
    Max angular momentum: 5

  Cached 100.0% of DFT collocation blocks in 0.332 [GiB].

  Minimum eigenvalue in the overlap matrix is 6.2529523652E-04.
  Using Symmetric Orthogonalization.

  SCF Guess: Orbitals guess was supplied from a previous computation.

  ==> Iterations <==

                           Total Energy        Delta E     RMS |[F,P]|

   @DF-UKS iter   0:  -473.38978151257299   -4.73390e+02   4.09092e-04 
   @DF-UKS iter   1:  -473.38314670172292    6.63481e-03   6.93147e-05 DIIS
   @DF-UKS iter   2:  -473.38314563925582    1.06247e-06   8.98972e-05 DIIS
   @DF-UKS iter   3:  -473.38315653472756   -1.08955e-05   1.34359e-05 DIIS
   @DF-UKS iter   4:  -473.38315679921266   -2.64485e-07   5.47048e-06 DIIS
   @DF-UKS iter   5:  -473.38315687334426   -7.41316e-08   1.05705e-06 DIIS
   @DF-UKS iter   6:  -473.38315688296808   -9.62382e-09   4.77804e-07 DIIS
   @DF-UKS iter   7:  -473.38315688459312   -1.62504e-09   1.81390e-07 DIIS
   @DF-UKS iter   8:  -473.38315688478338   -1.90255e-10   3.14312e-08 DIIS
   @DF-UKS iter   9:  -473.38315688479059   -7.21911e-12   4.34963e-09 DIIS
  Energy and wave function converged.


  ==> Post-Iterations <==

   @Spin Contamination Metric:   8.172047696E-03
   @S^2 Expected:                2.000000000E+00
   @S^2 Observed:                2.008172048E+00
   @S   Expected:                1.000000000E+00
   @S   Observed:                1.000000000E+00

    Orbital Energies [Eh]
    ---------------------

    Alpha Occupied:                                                       

       1A1   -89.299145     2A1   -19.404734     3A1    -8.207108  
       1B2    -6.117567     1B1    -6.117567     4A1    -6.114476  
       5A1    -1.219998     6A1    -0.801382     2B1    -0.567915  
       2B2    -0.567915     7A1    -0.562644     3B2    -0.355004  
       3B1    -0.355004  

    Alpha Virtual:                                                        

       8A1     0.075893     9A1     0.242522     4B2     0.243239  
       4B1     0.243239    10A1     0.276899    11A1     0.298600  
       1A2     0.298600     5B2     0.398461     5B1     0.398461  
      12A1     0.421292     6B1     0.550684     6B2     0.550684  
      13A1     0.656620    14A1     0.902296     2A2     0.962373  
      15A1     0.962379    16A1     0.968605     3A2     0.968605  
       7B2     0.984871     7B1     0.984871    17A1     1.066299  
       8B2     1.070820     8B1     1.070820     9B2     1.210853  
       9B1     1.210853    10B2     1.258897    10B1     1.258897  
      18A1     1.268959     4A2     1.387335    19A1     1.387337  
      20A1     1.427193    21A1     1.690872    11B1     1.717455  
      11B2     1.717455    22A1     2.031747    12B1     2.479596  
      12B2     2.479596    23A1     2.595692     5A2     2.595700  
      24A1     2.646555    13B2     2.746812    13B1     2.746812  
      14B1     2.823509    14B2     2.823509     6A2     2.826408  
      25A1     2.826415    15B2     2.926149    15B1     2.926149  
      26A1     2.930383     7A2     2.930418    16B1     3.104176  
      16B2     3.104176    27A1     3.132922     8A2     3.171118  
      28A1     3.171145    17B2     3.352674    17B1     3.352674  
      29A1     3.388429    18B2     3.518715    18B1     3.518715  
      30A1     3.573618     9A2     3.822808    31A1     3.822824  
      32A1     3.857362    33A1     4.050863    10A2     4.050874  
      19B1     4.298062    19B2     4.298062    34A1     4.581592  
      20B2     4.675611    20B1     4.675611    35A1     4.787497  
      21B2     5.394161    21B1     5.394161    36A1     7.125947  
      22B2     8.594816    22B1     8.594816    37A1     8.603095  
      38A1     8.642101    11A2     8.642146    12A2     8.895237  
      39A1     8.895418    23B2     8.920485    23B1     8.920485  
      40A1     9.099104    13A2     9.099130    24B1     9.451525  
      24B2     9.451525    41A1     9.742116    25B1    10.024885  
      25B2    10.024885    42A1    10.765602    26B2    10.970063  
      26B1    10.970063    43A1    11.209189    14A2    11.209257  
      27B1    11.787566    27B2    11.787566    44A1    11.881029  
      45A1    12.017506    15A2    12.017611    28B1    12.301888  
      28B2    12.301888    46A1    13.058590    47A1    18.170593  
      48A1    41.056188  

    Beta Occupied:                                                        

       1A1   -89.291881     2A1   -19.383043     3A1    -8.199812  
       4A1    -6.110083     1B2    -6.101816     1B1    -6.101816  
       5A1    -1.180729     6A1    -0.737822     7A1    -0.527801  
       2B2    -0.495797     2B1    -0.495797  

    Beta Virtual:                                                         

       3B2    -0.040732     3B1    -0.040732     8A1     0.093401  
       9A1     0.245931     4B2     0.247134     4B1     0.247134  
      10A1     0.293541     1A2     0.330088    11A1     0.330088  
      12A1     0.429321     5B2     0.436063     5B1     0.436063  
       6B2     0.564417     6B1     0.564417    13A1     0.670896  
      14A1     0.909667    15A1     0.984643     2A2     0.984644  
       3A2     1.001751    16A1     1.001752     7B2     1.004509  
       7B1     1.004509    17A1     1.089325     8B2     1.107090  
       8B1     1.107090     9B2     1.257842     9B1     1.257842  
      10B1     1.291254    10B2     1.291254    18A1     1.295404  
       4A2     1.413500    19A1     1.413509    20A1     1.440631  
      21A1     1.715854    11B2     1.736191    11B1     1.736191  
      22A1     2.060618    12B2     2.528082    12B1     2.528082  
      23A1     2.663634     5A2     2.663648    24A1     2.677895  
      13B1     2.786937    13B2     2.786937    25A1     2.859736  
       6A2     2.859737    14B1     2.876867    14B2     2.876867  
      15B1     2.955748    15B2     2.955748    26A1     3.029419  
       7A2     3.029432    27A1     3.165355    16B1     3.194737  
      16B2     3.194737     8A2     3.237551    28A1     3.237567  
      17B2     3.399618    17B1     3.399618    29A1     3.420839  
      18B1     3.565664    18B2     3.565664    30A1     3.608257  
       9A2     3.875415    31A1     3.875425    32A1     3.888077  
      10A2     4.090545    33A1     4.090551    19B2     4.330949  
      19B1     4.330949    34A1     4.601083    20B1     4.717175  
      20B2     4.717175    35A1     4.806692    21B1     5.448986  
      21B2     5.448986    36A1     7.152419    22B1     8.618110  
      22B2     8.618110    37A1     8.625331    38A1     8.680663  
      11A2     8.680701    23B2     8.972203    23B1     8.972203  
      12A2     8.972203    39A1     8.972395    40A1     9.138008  
      13A2     9.138017    24B2     9.484553    24B1     9.484553  
      41A1     9.771807    25B2    10.087387    25B1    10.087387  
      42A1    10.803428    26B2    11.076692    26B1    11.076692  
      43A1    11.283132    14A2    11.283220    27B2    11.836744  
      27B1    11.836744    44A1    11.911387    45A1    12.137428  
      15A2    12.137543    28B2    12.371629    28B1    12.371629  
      46A1    13.102978    47A1    18.185811    48A1    41.082800  

    Final Occupation by Irrep:
             A1    A2    B1    B2 
    DOCC [     7,    0,    2,    2 ]
    SOCC [     0,    0,    1,    1 ]

  @DF-UKS Final Energy:  -473.38315688479059

   => Energetics <=

    Nuclear Repulsion Energy =             45.7785768857373583
    One-Electron Energy =                -743.6991210359146862
    Two-Electron Energy =                 250.4770117433916425
    DFT Exchange-Correlation Energy =     -26.0404244891214205
    Empirical Dispersion Energy =           0.0000000000000000
    VV10 Nonlocal Energy =                  0.1008000111164626
    Total Energy =                       -473.3831568847906510

  UHF NO Occupations:
  HONO-2 :    2 B1 1.9982715
  HONO-1 :    3 B1 1.0000000
  HONO-0 :    3 B2 1.0000000
  LUNO+0 :    4 B1 0.0017285
  LUNO+1 :    4 B2 0.0017285
  LUNO+2 :    8 A1 0.0003452
  LUNO+3 :    9 A1 0.0002200


Computation Completed


Properties will be evaluated at   0.000000,   0.000000,   0.000000 [a0]

Properties computed using the SCF density matrix

  Nuclear Dipole Moment: [e a0]
     X:     0.0000      Y:     0.0000      Z:    -0.0083

  Electronic Dipole Moment: [e a0]
     X:     0.0000      Y:     0.0000      Z:    -0.6068

  Dipole Moment: [e a0]
     X:     0.0000      Y:     0.0000      Z:    -0.6151     Total:     0.6151

  Dipole Moment: [D]
     X:     0.0000      Y:     0.0000      Z:    -1.5634     Total:     1.5634


*** tstop() called on bp1-compute00048.data.bp.acrc.priv at Tue Apr 27 17:18:08 2021
Module time:
	user time   =     155.77 seconds =       2.60 minutes
	system time =       6.66 seconds =       0.11 minutes
	total time  =          7 seconds =       0.12 minutes
Total time:
	user time   =     784.39 seconds =      13.07 minutes
	system time =      37.58 seconds =       0.63 minutes
	total time  =         35 seconds =       0.58 minutes

  //>>>>>>>>>>>>>>>>>>>>>>>>>>>>>>>>>>>//
  //    Loading displacement 2 of 3    //
  //<<<<<<<<<<<<<<<<<<<<<<<<<<<<<<<<<<<//

*** tstart() called on bp1-compute00048.data.bp.acrc.priv
*** at Tue Apr 27 17:18:08 2021

   => Loading Basis Set <=

    Name: CC-PV(Q+D)Z
    Role: ORBITAL
    Keyword: BASIS
    atoms 1 entry S          line   978 file /work/zw18965/.conda/envs/p4env/share/psi4/basis/cc-pv_qpd_z.gbs 
    atoms 2 entry O          line   349 file /work/zw18965/.conda/envs/p4env/share/psi4/basis/cc-pv_qpd_z.gbs 


         ---------------------------------------------------------
                                   SCF
               by Justin Turney, Rob Parrish, Andy Simmonett
                          and Daniel G. A. Smith
                              UKS Reference
                       24 Threads, 137329 MiB Core
         ---------------------------------------------------------

  ==> Geometry <==

    Molecular point group: c2v
    Full point group: C_inf_v

    Geometry (in Angstrom), charge = 0, multiplicity = 3:

       Center              X                  Y                   Z               Mass       
    ------------   -----------------  -----------------  -----------------  -----------------
         S            0.000000000000     0.000000000000    -0.493657905537    31.972071174400
         O            0.000000000000     0.000000000000     0.986767736310    15.994914619570

  Running in c2v symmetry.

  Rotational constants: A = ************  B =      0.72146  C =      0.72146 [cm^-1]
  Rotational constants: A = ************  B =  21628.86516  C =  21628.86516 [MHz]
  Nuclear repulsion =   45.753519157677445

  Charge       = 0
  Multiplicity = 3
  Electrons    = 24
  Nalpha       = 13
  Nbeta        = 11

  ==> Algorithm <==

  SCF Algorithm Type is DF.
  DIIS enabled.
  MOM disabled.
  Fractional occupation disabled.
  Guess Type is READ.
  Energy threshold   = 1.00e-08
  Density threshold  = 1.00e-08
  Integral threshold = 0.00e+00

  ==> Primary Basis <==

  Basis Set: CC-PV(Q+D)Z
    Blend: CC-PV(Q+D)Z
    Number of shells: 33
    Number of basis function: 119
    Number of Cartesian functions: 150
    Spherical Harmonics?: true
    Max angular momentum: 4

  ==> DFT Potential <==

   => Composite Functional: WB97M-V <= 

    wB97M-V Hyb-GGA Exchange-Correlation Functional

    N. Mardirossian and M. Head-Gordon, J. Chem. Phys. 144, 214110 (2016)

    Deriv               =              1
    GGA                 =           TRUE
    Meta                =           TRUE

    Exchange Hybrid     =           TRUE
    MP2 Hybrid          =          FALSE

   => Exchange-Correlation Functionals <=

    1.0000   wB97M-V exchange-correlation functional

   => Exact (HF) Exchange <=

    0.8500            HF,LR [omega = 0.3000]
    0.1500               HF 

   => VV10 Non-Local Parameters <=

    VV10 B              =     6.0000E+00
    VV10 C              =     1.0000E-02

   => Molecular Quadrature <=

    Radial Scheme          =       TREUTLER
    Pruning Scheme         =           FLAT
    Nuclear Scheme         =       TREUTLER

    BS radius alpha        =              1
    Pruning alpha          =              1
    Radial Points          =             75
    Spherical Points       =            302
    Total Points           =          43670
    Total Blocks           =            401
    Max Points             =            256
    Max Functions          =            119

   => Loading Basis Set <=

    Name: (CC-PV(Q+D)Z AUX)
    Role: JKFIT
    Keyword: DF_BASIS_SCF
    atoms 1 entry S          line   673 file /work/zw18965/.conda/envs/p4env/share/psi4/basis/cc-pvqz-jkfit.gbs 
    atoms 2 entry O          line   253 file /work/zw18965/.conda/envs/p4env/share/psi4/basis/cc-pvqz-jkfit.gbs 

   => Loading Basis Set <=

    Name: CC-PV(Q+D)Z
    Role: ORBITAL
    Keyword: BASIS
    atoms 1 entry S          line   978 file /work/zw18965/.conda/envs/p4env/share/psi4/basis/cc-pv_qpd_z.gbs 
    atoms 2 entry O          line   349 file /work/zw18965/.conda/envs/p4env/share/psi4/basis/cc-pv_qpd_z.gbs 

  Reading orbitals from file 180, no projection.

  ==> Pre-Iterations <==

   -------------------------------------------------------
    Irrep   Nso     Nmo     Nalpha   Nbeta   Ndocc  Nsocc
   -------------------------------------------------------
     A1        48      48       0       0       0       0
     A2        15      15       0       0       0       0
     B1        28      28       0       0       0       0
     B2        28      28       0       0       0       0
   -------------------------------------------------------
    Total     119     119      13      11      11       2
   -------------------------------------------------------

  ==> Integral Setup <==

  ==> DiskDFJK: Density-Fitted J/K Matrices <==

    J tasked:                  Yes
    K tasked:                  Yes
    wK tasked:                 Yes
    Omega:               3.000E-01
    OpenMP threads:             24
    Integrals threads:          24
    Memory [MiB]:           102657
    Algorithm:                Core
    Integral Cache:           NONE
    Schwarz Cutoff:          1E-12
    Fitting Condition:       1E-10

   => Auxiliary Basis Set <=

  Basis Set: (CC-PV(Q+D)Z AUX)
    Blend: CC-PVQZ-JKFIT
    Number of shells: 68
    Number of basis function: 254
    Number of Cartesian functions: 333
    Spherical Harmonics?: true
    Max angular momentum: 5

  Cached 100.0% of DFT collocation blocks in 0.332 [GiB].

  Minimum eigenvalue in the overlap matrix is 6.2596317912E-04.
  Using Symmetric Orthogonalization.

  SCF Guess: Orbitals guess was supplied from a previous computation.

  ==> Iterations <==

                           Total Energy        Delta E     RMS |[F,P]|

   @DF-UKS iter   0:  -473.38233707904487   -4.73382e+02   5.05293e-05 
   @DF-UKS iter   1:  -473.38315140425095   -8.14325e-04   8.59049e-06 DIIS
   @DF-UKS iter   2:  -473.38315138448627    1.97647e-08   1.12446e-05 DIIS
   @DF-UKS iter   3:  -473.38315155537839   -1.70892e-07   1.63960e-06 DIIS
   @DF-UKS iter   4:  -473.38315155931690   -3.93851e-09   6.73715e-07 DIIS
   @DF-UKS iter   5:  -473.38315156044359   -1.12669e-09   1.30524e-07 DIIS
   @DF-UKS iter   6:  -473.38315156059008   -1.46485e-10   5.88860e-08 DIIS
   @DF-UKS iter   7:  -473.38315156061481   -2.47269e-11   2.24069e-08 DIIS
   @DF-UKS iter   8:  -473.38315156061776   -2.95586e-12   3.89539e-09 DIIS
  Energy and wave function converged.


  ==> Post-Iterations <==

   @Spin Contamination Metric:   8.185756072E-03
   @S^2 Expected:                2.000000000E+00
   @S^2 Observed:                2.008185756E+00
   @S   Expected:                1.000000000E+00
   @S   Observed:                1.000000000E+00

    Orbital Energies [Eh]
    ---------------------

    Alpha Occupied:                                                       

       1A1   -89.299225     2A1   -19.404832     3A1    -8.207165  
       1B2    -6.117625     1B1    -6.117625     4A1    -6.114535  
       5A1    -1.219655     6A1    -0.801504     2B1    -0.567739  
       2B2    -0.567739     7A1    -0.562568     3B2    -0.355137  
       3B1    -0.355137  

    Alpha Virtual:                                                        

       8A1     0.075756     9A1     0.242536     4B2     0.243245  
       4B1     0.243245    10A1     0.276816    11A1     0.298607  
       1A2     0.298608     5B2     0.398287     5B1     0.398287  
      12A1     0.421156     6B1     0.550759     6B2     0.550759  
      13A1     0.656370    14A1     0.902154     2A2     0.962325  
      15A1     0.962330    16A1     0.968647     3A2     0.968647  
       7B1     0.984808     7B2     0.984808    17A1     1.066003  
       8B2     1.070827     8B1     1.070827     9B2     1.210811  
       9B1     1.210811    10B2     1.258631    10B1     1.258631  
      18A1     1.269032     4A2     1.387087    19A1     1.387089  
      20A1     1.426949    21A1     1.691103    11B2     1.717498  
      11B1     1.717498    22A1     2.031088    12B2     2.479273  
      12B1     2.479273    23A1     2.595654     5A2     2.595662  
      24A1     2.646469    13B1     2.746641    13B2     2.746641  
      14B1     2.823725    14B2     2.823725     6A2     2.826273  
      25A1     2.826279    15B1     2.925672    15B2     2.925672  
      26A1     2.930384     7A2     2.930418    16B2     3.104156  
      16B1     3.104156    27A1     3.132695     8A2     3.170987  
      28A1     3.171014    17B1     3.352251    17B2     3.352251  
      29A1     3.388675    18B2     3.518448    18B1     3.518448  
      30A1     3.572755     9A2     3.822169    31A1     3.822186  
      32A1     3.856403    33A1     4.050169    10A2     4.050180  
      19B2     4.297454    19B1     4.297454    34A1     4.579344  
      20B1     4.675436    20B2     4.675436    35A1     4.788369  
      21B1     5.392590    21B2     5.392590    36A1     7.123339  
      22B2     8.595728    22B1     8.595728    37A1     8.602266  
      38A1     8.642061    11A2     8.642105    12A2     8.895276  
      39A1     8.895459    23B1     8.920373    23B2     8.920373  
      40A1     9.098478    13A2     9.098504    24B1     9.449635  
      24B2     9.449635    41A1     9.740831    25B1    10.024248  
      25B2    10.024248    42A1    10.765471    26B1    10.969946  
      26B2    10.969946    43A1    11.208615    14A2    11.208683  
      27B1    11.786358    27B2    11.786358    44A1    11.881329  
      45A1    12.017360    15A2    12.017466    28B1    12.301247  
      28B2    12.301247    46A1    13.056214    47A1    18.164148  
      48A1    41.053029  

    Beta Occupied:                                                        

       1A1   -89.291961     2A1   -19.383127     3A1    -8.199869  
       4A1    -6.110143     1B2    -6.101873     1B1    -6.101873  
       5A1    -1.180344     6A1    -0.737950     7A1    -0.527732  
       2B2    -0.495568     2B1    -0.495568  

    Beta Virtual:                                                         

       3B2    -0.040859     3B1    -0.040859     8A1     0.093282  
       9A1     0.245953     4B2     0.247143     4B1     0.247143  
      10A1     0.293449     1A2     0.330088    11A1     0.330088  
      12A1     0.429180     5B2     0.435884     5B1     0.435884  
       6B1     0.564506     6B2     0.564506    13A1     0.670651  
      14A1     0.909526    15A1     0.984665     2A2     0.984665  
       3A2     1.001707    16A1     1.001708     7B1     1.004435  
       7B2     1.004435    17A1     1.089022     8B2     1.107082  
       8B1     1.107082     9B2     1.257660     9B1     1.257660  
      10B2     1.291103    10B1     1.291103    18A1     1.295474  
       4A2     1.413253    19A1     1.413262    20A1     1.440374  
      21A1     1.716074    11B2     1.736232    11B1     1.736232  
      22A1     2.059952    12B2     2.527812    12B1     2.527812  
      23A1     2.663577     5A2     2.663591    24A1     2.677805  
      13B1     2.786744    13B2     2.786744    25A1     2.859617  
       6A2     2.859617    14B1     2.877097    14B2     2.877097  
      15B1     2.955225    15B2     2.955225    26A1     3.029397  
       7A2     3.029411    27A1     3.165118    16B2     3.194690  
      16B1     3.194690     8A2     3.237378    28A1     3.237394  
      17B1     3.399194    17B2     3.399194    29A1     3.421095  
      18B2     3.565394    18B1     3.565394    30A1     3.607440  
       9A2     3.874748    31A1     3.874758    32A1     3.887086  
      10A2     4.089904    33A1     4.089910    19B2     4.330388  
      19B1     4.330388    34A1     4.598772    20B1     4.716912  
      20B2     4.716912    35A1     4.807622    21B1     5.447441  
      21B2     5.447441    36A1     7.149793    22B2     8.619014  
      22B1     8.619014    37A1     8.624501    38A1     8.680615  
      11A2     8.680653    23B1     8.972134    23B2     8.972134  
      12A2     8.972305    39A1     8.972498    40A1     9.137407  
      13A2     9.137416    24B1     9.482669    24B2     9.482669  
      41A1     9.770504    25B2    10.086793    25B1    10.086793  
      42A1    10.803339    26B1    11.076646    26B2    11.076646  
      43A1    11.282606    14A2    11.282694    27B1    11.835578  
      27B2    11.835578    44A1    11.911689    45A1    12.137359  
      15A2    12.137475    28B2    12.371025    28B1    12.371025  
      46A1    13.100617    47A1    18.179373    48A1    41.079655  

    Final Occupation by Irrep:
             A1    A2    B1    B2 
    DOCC [     7,    0,    2,    2 ]
    SOCC [     0,    0,    1,    1 ]

  @DF-UKS Final Energy:  -473.38315156061776

   => Energetics <=

    Nuclear Repulsion Energy =             45.7535191576774452
    One-Electron Energy =                -743.6496338688625656
    Two-Electron Energy =                 250.4521084878907118
    DFT Exchange-Correlation Energy =     -26.0399461537206456
    Empirical Dispersion Energy =           0.0000000000000000
    VV10 Nonlocal Energy =                  0.1008008163972964
    Total Energy =                       -473.3831515606177049

  UHF NO Occupations:
  HONO-2 :    2 B1 1.9982682
  HONO-1 :    3 B1 1.0000000
  HONO-0 :    3 B2 1.0000000
  LUNO+0 :    4 B1 0.0017318
  LUNO+1 :    4 B2 0.0017318
  LUNO+2 :    8 A1 0.0003453
  LUNO+3 :    9 A1 0.0002200


Computation Completed


Properties will be evaluated at   0.000000,   0.000000,   0.000000 [a0]

Properties computed using the SCF density matrix

  Nuclear Dipole Moment: [e a0]
     X:     0.0000      Y:     0.0000      Z:    -0.0083

  Electronic Dipole Moment: [e a0]
     X:     0.0000      Y:     0.0000      Z:    -0.6075

  Dipole Moment: [e a0]
     X:     0.0000      Y:     0.0000      Z:    -0.6158     Total:     0.6158

  Dipole Moment: [D]
     X:     0.0000      Y:     0.0000      Z:    -1.5652     Total:     1.5652


*** tstop() called on bp1-compute00048.data.bp.acrc.priv at Tue Apr 27 17:18:15 2021
Module time:
	user time   =     153.80 seconds =       2.56 minutes
	system time =       7.16 seconds =       0.12 minutes
	total time  =          7 seconds =       0.12 minutes
Total time:
	user time   =     938.33 seconds =      15.64 minutes
	system time =      44.75 seconds =       0.75 minutes
	total time  =         42 seconds =       0.70 minutes

  //>>>>>>>>>>>>>>>>>>>>>>>>>>>>>>>>>>>//
  //    Loading displacement 3 of 3    //
  //<<<<<<<<<<<<<<<<<<<<<<<<<<<<<<<<<<<//

*** tstart() called on bp1-compute00048.data.bp.acrc.priv
*** at Tue Apr 27 17:18:15 2021

   => Loading Basis Set <=

    Name: CC-PV(Q+D)Z
    Role: ORBITAL
    Keyword: BASIS
    atoms 1 entry S          line   978 file /work/zw18965/.conda/envs/p4env/share/psi4/basis/cc-pv_qpd_z.gbs 
    atoms 2 entry O          line   349 file /work/zw18965/.conda/envs/p4env/share/psi4/basis/cc-pv_qpd_z.gbs 


         ---------------------------------------------------------
                                   SCF
               by Justin Turney, Rob Parrish, Andy Simmonett
                          and Daniel G. A. Smith
                              UKS Reference
                       24 Threads, 137329 MiB Core
[...]
  Nuclear repulsion =   45.890768308064672

  Charge       = 0
  Multiplicity = 3
  Electrons    = 24
  Nalpha       = 13
  Nbeta        = 11

  ==> Algorithm <==

  SCF Algorithm Type is DF.
  DIIS enabled.
  MOM disabled.
  Fractional occupation disabled.
  Guess Type is SAD.
  Energy threshold   = 1.00e-10
  Density threshold  = 1.00e-10
  Integral threshold = 0.00e+00

  ==> Primary Basis <==

  Basis Set: CC-PV(Q+D)Z
    Blend: CC-PV(Q+D)Z
    Number of shells: 33
    Number of basis function: 119
    Number of Cartesian functions: 150
    Spherical Harmonics?: true
    Max angular momentum: 4

  ==> DFT Potential <==

   => Composite Functional: WB97M-V <= 

    wB97M-V Hyb-GGA Exchange-Correlation Functional

    N. Mardirossian and M. Head-Gordon, J. Chem. Phys. 144, 214110 (2016)

    Deriv               =              1
    GGA                 =           TRUE
    Meta                =           TRUE

    Exchange Hybrid     =           TRUE
    MP2 Hybrid          =          FALSE

   => Exchange-Correlation Functionals <=

    1.0000   wB97M-V exchange-correlation functional

   => Exact (HF) Exchange <=

    0.8500            HF,LR [omega = 0.3000]
    0.1500               HF 

   => VV10 Non-Local Parameters <=

    VV10 B              =     6.0000E+00
    VV10 C              =     1.0000E-02

   => Molecular Quadrature <=

    Radial Scheme          =       TREUTLER
    Pruning Scheme         =           FLAT
    Nuclear Scheme         =       TREUTLER

    BS radius alpha        =              1
    Pruning alpha          =              1
    Radial Points          =             75
    Spherical Points       =            302
    Total Points           =          43670
    Total Blocks           =            401
    Max Points             =            256
    Max Functions          =            119

   => Loading Basis Set <=

    Name: (CC-PV(Q+D)Z AUX)
    Role: JKFIT
    Keyword: DF_BASIS_SCF
    atoms 1 entry S          line   673 file /work/zw18965/.conda/envs/p4env/share/psi4/basis/cc-pvqz-jkfit.gbs 
    atoms 2 entry O          line   253 file /work/zw18965/.conda/envs/p4env/share/psi4/basis/cc-pvqz-jkfit.gbs 

  ==> Pre-Iterations <==

   -------------------------------------------------------
    Irrep   Nso     Nmo     Nalpha   Nbeta   Ndocc  Nsocc
   -------------------------------------------------------
     A1        48      48       0       0       0       0
     A2        15      15       0       0       0       0
     B1        28      28       0       0       0       0
     B2        28      28       0       0       0       0
   -------------------------------------------------------
    Total     119     119      13      11      11       2
   -------------------------------------------------------

  ==> Integral Setup <==

  ==> DiskDFJK: Density-Fitted J/K Matrices <==

    J tasked:                  Yes
    K tasked:                  Yes
    wK tasked:                 Yes
    Omega:               3.000E-01
    OpenMP threads:             24
    Integrals threads:          24
    Memory [MiB]:           102657
    Algorithm:                Core
    Integral Cache:           NONE
    Schwarz Cutoff:          1E-12
    Fitting Condition:       1E-10

   => Auxiliary Basis Set <=

  Basis Set: (CC-PV(Q+D)Z AUX)
    Blend: CC-PVQZ-JKFIT
    Number of shells: 68
    Number of basis function: 254
    Number of Cartesian functions: 333
    Spherical Harmonics?: true
    Max angular momentum: 5

  Cached 100.0% of DFT collocation blocks in 0.332 [GiB].

  Minimum eigenvalue in the overlap matrix is 6.2226242009E-04.
  Using Symmetric Orthogonalization.

  SCF Guess: Superposition of Atomic Densities via on-the-fly atomic UHF.

  ==> Iterations <==

                           Total Energy        Delta E     RMS |[F,P]|

   @DF-UKS iter SAD:  -472.95310084247052   -4.72953e+02   0.00000e+00 
   @DF-UKS iter   1:  -473.29841112006255   -3.45310e-01   7.47998e-03 DIIS
   @DF-UKS iter   2:  -473.20025289196030    9.81582e-02   1.10798e-02 DIIS
   @DF-UKS iter   3:  -473.38172024149708   -1.81467e-01   8.96132e-04 DIIS
   @DF-UKS iter   4:  -473.38294438159545   -1.22414e-03   2.25412e-04 DIIS
   @DF-UKS iter   5:  -473.38313160722521   -1.87226e-04   6.94805e-05 DIIS
   @DF-UKS iter   6:  -473.38315847311463   -2.68659e-05   2.46662e-05 DIIS
   @DF-UKS iter   7:  -473.38316344547331   -4.97236e-06   8.84544e-06 DIIS
   @DF-UKS iter   8:  -473.38316387014112   -4.24668e-07   2.88724e-06 DIIS
   @DF-UKS iter   9:  -473.38316390518872   -3.50476e-08   5.31620e-07 DIIS
   @DF-UKS iter  10:  -473.38316390642041   -1.23168e-09   9.76515e-08 DIIS
   @DF-UKS iter  11:  -473.38316390647066   -5.02496e-11   2.98845e-08 DIIS
   @DF-UKS iter  12:  -473.38316390647407   -3.41061e-12   5.64763e-09 DIIS
   @DF-UKS iter  13:  -473.38316390647407    0.00000e+00   1.44310e-09 DIIS
   @DF-UKS iter  14:  -473.38316390647407    0.00000e+00   3.20086e-10 DIIS
   @DF-UKS iter  15:  -473.38316390647401    5.68434e-14   6.52890e-11 DIIS
  Energy and wave function converged.


  ==> Post-Iterations <==

   @Spin Contamination Metric:   8.110848092E-03
   @S^2 Expected:                2.000000000E+00
   @S^2 Observed:                2.008110848E+00
   @S   Expected:                1.000000000E+00
   @S   Observed:                1.000000000E+00

    Orbital Energies [Eh]
    ---------------------

    Alpha Occupied:                                                       

       1A1   -89.298785     2A1   -19.404299     3A1    -8.206854  
       1B1    -6.117309     1B2    -6.117309     4A1    -6.114210  
       5A1    -1.221536     6A1    -0.800833     2B2    -0.568705  
       2B1    -0.568705     7A1    -0.562979     3B1    -0.354411  
       3B2    -0.354411  

    Alpha Virtual:                                                        

       8A1     0.076503     9A1     0.242457     4B1     0.243215  
       4B2     0.243215    10A1     0.277268    11A1     0.298565  
       1A2     0.298566     5B1     0.399242     5B2     0.399242  
      12A1     0.421905     6B2     0.550349     6B1     0.550349  
      13A1     0.657736    14A1     0.902930     2A2     0.962590  
      15A1     0.962595    16A1     0.968418     3A2     0.968418  
       7B1     0.985157     7B2     0.985157    17A1     1.067635  
       8B1     1.070789     8B2     1.070789     9B1     1.211035  
       9B2     1.211035    10B1     1.260091    10B2     1.260091  
      18A1     1.268622     4A2     1.388443    19A1     1.388446  
      20A1     1.428301    21A1     1.689850    11B2     1.717249  
      11B1     1.717249    22A1     2.034682    12B2     2.481037  
      12B1     2.481037    23A1     2.595860     5A2     2.595870  
      24A1     2.646949    13B1     2.747583    13B2     2.747583  
      14B1     2.822547    14B2     2.822547     6A2     2.827014  
      25A1     2.827020    15B1     2.928291    15B2     2.928291  
      26A1     2.930383     7A2     2.930418    16B1     3.104267  
      16B2     3.104267    27A1     3.133887     8A2     3.171705  
      28A1     3.171732    17B2     3.354570    17B1     3.354570  
      29A1     3.387334    18B1     3.519893    18B2     3.519893  
      30A1     3.577457     9A2     3.825644    31A1     3.825661  
      32A1     3.861662    33A1     4.053988    10A2     4.053999  
      19B2     4.300739    19B1     4.300739    34A1     4.591692  
      20B1     4.676396    20B2     4.676396    35A1     4.783659  
      21B1     5.401231    21B2     5.401231    36A1     7.137408  
      22B1     8.590738    22B2     8.590738    37A1     8.607005  
      38A1     8.642274    11A2     8.642320    12A2     8.895059  
      39A1     8.895234    23B1     8.920995    23B2     8.920995  
      40A1     9.101923    13A2     9.101946    24B2     9.459989  
      24B1     9.459989    41A1     9.747783    25B2    10.027733  
      25B1    10.027733    42A1    10.766169    26B1    10.970586  
      26B2    10.970586    43A1    11.211760    14A2    11.211828  
      27B2    11.792911    27B1    11.792911    44A1    11.879785  
      45A1    12.018158    15A2    12.018262    28B2    12.304845  
      28B1    12.304845    46A1    13.069132    47A1    18.199615  
      48A1    41.070290  

    Beta Occupied:                                                        

       1A1   -89.291522     2A1   -19.382666     3A1    -8.199557  
       4A1    -6.109814     1B1    -6.101560     1B2    -6.101560  
       5A1    -1.182453     6A1    -0.737248     7A1    -0.528106  
       2B1    -0.496826     2B2    -0.496826  

    Beta Virtual:                                                         

       3B1    -0.040166     3B2    -0.040166     8A1     0.093930  
       9A1     0.245835     4B1     0.247098     4B2     0.247098  
      10A1     0.293949     1A2     0.330091    11A1     0.330091  
      12A1     0.429956     5B1     0.436865     5B2     0.436865  
       6B1     0.564016     6B2     0.564016    13A1     0.671988  
      14A1     0.910297    15A1     0.984547     2A2     0.984548  
       3A2     1.001951    16A1     1.001952     7B1     1.004838  
       7B2     1.004838    17A1     1.090693     8B1     1.107126  
       8B2     1.107126     9B2     1.258636     9B1     1.258636  
      10B2     1.291950    10B1     1.291950    18A1     1.295076  
       4A2     1.414605    19A1     1.414614    20A1     1.441800  
      21A1     1.714883    11B1     1.735996    11B2     1.735996  
      22A1     2.063588    12B1     2.529280    12B2     2.529280  
      23A1     2.663893     5A2     2.663908    24A1     2.678302  
      13B2     2.787807    13B1     2.787807    25A1     2.860272  
       6A2     2.860273    14B1     2.875846    14B2     2.875846  
      15B2     2.958095    15B1     2.958095    26A1     3.029515  
       7A2     3.029528    27A1     3.166359    16B1     3.194947  
      16B2     3.194947     8A2     3.238325    28A1     3.238341  
      17B2     3.401519    17B1     3.401519    29A1     3.419705  
      18B2     3.566856    18B1     3.566856    30A1     3.611886  
       9A2     3.878373    31A1     3.878384    32A1     3.892525  
      10A2     4.093439    33A1     4.093446    19B1     4.333417  
      19B2     4.333417    34A1     4.611487    20B2     4.718343  
      20B1     4.718343    35A1     4.802572    21B2     5.455949  
      21B1     5.455949    36A1     7.163962    22B2     8.614065  
      22B1     8.614065    37A1     8.629247    38A1     8.680869  
      11A2     8.680907    12A2     8.971746    39A1     8.971935  
      23B1     8.972516    23B2     8.972516    40A1     9.140717  
      13A2     9.140724    24B1     9.492994    24B2     9.492994  
      41A1     9.777555    25B1    10.090043    25B2    10.090043  
      42A1    10.803802    26B2    11.076894    26B1    11.076894  
      43A1    11.285490    14A2    11.285576    27B1    11.841896  
      27B2    11.841896    44A1    11.910131    45A1    12.137734  
      15A2    12.137850    28B1    12.374417    28B2    12.374417  
      46A1    13.113454    47A1    18.214801    48A1    41.096841  

    Final Occupation by Irrep:
             A1    A2    B1    B2 
    DOCC [     7,    0,    2,    2 ]
    SOCC [     0,    0,    1,    1 ]

  @DF-UKS Final Energy:  -473.38316390647401

   => Energetics <=

    Nuclear Repulsion Energy =             45.8907683080646720
    One-Electron Energy =                -743.9206499190815975
    Two-Electron Energy =                 250.5884913918045243
    DFT Exchange-Correlation Energy =     -26.0425701110651922
    Empirical Dispersion Energy =           0.0000000000000000
    VV10 Nonlocal Energy =                  0.1007964238035678
    Total Energy =                       -473.3831639064740102

  UHF NO Occupations:
  HONO-2 :    2 B2 1.9982862
  HONO-1 :    3 B2 1.0000000
  HONO-0 :    3 B1 1.0000000
  LUNO+0 :    4 B2 0.0017138
  LUNO+1 :    4 B1 0.0017138
  LUNO+2 :    8 A1 0.0003449
  LUNO+3 :    9 A1 0.0002198


Computation Completed


Properties will be evaluated at   0.000000,   0.000000,   0.000000 [a0]

Properties computed using the SCF density matrix

  Nuclear Dipole Moment: [e a0]
     X:     0.0000      Y:     0.0000      Z:    -0.0083

  Electronic Dipole Moment: [e a0]
     X:     0.0000      Y:     0.0000      Z:    -0.6036

  Dipole Moment: [e a0]
     X:     0.0000      Y:     0.0000      Z:    -0.6119     Total:     0.6119

  Dipole Moment: [D]
     X:     0.0000      Y:     0.0000      Z:    -1.5552     Total:     1.5552


*** tstop() called on bp1-compute00048.data.bp.acrc.priv at Tue Apr 27 17:19:40 2021
Module time:
	user time   =     242.44 seconds =       4.04 minutes
	system time =      10.19 seconds =       0.17 minutes
	total time  =         11 seconds =       0.18 minutes
Total time:
	user time   =    2867.52 seconds =      47.79 minutes
	system time =     121.46 seconds =       2.02 minutes
	total time  =        127 seconds =       2.12 minutes

         ----------------------------------------------------------
                                   FINDIF
                     R. A. King and Jonathon Misiewicz
         ---------------------------------------------------------

  Computing second-derivative from energies using projected, 
  symmetry-adapted, cartesian coordinates.

  3 energies passed in, including the reference geometry.
    Using 3-point formula.
    Energy without displacement: -473.3831647280
    Check energies below for precision!
    0: -1 :      -473.3831641616
    0: 1  :      -473.3831639065

-------------------------------------------------------------


  ==> Harmonic Vibrational Analysis <==

  non-mass-weighted Hessian:       Symmetric? True   Hermitian? True   Lin Dep Dim?  5 (0)
  projection of translations (True) and rotations (True) removed 5 degrees of freedom (5)
  total projector:                 Symmetric? True   Hermitian? True   Lin Dep Dim?  5 (5)
  mass-weighted Hessian:           Symmetric? True   Hermitian? True   Lin Dep Dim?  5 (0)
  pre-proj  low-frequency mode:    0.0000i [cm^-1]
  pre-proj  low-frequency mode:    0.0000  [cm^-1]
  pre-proj  low-frequency mode:    0.0000  [cm^-1]
  pre-proj  low-frequency mode:    0.0000  [cm^-1]
  pre-proj  low-frequency mode:    0.0000  [cm^-1]
  pre-proj  all modes:['0.0000i' '0.0000' '0.0000' '0.0000' '0.0000' '1211.1925']
  projected mass-weighted Hessian: Symmetric? True   Hermitian? True   Lin Dep Dim?  5 (5)
  post-proj low-frequency mode:    0.0000  [cm^-1] (TR)
  post-proj low-frequency mode:    0.0000  [cm^-1] (TR)
  post-proj low-frequency mode:    0.0000  [cm^-1] (TR)
  post-proj low-frequency mode:    0.0000  [cm^-1] (TR)
  post-proj low-frequency mode:    0.0000  [cm^-1] (TR)
  post-proj  all modes:['0.0000' '0.0000' '0.0000' '0.0000' '0.0000' '1211.1925']

  Vibration                       6           
  Freq [cm^-1]                1211.1925       
  Irrep                           A1          
  Reduced mass [u]             19.1932        
  Force const [mDyne/A]        16.5891        
  Turning point v=0 [a0]        0.0720        
  RMS dev v=0 [a0 u^1/2]        0.2229        
  Char temp [K]               1742.6363       
  ----------------------------------------------------------------------------------
      1   S                0.00  0.00 -0.45   
      2   O                0.00  0.00  0.89   

  ==> Thermochemistry Components <==

  Entropy, S
    Electronic S            2.183 [cal/(mol K)]        9.134 [J/(mol K)]       0.00347910 [mEh/K] (multiplicity = 3)
    Translational S        37.528 [cal/(mol K)]      157.018 [J/(mol K)]       0.05980487 [mEh/K] (mol. weight = 47.9670 [u], P = 101325.00 [Pa])
    Rotational S           13.226 [cal/(mol K)]       55.336 [J/(mol K)]       0.02107635 [mEh/K] (symmetry no. = 1)
    Vibrational S           0.039 [cal/(mol K)]        0.165 [J/(mol K)]       0.00006292 [mEh/K]
  Total S                  52.976 [cal/(mol K)]      221.653 [J/(mol K)]       0.08442323 [mEh/K]
  Correction S              0.000 [cal/(mol K)]        0.000 [J/(mol K)]       0.00000000 [mEh/K]

  Constant volume heat capacity, Cv
    Electronic Cv           0.000 [cal/(mol K)]        0.000 [J/(mol K)]       0.00000000 [mEh/K]
    Translational Cv        2.981 [cal/(mol K)]       12.472 [J/(mol K)]       0.00475022 [mEh/K]
    Rotational Cv           1.987 [cal/(mol K)]        8.314 [J/(mol K)]       0.00316681 [mEh/K]
    Vibrational Cv          0.198 [cal/(mol K)]        0.827 [J/(mol K)]       0.00031500 [mEh/K]
  Total Cv                  5.166 [cal/(mol K)]       21.613 [J/(mol K)]       0.00823202 [mEh/K]
  Correction Cv             0.000 [cal/(mol K)]        0.000 [J/(mol K)]       0.00000000 [mEh/K]

  Constant pressure heat capacity, Cp
    Electronic Cp           0.000 [cal/(mol K)]        0.000 [J/(mol K)]       0.00000000 [mEh/K]
    Translational Cp        4.968 [cal/(mol K)]       20.786 [J/(mol K)]       0.00791703 [mEh/K]
    Rotational Cp           1.987 [cal/(mol K)]        8.314 [J/(mol K)]       0.00316681 [mEh/K]
    Vibrational Cp          0.198 [cal/(mol K)]        0.827 [J/(mol K)]       0.00031500 [mEh/K]
  Total Cp                  7.153 [cal/(mol K)]       29.928 [J/(mol K)]       0.01139883 [mEh/K]
  Correction Cp             0.000 [cal/(mol K)]        0.000 [J/(mol K)]       0.00000000 [mEh/K]

  ==> Thermochemistry Energy Analysis <==

  Raw electronic energy, E0
  Total E0, Electronic energy at well bottom at 0 [K]                 -473.38316473 [Eh]

  Zero-point energy, ZPE_vib = Sum_i nu_i / 2
    Electronic ZPE          0.000 [kcal/mol]        0.000 [kJ/mol]       0.00000000 [Eh]
    Translational ZPE       0.000 [kcal/mol]        0.000 [kJ/mol]       0.00000000 [Eh]
    Rotational ZPE          0.000 [kcal/mol]        0.000 [kJ/mol]       0.00000000 [Eh]
    Vibrational ZPE         1.731 [kcal/mol]        7.245 [kJ/mol]       0.00275930 [Eh]         605.596 [cm^-1]
  Correction ZPE            1.731 [kcal/mol]        7.245 [kJ/mol]       0.00275930 [Eh]         605.596 [cm^-1]
  Total ZPE, Electronic energy at 0 [K]                               -473.38040543 [Eh]

  Thermal Energy, E (includes ZPE)
    Electronic E            0.000 [kcal/mol]        0.000 [kJ/mol]       0.00000000 [Eh]
    Translational E         0.889 [kcal/mol]        3.718 [kJ/mol]       0.00141628 [Eh]
    Rotational E            0.592 [kcal/mol]        2.479 [kJ/mol]       0.00094418 [Eh]
    Vibrational E           1.742 [kcal/mol]        7.287 [kJ/mol]       0.00277532 [Eh]
  Correction E              3.223 [kcal/mol]       13.484 [kJ/mol]       0.00513578 [Eh]
  Total E, Electronic energy at  298.15 [K]                           -473.37802895 [Eh]

  Enthalpy, H_trans = E_trans + k_B * T
    Electronic H            0.000 [kcal/mol]        0.000 [kJ/mol]       0.00000000 [Eh]
    Translational H         1.481 [kcal/mol]        6.197 [kJ/mol]       0.00236046 [Eh]
    Rotational H            0.592 [kcal/mol]        2.479 [kJ/mol]       0.00094418 [Eh]
    Vibrational H           1.742 [kcal/mol]        7.287 [kJ/mol]       0.00277532 [Eh]
  Correction H              3.815 [kcal/mol]       15.963 [kJ/mol]       0.00607997 [Eh]
  Total H, Enthalpy at  298.15 [K]                                    -473.37708476 [Eh]

  Gibbs free energy, G = H - T * S
    Electronic G           -0.651 [kcal/mol]       -2.723 [kJ/mol]      -0.00103729 [Eh]
    Translational G        -9.708 [kcal/mol]      -40.617 [kJ/mol]      -0.01547036 [Eh]
    Rotational G           -3.351 [kcal/mol]      -14.019 [kJ/mol]      -0.00533973 [Eh]
    Vibrational G           1.730 [kcal/mol]        7.237 [kJ/mol]       0.00275656 [Eh]
  Correction G            -11.980 [kcal/mol]      -50.123 [kJ/mol]      -0.01909082 [Eh]
  Total G, Free enthalpy at  298.15 [K]                               -473.40225555 [Eh]

    Psi4 stopped on: Tuesday, 27 April 2021 05:19PM
    Psi4 wall time for execution: 0:02:07.39

*** Psi4 exiting successfully. Buy a developer a beer!
