
    -----------------------------------------------------------------------
          Psi4: An Open-Source Ab Initio Electronic Structure Package
                               Psi4 1.3.2 release

                         Git: Rev {HEAD} ecbda83 


    R. M. Parrish, L. A. Burns, D. G. A. Smith, A. C. Simmonett,
    A. E. DePrince III, E. G. Hohenstein, U. Bozkaya, A. Yu. Sokolov,
    R. Di Remigio, R. M. Richard, J. F. Gonthier, A. M. James,
    H. R. McAlexander, A. Kumar, M. Saitow, X. Wang, B. P. Pritchard,
    P. Verma, H. F. Schaefer III, K. Patkowski, R. A. King, E. F. Valeev,
    F. A. Evangelista, J. M. Turney, T. D. Crawford, and C. D. Sherrill,
    J. Chem. Theory Comput. 13(7) pp 3185--3197 (2017).
    (doi: 10.1021/acs.jctc.7b00174)


                         Additional Contributions by
    P. Kraus, H. Kruse, M. H. Lechner, M. C. Schieber, R. A. Shaw,
    A. Alenaizan, R. Galvelis, Z. L. Glick, S. Lehtola, and J. P. Misiewicz

    -----------------------------------------------------------------------


    Psi4 started on: Monday, 19 April 2021 04:06PM

    Process ID: 157995
    Host:       bp1-compute00138.data.bp.acrc.priv
    PSIDATADIR: /work/zw18965/.conda/envs/p4env/share/psi4
    Memory:     500.0 MiB
    Threads:    24
    
  ==> Input File <==

--------------------------------------------------------------------------
memory 144 GB

molecule {
0 1
B     0.000025702137  -0.000052552589  -0.198407020528
H    -0.399622606768  -1.029858472420   0.215550091991
H    -0.171134703482   0.990434479161   0.419174884486
H     0.570731623988   0.039476540557  -1.230190221591}

set basis aug-cc-pV(Q+d)Z
 
optimize("MP2")
frequencies("MP2")--------------------------------------------------------------------------

  Memory set to 134.110 GiB by Python driver.
gradient() will perform analytic gradient computation.
    SCF Algorithm Type (re)set to DF.

*** tstart() called on bp1-compute00138.data.bp.acrc.priv
*** at Mon Apr 19 16:06:28 2021

   => Loading Basis Set <=

    Name: AUG-CC-PV(Q+D)Z
    Role: ORBITAL
    Keyword: BASIS
    atoms 1   entry B          line   259 file /work/zw18965/.conda/envs/p4env/share/psi4/basis/aug-cc-pv_qpd_z.gbs 
    atoms 2-4 entry H          line    56 file /work/zw18965/.conda/envs/p4env/share/psi4/basis/aug-cc-pv_qpd_z.gbs 


         ---------------------------------------------------------
                                   SCF
               by Justin Turney, Rob Parrish, Andy Simmonett
                          and Daniel G. A. Smith
                              RHF Reference
                       24 Threads, 137329 MiB Core
         ---------------------------------------------------------

  ==> Geometry <==

    Molecular point group: c1
    Full point group: C1

    Geometry (in Angstrom), charge = 0, multiplicity = 1:

       Center              X                  Y                   Z               Mass       
    ------------   -----------------  -----------------  -----------------  -----------------
         B            0.000007382502    -0.000015096789     0.000017537100    11.009305360000
         H           -0.399640926403    -1.029821016620     0.413974649619     1.007825032230
         H           -0.171153023117     0.990471934961     0.617599442114     1.007825032230
         H            0.570713304353     0.039513996357    -1.031765663963     1.007825032230

  Running in c1 symmetry.

  Rotational constants: A =      8.01264  B =      8.01225  C =      4.00622 [cm^-1]
  Rotational constants: A = 240212.77897  B = 240201.18959  C = 120103.49291 [MHz]
  Nuclear repulsion =    7.505380673888212

  Charge       = 0
  Multiplicity = 1
  Electrons    = 8
  Nalpha       = 4
  Nbeta        = 4

  ==> Algorithm <==

  SCF Algorithm Type is DF.
  DIIS enabled.
  MOM disabled.
  Fractional occupation disabled.
  Guess Type is SAD.
  Energy threshold   = 1.00e-10
  Density threshold  = 1.00e-10
  Integral threshold = 0.00e+00

  ==> Primary Basis <==

  Basis Set: AUG-CC-PV(Q+D)Z
    Blend: AUG-CC-PV(Q+D)Z
    Number of shells: 62
    Number of basis function: 218
    Number of Cartesian functions: 270
    Spherical Harmonics?: true
    Max angular momentum: 4

   => Loading Basis Set <=

    Name: (AUG-CC-PV(Q+D)Z AUX)
    Role: JKFIT
    Keyword: DF_BASIS_SCF
    atoms 1   entry B          line   108 file /work/zw18965/.conda/envs/p4env/share/psi4/basis/aug-cc-pvqz-jkfit.gbs 
    atoms 2-4 entry H          line    70 file /work/zw18965/.conda/envs/p4env/share/psi4/basis/aug-cc-pvqz-jkfit.gbs 

  ==> Pre-Iterations <==

   -------------------------------------------------------
    Irrep   Nso     Nmo     Nalpha   Nbeta   Ndocc  Nsocc
   -------------------------------------------------------
     A        218     218       0       0       0       0
   -------------------------------------------------------
    Total     218     218       4       4       4       0
   -------------------------------------------------------

  ==> Integral Setup <==

  DFHelper Memory: AOs need 0.152 GiB; user supplied 100.583 GiB. Using in-core AOs.

  ==> MemDFJK: Density-Fitted J/K Matrices <==

    J tasked:                   Yes
    K tasked:                   Yes
    wK tasked:                   No
    OpenMP threads:              24
    Memory [MiB]:            102996
    Algorithm:                 Core
    Schwarz Cutoff:           1E-12
    Mask sparsity (%):       0.0000
    Fitting Condition:        1E-10

   => Auxiliary Basis Set <=

  Basis Set: (AUG-CC-PV(Q+D)Z AUX)
    Blend: AUG-CC-PVQZ-JKFIT
    Number of shells: 88
    Number of basis function: 370
    Number of Cartesian functions: 501
    Spherical Harmonics?: true
    Max angular momentum: 5

  Minimum eigenvalue in the overlap matrix is 2.6448533737E-05.
  Using Symmetric Orthogonalization.

  SCF Guess: Superposition of Atomic Densities via on-the-fly atomic UHF.

  ==> Iterations <==

                           Total Energy        Delta E     RMS |[F,P]|

   @DF-RHF iter SAD:   -25.65400027525618   -2.56540e+01   0.00000e+00 
   @DF-RHF iter   1:   -26.39260682621520   -7.38607e-01   4.71482e-04 DIIS
   @DF-RHF iter   2:   -26.40134299434977   -8.73617e-03   1.06958e-04 DIIS
   @DF-RHF iter   3:   -26.40200937195135   -6.66378e-04   2.75358e-05 DIIS
   @DF-RHF iter   4:   -26.40206332900228   -5.39571e-05   3.87341e-06 DIIS
   @DF-RHF iter   5:   -26.40206439924855   -1.07025e-06   3.72362e-07 DIIS
   @DF-RHF iter   6:   -26.40206440926269   -1.00141e-08   2.71281e-08 DIIS
   @DF-RHF iter   7:   -26.40206440931236   -4.96705e-11   2.66101e-09 DIIS
   @DF-RHF iter   8:   -26.40206440931305   -6.89226e-13   3.57629e-10 DIIS
   @DF-RHF iter   9:   -26.40206440931297    7.81597e-14   2.93315e-11 DIIS
  Energy and wave function converged.


  ==> Post-Iterations <==

    Orbital Energies [Eh]
    ---------------------

    Doubly Occupied:                                                      

       1A     -7.607395     2A     -0.706847     3A     -0.500400  
       4A     -0.500358  

    Virtual:                                                              

       5A      0.028474     6A      0.028480     7A      0.036558  
       8A      0.036560     9A      0.077742    10A      0.077745  
      11A      0.085986    12A      0.102539    13A      0.125520  
      14A      0.125524    15A      0.135201    16A      0.140675  
      17A      0.140678    18A      0.216826    19A      0.216830  
      20A      0.237055    21A      0.259743    22A      0.260860  
      23A      0.278360    24A      0.278362    25A      0.284748  
      26A      0.286928    27A      0.286934    28A      0.315550  
      29A      0.315550    30A      0.334397    31A      0.395402  
      32A      0.431693    33A      0.431700    34A      0.485270  
      35A      0.485287    36A      0.514730    37A      0.523055  
      38A      0.523061    39A      0.570600    40A      0.570616  
      41A      0.570627    42A      0.600852    43A      0.600854  
      44A      0.612470    45A      0.616624    46A      0.709630  
      47A      0.734602    48A      0.760023    49A      0.760031  
      50A      0.771463    51A      0.799339    52A      0.799373  
      53A      0.802061    54A      0.802069    55A      0.870315  
      56A      0.891714    57A      0.891715    58A      0.923771  
      59A      0.923773    60A      0.924909    61A      0.949395  
      62A      0.949399    63A      0.961154    64A      1.051975  
      65A      1.148555    66A      1.148568    67A      1.192518  
      68A      1.192529    69A      1.220727    70A      1.266486  
      71A      1.286437    72A      1.286494    73A      1.292733  
      74A      1.519202    75A      1.519203    76A      1.531803  
      77A      1.534894    78A      1.534920    79A      1.555424  
      80A      1.570817    81A      1.570833    82A      1.609394  
      83A      1.629882    84A      1.629886    85A      1.693383  
      86A      1.726500    87A      1.726526    88A      1.815920  
      89A      1.815941    90A      1.828426    91A      1.828461  
      92A      1.846732    93A      1.865947    94A      1.906714  
      95A      1.945777    96A      1.945824    97A      1.989966  
      98A      2.022394    99A      2.026723   100A      2.026733  
     101A      2.064066   102A      2.135130   103A      2.135145  
     104A      2.137890   105A      2.137902   106A      2.216357  
     107A      2.216360   108A      2.233644   109A      2.244995  
     110A      2.265292   111A      2.265301   112A      2.283566  
     113A      2.283587   114A      2.367999   115A      2.372026  
     116A      2.391455   117A      2.402673   118A      2.402702  
     119A      2.783357   120A      2.916850   121A      2.917054  
     122A      3.046553   123A      3.163189   124A      3.163218  
     125A      3.217552   126A      3.217565   127A      3.308364  
     128A      3.308377   129A      3.371281   130A      3.388361  
     131A      3.397151   132A      3.398117   133A      3.398166  
     134A      3.432948   135A      3.432958   136A      3.535193  
     137A      3.609003   138A      3.609089   139A      3.681320  
     140A      3.681417   141A      3.785691   142A      3.919884  
     143A      4.050025   144A      4.189254   145A      4.189275  
     146A      4.217436   147A      4.217445   148A      4.248074  
     149A      4.331480   150A      4.369018   151A      4.378075  
     152A      4.378085   153A      4.458885   154A      4.458923  
     155A      4.619805   156A      4.619812   157A      4.827034  
     158A      4.969228   159A      5.218662   160A      5.218686  
     161A      5.347495   162A      5.347542   163A      5.370387  
     164A      5.494416   165A      5.494480   166A      5.525821  
     167A      5.585789   168A      6.414045   169A      6.414152  
     170A      6.707930   171A      6.766007   172A      6.766039  
     173A      6.919613   174A      6.936826   175A      6.936830  
     176A      7.190692   177A      7.190721   178A      7.539236  
     179A      7.567876   180A      7.568068   181A      7.867907  
     182A      7.867933   183A      7.879779   184A      7.879852  
     185A      7.913813   186A      8.066466   187A      8.202298  
     188A      8.202391   189A      8.235614   190A      8.258589  
     191A      8.520622   192A      8.688739   193A      8.688868  
     194A      8.985018   195A      8.985061   196A      9.129808  
     197A      9.129936   198A      9.163036   199A      9.186489  
     200A      9.186638   201A      9.216769   202A      9.418591  
     203A      9.464802   204A      9.493364   205A      9.493468  
     206A      9.506367   207A      9.722210   208A      9.724078  
     209A      9.724345   210A      9.973216   211A     10.085011  
     212A     10.085114   213A     10.577484   214A     10.577536  
     215A     10.694937   216A     11.633236   217A     11.633788  
     218A     19.751539  

    Final Occupation by Irrep:
              A 
    DOCC [     4 ]

  @DF-RHF Final Energy:   -26.40206440931297

   => Energetics <=

    Nuclear Repulsion Energy =              7.5053806738882116
    One-Electron Energy =                 -49.1848922753322739
    Two-Electron Energy =                  15.2774471921310919
    Total Energy =                        -26.4020644093129704

Computation Completed


Properties will be evaluated at   0.000000,   0.000000,   0.000000 [a0]

Properties computed using the SCF density matrix

  Nuclear Dipole Moment: [e a0]
     X:    -0.0001      Y:     0.0002      Z:    -0.0002

  Electronic Dipole Moment: [e a0]
     X:     0.0001      Y:    -0.0002      Z:     0.0003

  Dipole Moment: [e a0]
     X:     0.0000      Y:    -0.0001      Z:     0.0001     Total:     0.0001

  Dipole Moment: [D]
     X:     0.0001      Y:    -0.0002      Z:     0.0002     Total:     0.0003


*** tstop() called on bp1-compute00138.data.bp.acrc.priv at Mon Apr 19 16:06:29 2021
Module time:
	user time   =      27.55 seconds =       0.46 minutes
	system time =       1.50 seconds =       0.03 minutes
	total time  =          1 seconds =       0.02 minutes
Total time:
	user time   =      27.55 seconds =       0.46 minutes
	system time =       1.50 seconds =       0.03 minutes
	total time  =          1 seconds =       0.02 minutes

*** tstart() called on bp1-compute00138.data.bp.acrc.priv
*** at Mon Apr 19 16:06:29 2021


  //>>>>>>>>>>>>>>>>>>>>>>>>>>>>>>>>>>>//
  //               DFMP2               //
  //<<<<<<<<<<<<<<<<<<<<<<<<<<<<<<<<<<<//

   => Loading Basis Set <=

    Name: (AUG-CC-PV(Q+D)Z AUX)
    Role: RIFIT
    Keyword: DF_BASIS_MP2
    atoms 1   entry B          line   110 file /work/zw18965/.conda/envs/p4env/share/psi4/basis/aug-cc-pvqz-ri.gbs 
    atoms 2-4 entry H          line    30 file /work/zw18965/.conda/envs/p4env/share/psi4/basis/aug-cc-pvqz-ri.gbs 

	 --------------------------------------------------------
	                          DF-MP2                         
	      2nd-Order Density-Fitted Moller-Plesset Theory     
	              RMP2 Wavefunction,  24 Threads             
	                                                         
	        Rob Parrish, Justin Turney, Andy Simmonett,      
	           Ed Hohenstein, and C. David Sherrill          
	 --------------------------------------------------------

   => Auxiliary Basis Set <=

  Basis Set: (AUG-CC-PV(Q+D)Z AUX)
    Blend: AUG-CC-PVQZ-RI
    Number of shells: 96
    Number of basis function: 408
    Number of Cartesian functions: 552
    Spherical Harmonics?: true
    Max angular momentum: 5

	 --------------------------------------------------------
	                 NBF =   218, NAUX =   408
	 --------------------------------------------------------
	   CLASS    FOCC     OCC    AOCC    AVIR     VIR    FVIR
	   PAIRS       0       4       4     214     214       0
	 --------------------------------------------------------

  DFHelper Memory: AOs need 0.152 GiB; user supplied 100.583 GiB. Using in-core AOs.


         ------------------------------------------------------------
                                     CPHF                           
                                  Rob Parrish                       
         ------------------------------------------------------------

  ==> Geometry <==

    Molecular point group: c1
    Full point group: C1

    Geometry (in Angstrom), charge = 0, multiplicity = 1:

       Center              X                  Y                   Z               Mass       
    ------------   -----------------  -----------------  -----------------  -----------------
         B            0.000007382502    -0.000015096789     0.000017537100    11.009305360000
         H           -0.399640926403    -1.029821016620     0.413974649619     1.007825032230
         H           -0.171153023117     0.990471934961     0.617599442114     1.007825032230
         H            0.570713304353     0.039513996357    -1.031765663963     1.007825032230

  Nuclear repulsion =    7.505380673888212
  Reference energy  =  -26.402064409312970

  ==> Basis Set <==

  Basis Set: AUG-CC-PV(Q+D)Z
    Blend: AUG-CC-PV(Q+D)Z
    Number of shells: 62
    Number of basis function: 218
    Number of Cartesian functions: 270
    Spherical Harmonics?: true
    Max angular momentum: 4

  ==> CGRSolver (by Rob Parrish) <==

   Number of roots    =         1
   Preconditioning    =    JACOBI
   Convergence cutoff =     1E-06
   Maximum iterations =       100

  ==> CPHFRHamiltonian (by Rob Parrish) <== 

  ==> MemDFJK: Density-Fitted J/K Matrices <==

    J tasked:                   Yes
    K tasked:                   Yes
    wK tasked:                   No
    OpenMP threads:              24
    Memory [MiB]:            102996
    Algorithm:                 Core
    Schwarz Cutoff:           1E-12
    Mask sparsity (%):       0.0000
    Fitting Condition:        1E-10

   => Auxiliary Basis Set <=

  Basis Set: (AUG-CC-PV(Q+D)Z AUX)
    Blend: AUG-CC-PVQZ-JKFIT
    Number of shells: 88
    Number of basis function: 370
    Number of Cartesian functions: 501
    Spherical Harmonics?: true
    Max angular momentum: 5

  ==> CPHF Iterations <==

  => Iterations <=

             Iter  Converged  Remaining    Residual
  CGR           1          0          1   3.646E-02
  CGR           2          0          1   5.810E-03
  CGR           3          0          1   7.835E-04
  CGR           4          0          1   5.695E-05
  CGR           5          0          1   5.459E-06
  CGR           6          1          0   5.931E-07

    CGRSolver converged.

  ==> DFCorrGrad: Density-Fitted Correlated Gradients <==

    OpenMP threads:             24
    Integrals threads:          24
    Memory [GiB]:          100.583
    Schwarz Cutoff:          0E+00
    Fitting Condition:       1E-10

   => Auxiliary Basis Set <=

  Basis Set: (AUG-CC-PV(Q+D)Z AUX)
    Blend: AUG-CC-PVQZ-JKFIT
    Number of shells: 88
    Number of basis function: 370
    Number of Cartesian functions: 501
    Spherical Harmonics?: true
    Max angular momentum: 5

	-----------------------------------------------------------
	 ==================> DF-MP2 Energies <==================== 
	-----------------------------------------------------------
	 Reference Energy          =     -26.4020644093129704 [Eh]
	 Singles Energy            =      -0.0000000000000000 [Eh]
	 Same-Spin Energy          =      -0.0145878498716074 [Eh]
	 Opposite-Spin Energy      =      -0.1323105444612201 [Eh]
	 Correlation Energy        =      -0.1468983943328275 [Eh]
	 Total Energy              =     -26.5489628036457965 [Eh]
	-----------------------------------------------------------
	 ================> DF-SCS-MP2 Energies <================== 
	-----------------------------------------------------------
	 SCS Same-Spin Scale       =       0.3333333333333333 [-]
	 SCS Opposite-Spin Scale   =       1.2000000000000000 [-]
	 SCS Same-Spin Energy      =      -0.0048626166238691 [Eh]
	 SCS Opposite-Spin Energy  =      -0.1587726533534641 [Eh]
	 SCS Correlation Energy    =      -0.1636352699773333 [Eh]
	 SCS Total Energy          =     -26.5656996792903044 [Eh]
	-----------------------------------------------------------


  -Total Gradient:
     Atom            X                  Y                   Z
    ------   -----------------  -----------------  -----------------
       1       -0.000009037436    -0.000044767619     0.000041642771
       2        0.000446051919     0.001161547214    -0.000471421679
       3        0.000186023734    -0.001080844525    -0.000685691422
       4       -0.000623038216    -0.000035935069     0.001115470329


*** tstop() called on bp1-compute00138.data.bp.acrc.priv at Mon Apr 19 16:06:36 2021
Module time:
	user time   =      77.97 seconds =       1.30 minutes
	system time =       9.34 seconds =       0.16 minutes
	total time  =          7 seconds =       0.12 minutes
Total time:
	user time   =     105.54 seconds =       1.76 minutes
	system time =      10.84 seconds =       0.18 minutes
	total time  =          8 seconds =       0.13 minutes

			-----------------------------------------
			 OPTKING 2.0: for geometry optimizations 
			  - R.A. King,  Bethel University        
			-----------------------------------------

	Internal coordinates to be generated automatically.
	Detected frag 1 with atoms:  1 2 3 4
	---Fragment 1 Bond Connectivity---
	 1 : 2 3 4
	 2 : 1
	 3 : 1
	 4 : 1

	---Fragment 1 Geometry and Gradient---
	 B           0.0000139509       -0.0000285288        0.0000331403
	 H          -0.7552118994       -1.9460796797        0.7822987107
	 H          -0.3234323392        1.8717206920        1.1670938008
	 H           1.0784918414        0.0746706312       -1.9497545305
	            -0.0000090374       -0.0000447676        0.0000416428
	             0.0004460519        0.0011615472       -0.0004714217
	             0.0001860237       -0.0010808445       -0.0006856914
	            -0.0006230382       -0.0000359351        0.0011154703

	Previous optimization step data not found.  Starting new optimization.

	---Fragment 1 Intrafragment Coordinates---
	 - Coordinate -           - BOHR/RAD -       - ANG/DEG -
	 R(1,2)           =         2.229220	       1.179652
	 R(1,3)           =         2.229371	       1.179732
	 R(1,4)           =         2.229432	       1.179765
	 B(2,1,3)         =         2.094492	     120.005524
	 B(2,1,4)         =         2.094434	     120.002233
	 B(3,1,4)         =         2.094260	     119.992242

	Current energy   :       -26.5489628036

	Generating empirical Hessian (Schlegel '84) for each fragment.
	Taking RFO optimization step.
	Going to follow RFO solution 1.
	Using RFO vector 1.
	Norm of target step-size    0.49348
	Projected energy change by RFO approximation:        -0.0409554643

	Back-transformation to cartesian coordinates...
	Could not converge backtransformation.
	Using first guess instead.

	--- Internal Coordinate Step in ANG or DEG, aJ/ANG or AJ/DEG ---
	 ---------------------------------------------------------------------------
	   Coordinate                Previous        Force       Change         New 
	   ----------                --------       ------       ------       ------
	    1 R(1,2)          =      1.179652     0.010962  1454.996469  1456.176121
	    2 R(1,3)          =      1.179732     0.010656  1454.935103  1456.114835
	    3 R(1,4)          =      1.179765     0.010530  1454.912994  1456.092759
	    4 B(2,1,3)        =    120.005524     0.004585  -119.918362     0.087162
	    5 B(2,1,4)        =    120.002233     0.004585  -119.915071     0.087162
	    6 B(3,1,4)        =    119.992242     0.004586  -119.905078     0.087164
