
    -----------------------------------------------------------------------
          Psi4: An Open-Source Ab Initio Electronic Structure Package
                               Psi4 1.3.2 release

                         Git: Rev {HEAD} ecbda83 


    R. M. Parrish, L. A. Burns, D. G. A. Smith, A. C. Simmonett,
    A. E. DePrince III, E. G. Hohenstein, U. Bozkaya, A. Yu. Sokolov,
    R. Di Remigio, R. M. Richard, J. F. Gonthier, A. M. James,
    H. R. McAlexander, A. Kumar, M. Saitow, X. Wang, B. P. Pritchard,
    P. Verma, H. F. Schaefer III, K. Patkowski, R. A. King, E. F. Valeev,
    F. A. Evangelista, J. M. Turney, T. D. Crawford, and C. D. Sherrill,
    J. Chem. Theory Comput. 13(7) pp 3185--3197 (2017).
    (doi: 10.1021/acs.jctc.7b00174)


                         Additional Contributions by
    P. Kraus, H. Kruse, M. H. Lechner, M. C. Schieber, R. A. Shaw,
    A. Alenaizan, R. Galvelis, Z. L. Glick, S. Lehtola, and J. P. Misiewicz

    -----------------------------------------------------------------------


    Psi4 started on: Monday, 19 April 2021 04:12PM

    Process ID: 2973
    Host:       bp1-compute00143.data.bp.acrc.priv
    PSIDATADIR: /work/zw18965/.conda/envs/p4env/share/psi4
    Memory:     500.0 MiB
    Threads:    24
    
  ==> Input File <==

--------------------------------------------------------------------------
memory 144 GB

molecule {
0 1
C    -0.657620034885  -0.052000958615  -0.000252973166
C     0.657568519484   0.052010499680   0.000276600928
H    -1.240721308472   0.001619980779  -0.910816015914
H    -1.225741740994  -0.196853731952   0.909839302952
H     1.225686431392   0.196845730793  -0.909810155871
H     1.240620717176  -0.001638115682   0.910864901305}

set basis aug-cc-pV(Q+d)Z
 
optimize("MP2")
frequencies("MP2")--------------------------------------------------------------------------

  Memory set to 134.110 GiB by Python driver.
gradient() will perform analytic gradient computation.
    SCF Algorithm Type (re)set to DF.

*** tstart() called on bp1-compute00143.data.bp.acrc.priv
*** at Mon Apr 19 16:12:10 2021

   => Loading Basis Set <=

    Name: AUG-CC-PV(Q+D)Z
    Role: ORBITAL
    Keyword: BASIS
    atoms 1-2 entry C          line   319 file /work/zw18965/.conda/envs/p4env/share/psi4/basis/aug-cc-pv_qpd_z.gbs 
    atoms 3-6 entry H          line    56 file /work/zw18965/.conda/envs/p4env/share/psi4/basis/aug-cc-pv_qpd_z.gbs 


         ---------------------------------------------------------
                                   SCF
               by Justin Turney, Rob Parrish, Andy Simmonett
                          and Daniel G. A. Smith
                              RHF Reference
                       24 Threads, 137329 MiB Core
         ---------------------------------------------------------

  ==> Geometry <==

    Molecular point group: c1
    Full point group: C1

    Geometry (in Angstrom), charge = 0, multiplicity = 1:

       Center              X                  Y                   Z               Mass       
    ------------   -----------------  -----------------  -----------------  -----------------
         C           -0.657592376316    -0.052004103393    -0.000265893588    12.000000000000
         C            0.657596178053     0.052007354902     0.000263680506    12.000000000000
         H           -1.240693649903     0.001616836001    -0.910828936336     1.007825032230
         H           -1.225714082425    -0.196856876730     0.909826382530     1.007825032230
         H            1.225714089961     0.196842586015    -0.909823076293     1.007825032230
         H            1.240648375745    -0.001641260460     0.910851980883     1.007825032230

  Running in c1 symmetry.

  Rotational constants: A =      4.98645  B =      1.01477  C =      0.84318 [cm^-1]
  Rotational constants: A = 149489.99355  B =  30421.97057  C =  25277.80859 [MHz]
  Nuclear repulsion =   33.550558445103142

  Charge       = 0
  Multiplicity = 1
  Electrons    = 16
  Nalpha       = 8
  Nbeta        = 8

  ==> Algorithm <==

  SCF Algorithm Type is DF.
  DIIS enabled.
  MOM disabled.
  Fractional occupation disabled.
  Guess Type is SAD.
  Energy threshold   = 1.00e-10
  Density threshold  = 1.00e-10
  Integral threshold = 0.00e+00

  ==> Primary Basis <==

  Basis Set: AUG-CC-PV(Q+D)Z
    Blend: AUG-CC-PV(Q+D)Z
    Number of shells: 96
    Number of basis function: 344
    Number of Cartesian functions: 430
    Spherical Harmonics?: true
    Max angular momentum: 4

   => Loading Basis Set <=

    Name: (AUG-CC-PV(Q+D)Z AUX)
    Role: JKFIT
    Keyword: DF_BASIS_SCF
    atoms 1-2 entry C          line   178 file /work/zw18965/.conda/envs/p4env/share/psi4/basis/aug-cc-pvqz-jkfit.gbs 
    atoms 3-6 entry H          line    70 file /work/zw18965/.conda/envs/p4env/share/psi4/basis/aug-cc-pvqz-jkfit.gbs 

  ==> Pre-Iterations <==

   -------------------------------------------------------
    Irrep   Nso     Nmo     Nalpha   Nbeta   Ndocc  Nsocc
   -------------------------------------------------------
     A        344     344       0       0       0       0
   -------------------------------------------------------
    Total     344     344       8       8       8       0
   -------------------------------------------------------

  ==> Integral Setup <==

  DFHelper Memory: AOs need 0.570 GiB; user supplied 100.583 GiB. Using in-core AOs.

  ==> MemDFJK: Density-Fitted J/K Matrices <==

    J tasked:                   Yes
    K tasked:                   Yes
    wK tasked:                   No
    OpenMP threads:              24
    Memory [MiB]:            102996
    Algorithm:                 Core
    Schwarz Cutoff:           1E-12
    Mask sparsity (%):       0.2873
    Fitting Condition:        1E-10

   => Auxiliary Basis Set <=

  Basis Set: (AUG-CC-PV(Q+D)Z AUX)
    Blend: AUG-CC-PVQZ-JKFIT
    Number of shells: 140
    Number of basis function: 588
    Number of Cartesian functions: 800
    Spherical Harmonics?: true
    Max angular momentum: 5

  Minimum eigenvalue in the overlap matrix is 2.9454656082E-06.
  Using Symmetric Orthogonalization.

  SCF Guess: Superposition of Atomic Densities via on-the-fly atomic UHF.

  ==> Iterations <==

                           Total Energy        Delta E     RMS |[F,P]|

   @DF-RHF iter SAD:   -77.28838076645074   -7.72884e+01   0.00000e+00 
   @DF-RHF iter   1:   -77.98730061078028   -6.98920e-01   1.10535e-03 DIIS
   @DF-RHF iter   2:   -78.05662572489172   -6.93251e-02   4.58642e-04 DIIS
   @DF-RHF iter   3:   -78.06907455798981   -1.24488e-02   6.81584e-05 DIIS
   @DF-RHF iter   4:   -78.06965479049208   -5.80233e-04   6.87038e-06 DIIS
   @DF-RHF iter   5:   -78.06966153069418   -6.74020e-06   8.64486e-07 DIIS
   @DF-RHF iter   6:   -78.06966164458942   -1.13895e-07   9.99921e-08 DIIS
   @DF-RHF iter   7:   -78.06966164600972   -1.42030e-09   1.75660e-08 DIIS
   @DF-RHF iter   8:   -78.06966164605475   -4.50342e-11   2.32951e-09 DIIS
   @DF-RHF iter   9:   -78.06966164605556   -8.10019e-13   3.25854e-10 DIIS
   @DF-RHF iter  10:   -78.06966164605564   -7.10543e-14   1.12181e-10 DIIS
   @DF-RHF iter  11:   -78.06966164605568   -4.26326e-14   3.85929e-11 DIIS
  Energy and wave function converged.


  ==> Post-Iterations <==

    Orbital Energies [Eh]
    ---------------------

    Doubly Occupied:                                                      

       1A    -11.228721     2A    -11.226876     3A     -1.037442  
       4A     -0.793437     5A     -0.642455     6A     -0.593943  
       7A     -0.503790     8A     -0.380647  

    Virtual:                                                              

       9A      0.029227    10A      0.036111    11A      0.038358  
      12A      0.052960    13A      0.080955    14A      0.082689  
      15A      0.089505    16A      0.105439    17A      0.130183  
      18A      0.130609    19A      0.145828    20A      0.157093  
      21A      0.161941    22A      0.177629    23A      0.200908  
      24A      0.209443    25A      0.239448    26A      0.246730  
      27A      0.252654    28A      0.252847    29A      0.267579  
      30A      0.274600    31A      0.278675    32A      0.303052  
      33A      0.317754    34A      0.321837    35A      0.324136  
      36A      0.335435    37A      0.341883    38A      0.343541  
      39A      0.358709    40A      0.359329    41A      0.360680  
      42A      0.374554    43A      0.395763    44A      0.412874  
      45A      0.445844    46A      0.452283    47A      0.468579  
      48A      0.514842    49A      0.517633    50A      0.530767  
      51A      0.541144    52A      0.569458    53A      0.584026  
      54A      0.589528    55A      0.618619    56A      0.621497  
      57A      0.627198    58A      0.679194    59A      0.691093  
      60A      0.699252    61A      0.706214    62A      0.712907  
      63A      0.715334    64A      0.722524    65A      0.723238  
      66A      0.729494    67A      0.740160    68A      0.767738  
      69A      0.769958    70A      0.794783    71A      0.835669  
      72A      0.839602    73A      0.850486    74A      0.850861  
      75A      0.860246    76A      0.875863    77A      0.876666  
      78A      0.887127    79A      0.888493    80A      0.953699  
      81A      0.969653    82A      0.987585    83A      1.011139  
      84A      1.022426    85A      1.032973    86A      1.048502  
      87A      1.081560    88A      1.129191    89A      1.134442  
      90A      1.179710    91A      1.185794    92A      1.192285  
      93A      1.195221    94A      1.230442    95A      1.234333  
      96A      1.280973    97A      1.292492    98A      1.297046  
      99A      1.301190   100A      1.317342   101A      1.328339  
     102A      1.339931   103A      1.411510   104A      1.441608  
     105A      1.451971   106A      1.482393   107A      1.501316  
     108A      1.503385   109A      1.543251   110A      1.545137  
     111A      1.604470   112A      1.607404   113A      1.660932  
     114A      1.679173   115A      1.714037   116A      1.721199  
     117A      1.725469   118A      1.730491   119A      1.798997  
     120A      1.799582   121A      1.815030   122A      1.825102  
     123A      1.836342   124A      1.883149   125A      1.886154  
     126A      1.948443   127A      1.962438   128A      1.962936  
     129A      1.982935   130A      1.991004   131A      1.998976  
     132A      2.013459   133A      2.051548   134A      2.073969  
     135A      2.079757   136A      2.083186   137A      2.089421  
     138A      2.103335   139A      2.118812   140A      2.121951  
     141A      2.136117   142A      2.138671   143A      2.200570  
     144A      2.201647   145A      2.257885   146A      2.258261  
     147A      2.278046   148A      2.284662   149A      2.321218  
     150A      2.354398   151A      2.378663   152A      2.386691  
     153A      2.387430   154A      2.398227   155A      2.418338  
     156A      2.442065   157A      2.442296   158A      2.449607  
     159A      2.454744   160A      2.487893   161A      2.525120  
     162A      2.531108   163A      2.535390   164A      2.575088  
     165A      2.652363   166A      2.652534   167A      2.694849  
     168A      2.697840   169A      2.724528   170A      2.728141  
     171A      2.809834   172A      2.811877   173A      2.858919  
     174A      2.884910   175A      2.899153   176A      2.914277  
     177A      2.956511   178A      2.970477   179A      3.000660  
     180A      3.031903   181A      3.039620   182A      3.064535  
     183A      3.103043   184A      3.142578   185A      3.188527  
     186A      3.312568   187A      3.316517   188A      3.388795  
     189A      3.413196   190A      3.464443   191A      3.639502  
     192A      3.652711   193A      3.655743   194A      3.670748  
     195A      3.700491   196A      3.731975   197A      3.738114  
     198A      3.781282   199A      3.800281   200A      3.835211  
     201A      3.881541   202A      3.893237   203A      3.945594  
     204A      3.975573   205A      4.006956   206A      4.036746  
     207A      4.048889   208A      4.103667   209A      4.184850  
     210A      4.199529   211A      4.227636   212A      4.262591  
     213A      4.313610   214A      4.395917   215A      4.399394  
     216A      4.407486   217A      4.490927   218A      4.506645  
     219A      4.519296   220A      4.569238   221A      4.583246  
     222A      4.663625   223A      4.757161   224A      4.829028  
     225A      4.874050   226A      5.036513   227A      5.097575  
     228A      5.180432   229A      5.215534   230A      5.430706  
     231A      5.823550   232A      5.855357   233A      5.895212  
     234A      5.972825   235A      5.989505   236A      5.994555  
     237A      6.024759   238A      6.025222   239A      6.251867  
     240A      6.252073   241A      6.283507   242A      6.307767  
     243A      6.338542   244A      6.450874   245A      6.467866  
     246A      6.472862   247A      6.507294   248A      6.534502  
     249A      6.608729   250A      6.633337   251A      6.637190  
     252A      6.665125   253A      6.686923   254A      6.720458  
     255A      6.754321   256A      6.801879   257A      6.843673  
     258A      6.883320   259A      6.934550   260A      6.999616  
     261A      7.005088   262A      7.014031   263A      7.053794  
     264A      7.091554   265A      7.121051   266A      7.194580  
     267A      7.247718   268A      7.291951   269A      7.306515  
     270A      7.325061   271A      7.345044   272A      7.453976  
     273A      7.459779   274A      7.492014   275A      7.624727  
     276A      7.638296   277A      7.752094   278A      7.774872  
     279A      7.780904   280A      7.871840   281A      7.993829  
     282A      7.998837   283A      8.009900   284A      8.027086  
     285A      8.168289   286A      8.266054   287A      8.294402  
     288A      8.311346   289A      8.392395   290A      8.421355  
     291A      8.510924   292A      8.578460   293A      8.604774  
     294A      8.718604   295A      8.738732   296A      8.772280  
     297A      8.811000   298A      8.860076   299A      8.882531  
     300A      8.908823   301A      8.949307   302A      9.049338  
     303A      9.091567   304A      9.139913   305A      9.162056  
     306A      9.213135   307A      9.262666   308A      9.465979  
     309A      9.491776   310A      9.535531   311A      9.543471  
     312A      9.666608   313A      9.679974   314A      9.716781  
     315A      9.751970   316A      9.758602   317A      9.830584  
     318A      9.943623   319A      9.978980   320A      9.987991  
     321A     10.140852   322A     10.243981   323A     10.244364  
     324A     10.246306   325A     10.284766   326A     10.470768  
     327A     10.535671   328A     10.550354   329A     10.611446  
     330A     10.705969   331A     10.726446   332A     10.887143  
     333A     11.035757   334A     11.191092   335A     11.418692  
     336A     11.470713   337A     11.779232   338A     12.221530  
     339A     12.869257   340A     13.024781   341A     13.225801  
     342A     13.657024   343A     26.787426   344A     27.001068  

    Final Occupation by Irrep:
              A 
    DOCC [     8 ]

  @DF-RHF Final Energy:   -78.06966164605568

   => Energetics <=

    Nuclear Repulsion Energy =             33.5505584451031424
    One-Electron Energy =                -170.4258182908791923
    Two-Electron Energy =                  58.8055981997203645
    Total Energy =                        -78.0696616460556783

Computation Completed


Properties will be evaluated at   0.000000,   0.000000,   0.000000 [a0]

Properties computed using the SCF density matrix

  Nuclear Dipole Moment: [e a0]
     X:    -0.0000      Y:    -0.0000      Z:     0.0000

  Electronic Dipole Moment: [e a0]
     X:     0.0000      Y:     0.0000      Z:    -0.0000

  Dipole Moment: [e a0]
     X:    -0.0000      Y:    -0.0000      Z:    -0.0000     Total:     0.0000

  Dipole Moment: [D]
     X:    -0.0000      Y:    -0.0000      Z:    -0.0000     Total:     0.0000


*** tstop() called on bp1-compute00143.data.bp.acrc.priv at Mon Apr 19 16:12:13 2021
Module time:
	user time   =      41.73 seconds =       0.70 minutes
	system time =       2.21 seconds =       0.04 minutes
	total time  =          3 seconds =       0.05 minutes
Total time:
	user time   =      41.73 seconds =       0.70 minutes
	system time =       2.21 seconds =       0.04 minutes
	total time  =          3 seconds =       0.05 minutes

*** tstart() called on bp1-compute00143.data.bp.acrc.priv
*** at Mon Apr 19 16:12:13 2021


  //>>>>>>>>>>>>>>>>>>>>>>>>>>>>>>>>>>>//
  //               DFMP2               //
  //<<<<<<<<<<<<<<<<<<<<<<<<<<<<<<<<<<<//

   => Loading Basis Set <=

    Name: (AUG-CC-PV(Q+D)Z AUX)
    Role: RIFIT
    Keyword: DF_BASIS_MP2
    atoms 1-2 entry C          line   184 file /work/zw18965/.conda/envs/p4env/share/psi4/basis/aug-cc-pvqz-ri.gbs 
    atoms 3-6 entry H          line    30 file /work/zw18965/.conda/envs/p4env/share/psi4/basis/aug-cc-pvqz-ri.gbs 

	 --------------------------------------------------------
	                          DF-MP2                         
	      2nd-Order Density-Fitted Moller-Plesset Theory     
	              RMP2 Wavefunction,  24 Threads             
	                                                         
	        Rob Parrish, Justin Turney, Andy Simmonett,      
	           Ed Hohenstein, and C. David Sherrill          
	 --------------------------------------------------------

   => Auxiliary Basis Set <=

  Basis Set: (AUG-CC-PV(Q+D)Z AUX)
    Blend: AUG-CC-PVQZ-RI
    Number of shells: 152
    Number of basis function: 656
    Number of Cartesian functions: 894
    Spherical Harmonics?: true
    Max angular momentum: 5

	 --------------------------------------------------------
	                 NBF =   344, NAUX =   656
	 --------------------------------------------------------
	   CLASS    FOCC     OCC    AOCC    AVIR     VIR    FVIR
	   PAIRS       0       8       8     336     336       0
	 --------------------------------------------------------

  DFHelper Memory: AOs need 0.570 GiB; user supplied 100.583 GiB. Using in-core AOs.


         ------------------------------------------------------------
                                     CPHF                           
                                  Rob Parrish                       
         ------------------------------------------------------------

  ==> Geometry <==

    Molecular point group: c1
    Full point group: C1

    Geometry (in Angstrom), charge = 0, multiplicity = 1:

       Center              X                  Y                   Z               Mass       
    ------------   -----------------  -----------------  -----------------  -----------------
         C           -0.657592376316    -0.052004103393    -0.000265893588    12.000000000000
         C            0.657596178053     0.052007354902     0.000263680506    12.000000000000
         H           -1.240693649903     0.001616836001    -0.910828936336     1.007825032230
         H           -1.225714082425    -0.196856876730     0.909826382530     1.007825032230
         H            1.225714089961     0.196842586015    -0.909823076293     1.007825032230
         H            1.240648375745    -0.001641260460     0.910851980883     1.007825032230

  Nuclear repulsion =   33.550558445103142
  Reference energy  =  -78.069661646055678

  ==> Basis Set <==

  Basis Set: AUG-CC-PV(Q+D)Z
    Blend: AUG-CC-PV(Q+D)Z
    Number of shells: 96
    Number of basis function: 344
    Number of Cartesian functions: 430
    Spherical Harmonics?: true
    Max angular momentum: 4

  ==> CGRSolver (by Rob Parrish) <==

   Number of roots    =         1
   Preconditioning    =    JACOBI
   Convergence cutoff =     1E-06
   Maximum iterations =       100

  ==> CPHFRHamiltonian (by Rob Parrish) <== 

  ==> MemDFJK: Density-Fitted J/K Matrices <==

    J tasked:                   Yes
    K tasked:                   Yes
    wK tasked:                   No
    OpenMP threads:              24
    Memory [MiB]:            102996
    Algorithm:                 Core
    Schwarz Cutoff:           1E-12
    Mask sparsity (%):       0.2873
    Fitting Condition:        1E-10

   => Auxiliary Basis Set <=

  Basis Set: (AUG-CC-PV(Q+D)Z AUX)
    Blend: AUG-CC-PVQZ-JKFIT
    Number of shells: 140
    Number of basis function: 588
    Number of Cartesian functions: 800
    Spherical Harmonics?: true
    Max angular momentum: 5

  ==> CPHF Iterations <==

  => Iterations <=

             Iter  Converged  Remaining    Residual
  CGR           1          0          1   7.485E-02
  CGR           2          0          1   1.166E-02
  CGR           3          0          1   2.451E-03
  CGR           4          0          1   4.422E-04
  CGR           5          0          1   6.883E-05
  CGR           6          0          1   6.828E-06
  CGR           7          1          0   8.342E-07

    CGRSolver converged.

  ==> DFCorrGrad: Density-Fitted Correlated Gradients <==

    OpenMP threads:             24
    Integrals threads:          24
    Memory [GiB]:          100.583
    Schwarz Cutoff:          0E+00
    Fitting Condition:       1E-10

   => Auxiliary Basis Set <=

  Basis Set: (AUG-CC-PV(Q+D)Z AUX)
    Blend: AUG-CC-PVQZ-JKFIT
    Number of shells: 140
    Number of basis function: 588
    Number of Cartesian functions: 800
    Spherical Harmonics?: true
    Max angular momentum: 5

	-----------------------------------------------------------
	 ==================> DF-MP2 Energies <==================== 
	-----------------------------------------------------------
	 Reference Energy          =     -78.0696616460556783 [Eh]
	 Singles Energy            =      -0.0000000000000000 [Eh]
	 Same-Spin Energy          =      -0.0813069878062983 [Eh]
	 Opposite-Spin Energy      =      -0.3335472379292120 [Eh]
	 Correlation Energy        =      -0.4148542257355103 [Eh]
	 Total Energy              =     -78.4845158717911886 [Eh]
	-----------------------------------------------------------
	 ================> DF-SCS-MP2 Energies <================== 
	-----------------------------------------------------------
	 SCS Same-Spin Scale       =       0.3333333333333333 [-]
	 SCS Opposite-Spin Scale   =       1.2000000000000000 [-]
	 SCS Same-Spin Energy      =      -0.0271023292687661 [Eh]
	 SCS Opposite-Spin Energy  =      -0.4002566855150544 [Eh]
	 SCS Correlation Energy    =      -0.4273590147838205 [Eh]
	 SCS Total Energy          =     -78.4970206608394960 [Eh]
	-----------------------------------------------------------


  -Total Gradient:
     Atom            X                  Y                   Z
    ------   -----------------  -----------------  -----------------
       1        0.013913034015     0.001115901679     0.000006281084
       2       -0.013902394452    -0.001112218139    -0.000010184475
       3       -0.003515937158    -0.000130953416    -0.001386529963
       4       -0.003493303768    -0.000432860126     0.001384530261
       5        0.003488316986     0.000431133108    -0.001381658585
       6        0.003510284378     0.000128996894     0.001387561678


*** tstop() called on bp1-compute00143.data.bp.acrc.priv at Mon Apr 19 16:12:23 2021
Module time:
	user time   =     123.69 seconds =       2.06 minutes
	system time =      10.77 seconds =       0.18 minutes
	total time  =         10 seconds =       0.17 minutes
Total time:
	user time   =     165.43 seconds =       2.76 minutes
	system time =      12.98 seconds =       0.22 minutes
	total time  =         13 seconds =       0.22 minutes

			-----------------------------------------
			 OPTKING 2.0: for geometry optimizations 
			  - R.A. King,  Bethel University        
			-----------------------------------------

	Internal coordinates to be generated automatically.
	Detected frag 1 with atoms:  1 2 3 4 5 6
	---Fragment 1 Bond Connectivity---
	 1 : 2 3 4
	 2 : 1 5 6
	 3 : 1
	 4 : 1
	 5 : 2
	 6 : 2

	---Fragment 1 Geometry and Gradient---
	 C          -1.2426694934       -0.0982735128       -0.0005024661
	 C           1.2426766777        0.0982796573        0.0004982839
	 H          -2.3445712039        0.0030553772       -1.7212172368
	 H          -2.3162639239       -0.3720055829        1.7193226847
	 H           2.3162639381        0.3719785774       -1.7193164368
	 H           2.3444856482       -0.0031015328        1.7212607847
	             0.0139130340        0.0011159017        0.0000062811
	            -0.0139023945       -0.0011122181       -0.0000101845
	            -0.0035159372       -0.0001309534       -0.0013865300
	            -0.0034933038       -0.0004328601        0.0013845303
	             0.0034883170        0.0004311331       -0.0013816586
	             0.0035102844        0.0001289969        0.0013875617

	Previous optimization step data not found.  Starting new optimization.

	---Fragment 1 Intrafragment Coordinates---
	 - Coordinate -           - BOHR/RAD -       - ANG/DEG -
	 R(1,2)           =         2.493106	       1.319295
	 R(1,3)           =         2.045804	       1.082593
	 R(1,4)           =         2.045809	       1.082595
	 R(2,5)           =         2.045792	       1.082586
	 R(2,6)           =         2.045797	       1.082589
	 B(1,2,5)         =         2.133358	     122.232421
	 B(1,2,6)         =         2.133324	     122.230479
	 B(2,1,3)         =         2.133378	     122.233549
	 B(2,1,4)         =         2.133359	     122.232445
	 B(3,1,4)         =         2.016449	     115.534006
	 B(5,2,6)         =         2.016503	     115.537099
	 D(3,1,2,5)       =         0.000186	       0.010647
	 D(3,1,2,6)       =        -3.141570	    -179.998696
	 D(4,1,2,5)       =         3.141575	     179.998969
	 D(4,1,2,6)       =        -0.000181	      -0.010375

	Current energy   :       -78.4845158718

	Generating empirical Hessian (Schlegel '84) for each fragment.
	Taking RFO optimization step.
	Going to follow RFO solution 1.
	Using RFO vector 1.
	Norm of target step-size    0.03866
	Projected energy change by RFO approximation:        -0.0003303088

	Back-transformation to cartesian coordinates...
	Successfully converged to displaced geometry.

	--- Internal Coordinate Step in ANG or DEG, aJ/ANG or AJ/DEG ---
	 ---------------------------------------------------------------------------
	   Coordinate                Previous        Force       Change         New 
	   ----------                --------       ------       ------       ------
	    1 R(1,2)          =      1.319295     0.057060     0.005898     1.325193
	    2 R(1,3)          =      1.082593    -0.025157    -0.004524     1.078069
	    3 R(1,4)          =      1.082595    -0.025170    -0.004526     1.078069
	    4 R(2,5)          =      1.082586    -0.025126    -0.004518     1.078068
	    5 R(2,6)          =      1.082589    -0.025138    -0.004520     1.078069
	    6 B(1,2,5)        =    122.232421    -0.000116    -0.543211   121.689210
	    7 B(1,2,6)        =    122.230479    -0.000115    -0.541876   121.688603
	    8 B(2,1,3)        =    122.233549    -0.000116    -0.543829   121.689720
	    9 B(2,1,4)        =    122.232445    -0.000116    -0.543234   121.689211
	   10 B(3,1,4)        =    115.534006     0.000232     1.087064   116.621070
	   11 B(5,2,6)        =    115.537099     0.000231     1.085087   116.622186
	   12 D(3,1,2,5)      =      0.010647    -0.000000    -0.012636    -0.001989
	   13 D(3,1,2,6)      =   -179.998696    -0.000000    -0.001304  -180.000000
	   14 D(4,1,2,5)      =    179.998969     0.000000     0.001031   180.000000
	   15 D(4,1,2,6)      =     -0.010375     0.000000     0.012323     0.001948
	 ---------------------------------------------------------------------------
	Successfully symmetrized geometry.

  ==> Convergence Check <==

  Measures of convergence in internal coordinates in au.
  Criteria marked as inactive (o), active & met (*), and active & unmet ( ).
  --------------------------------------------------------------------------------------------- ~
   Step     Total Energy     Delta E     MAX Force     RMS Force      MAX Disp      RMS Disp    ~
  --------------------------------------------------------------------------------------------- ~
    Convergence Criteria    1.00e-06 *    3.00e-04 *             o    1.20e-03 *             o  ~
  --------------------------------------------------------------------------------------------- ~
      1     -78.48451587   -7.85e+01      6.93e-03      2.74e-03 o    1.90e-02      9.98e-03 o  ~
  ---------------------------------------------------------------------------------------------

	Writing optimization data to binary file.
	Structure for next step:
	Cartesian Geometry (in Angstrom)
	    C    -0.6605338085  -0.0522936663  -0.0002706222
	    C     0.6605267663   0.0522751671   0.0002740313
	    H    -1.2325926130   0.0024499131  -0.9124026525
	    H    -1.2175986670  -0.1963709462   0.9114055729
	    H     1.2175902025   0.1963633600  -0.9114000726
	    H     1.2325666548  -0.0024592913   0.9124178808
			--------------------------
			 OPTKING Finished Execution 
			--------------------------

    Structure for next step:
    Molecular point group: c1
    Full point group: C1

    Geometry (in Angstrom), charge = 0, multiplicity = 1:

    C           -0.660529558750    -0.052285137232    -0.000272826900
    C            0.660531021228     0.052283696649     0.000271826645
    H           -1.232588365544     0.002458442395    -0.912404860780
    H           -1.217594419463    -0.196362417677     0.911403371817
    H            1.217594459588     0.196371890079    -0.911402280870
    H            1.232570911938    -0.002450762024     0.912415679693

gradient() will perform analytic gradient computation.
    SCF Algorithm Type (re)set to DF.

*** tstart() called on bp1-compute00143.data.bp.acrc.priv
*** at Mon Apr 19 16:12:23 2021

   => Loading Basis Set <=

    Name: AUG-CC-PV(Q+D)Z
    Role: ORBITAL
    Keyword: BASIS
    atoms 1-2 entry C          line   319 file /work/zw18965/.conda/envs/p4env/share/psi4/basis/aug-cc-pv_qpd_z.gbs 
    atoms 3-6 entry H          line    56 file /work/zw18965/.conda/envs/p4env/share/psi4/basis/aug-cc-pv_qpd_z.gbs 


         ---------------------------------------------------------
                                   SCF
               by Justin Turney, Rob Parrish, Andy Simmonett
                          and Daniel G. A. Smith
                              RHF Reference
                       24 Threads, 137329 MiB Core
         ---------------------------------------------------------

  ==> Geometry <==

    Molecular point group: c1
    Full point group: C1

    Geometry (in Angstrom), charge = 0, multiplicity = 1:

       Center              X                  Y                   Z               Mass       
    ------------   -----------------  -----------------  -----------------  -----------------
         C           -0.660529558750    -0.052285137232    -0.000272826900    12.000000000000
         C            0.660531021228     0.052283696649     0.000271826645    12.000000000000
         H           -1.232588365544     0.002458442395    -0.912404860780     1.007825032230
         H           -1.217594419463    -0.196362417677     0.911403371817     1.007825032230
         H            1.217594459588     0.196371890079    -0.911402280870     1.007825032230
         H            1.232570911938    -0.002450762024     0.912415679693     1.007825032230

  Running in c1 symmetry.

  Rotational constants: A =      4.96925  B =      1.01399  C =      0.84215 [cm^-1]
  Rotational constants: A = 148974.39921  B =  30398.65922  C =  25246.94641 [MHz]
  Nuclear repulsion =   33.549992911986784

  Charge       = 0
  Multiplicity = 1
  Electrons    = 16
  Nalpha       = 8
  Nbeta        = 8

  ==> Algorithm <==

  SCF Algorithm Type is DF.
  DIIS enabled.
  MOM disabled.
  Fractional occupation disabled.
  Guess Type is READ.
  Energy threshold   = 1.00e-10
  Density threshold  = 1.00e-10
  Integral threshold = 0.00e+00

  ==> Primary Basis <==

  Basis Set: AUG-CC-PV(Q+D)Z
    Blend: AUG-CC-PV(Q+D)Z
    Number of shells: 96
    Number of basis function: 344
    Number of Cartesian functions: 430
    Spherical Harmonics?: true
    Max angular momentum: 4

   => Loading Basis Set <=

    Name: (AUG-CC-PV(Q+D)Z AUX)
    Role: JKFIT
    Keyword: DF_BASIS_SCF
    atoms 1-2 entry C          line   178 file /work/zw18965/.conda/envs/p4env/share/psi4/basis/aug-cc-pvqz-jkfit.gbs 
    atoms 3-6 entry H          line    70 file /work/zw18965/.conda/envs/p4env/share/psi4/basis/aug-cc-pvqz-jkfit.gbs 

   => Loading Basis Set <=

    Name: AUG-CC-PV(Q+D)Z
    Role: ORBITAL
    Keyword: BASIS
    atoms 1-2 entry C          line   319 file /work/zw18965/.conda/envs/p4env/share/psi4/basis/aug-cc-pv_qpd_z.gbs 
    atoms 3-6 entry H          line    56 file /work/zw18965/.conda/envs/p4env/share/psi4/basis/aug-cc-pv_qpd_z.gbs 

  Reading orbitals from file 180, no projection.

  ==> Pre-Iterations <==

   -------------------------------------------------------
    Irrep   Nso     Nmo     Nalpha   Nbeta   Ndocc  Nsocc
   -------------------------------------------------------
     A        344     344       0       0       0       0
   -------------------------------------------------------
    Total     344     344       8       8       8       0
   -------------------------------------------------------

  ==> Integral Setup <==

  DFHelper Memory: AOs need 0.570 GiB; user supplied 100.583 GiB. Using in-core AOs.

  ==> MemDFJK: Density-Fitted J/K Matrices <==

    J tasked:                   Yes
    K tasked:                   Yes
    wK tasked:                   No
    OpenMP threads:              24
    Memory [MiB]:            102996
    Algorithm:                 Core
    Schwarz Cutoff:           1E-12
    Mask sparsity (%):       0.2789
    Fitting Condition:        1E-10

   => Auxiliary Basis Set <=

  Basis Set: (AUG-CC-PV(Q+D)Z AUX)
    Blend: AUG-CC-PVQZ-JKFIT
    Number of shells: 140
    Number of basis function: 588
    Number of Cartesian functions: 800
    Spherical Harmonics?: true
    Max angular momentum: 5

  Minimum eigenvalue in the overlap matrix is 2.7970985449E-06.
  Using Symmetric Orthogonalization.

  SCF Guess: Orbitals guess was supplied from a previous computation.

  ==> Iterations <==

                           Total Energy        Delta E     RMS |[F,P]|

   @DF-RHF iter   0:   -78.07606803296937   -7.80761e+01   6.24464e-05 
   @DF-RHF iter   1:   -78.06977797659175    6.29006e-03   6.77837e-06 DIIS
   @DF-RHF iter   2:   -78.06978226149366   -4.28490e-06   1.82694e-06 DIIS
   @DF-RHF iter   3:   -78.06978263810423   -3.76611e-07   5.34168e-07 DIIS
   @DF-RHF iter   4:   -78.06978268951569   -5.14115e-08   1.75099e-07 DIIS
   @DF-RHF iter   5:   -78.06978269332478   -3.80909e-09   4.11594e-08 DIIS
   @DF-RHF iter   6:   -78.06978269372765   -4.02864e-10   5.31710e-09 DIIS
   @DF-RHF iter   7:   -78.06978269373289   -5.24381e-12   7.08419e-10 DIIS
   @DF-RHF iter   8:   -78.06978269373272    1.70530e-13   3.01686e-10 DIIS
   @DF-RHF iter   9:   -78.06978269373312   -3.97904e-13   4.90647e-11 DIIS
  Energy and wave function converged.


  ==> Post-Iterations <==

    Orbital Energies [Eh]
    ---------------------

    Doubly Occupied:                                                      

       1A    -11.228333     2A    -11.226542     3A     -1.036725  
       4A     -0.794538     5A     -0.645358     6A     -0.591079  
       7A     -0.507561     8A     -0.379001  

    Virtual:                                                              

       9A      0.029223    10A      0.036216    11A      0.038293  
      12A      0.052923    13A      0.081034    14A      0.082617  
      15A      0.089526    16A      0.105521    17A      0.130111  
      18A      0.130564    19A      0.145655    20A      0.156415  
      21A      0.161658    22A      0.176947    23A      0.200686  
      24A      0.210458    25A      0.239388    26A      0.246889  
      27A      0.252967    28A      0.253173    29A      0.267683  
      30A      0.273956    31A      0.278905    32A      0.302737  
      33A      0.317449    34A      0.321974    35A      0.324118  
      36A      0.335889    37A      0.341511    38A      0.343430  
      39A      0.358671    40A      0.359932    41A      0.360683  
      42A      0.373049    43A      0.397990    44A      0.412364  
      45A      0.445552    46A      0.452680    47A      0.468641  
      48A      0.517063    49A      0.517378    50A      0.531225  
      51A      0.541325    52A      0.569471    53A      0.583019  
      54A      0.590344    55A      0.618569    56A      0.622450  
      57A      0.627834    58A      0.679326    59A      0.694695  
      60A      0.698500    61A      0.707015    62A      0.713444  
      63A      0.717289    64A      0.721142    65A      0.723455  
      66A      0.729953    67A      0.739620    68A      0.765954  
      69A      0.770313    70A      0.794411    71A      0.836009  
      72A      0.840201    73A      0.851613    74A      0.852454  
      75A      0.858496    76A      0.875232    77A      0.877740  
      78A      0.882150    79A      0.889679    80A      0.955026  
      81A      0.966479    82A      0.989531    83A      1.014534  
      84A      1.024224    85A      1.037799    86A      1.047968  
      87A      1.080405    88A      1.127815    89A      1.132401  
      90A      1.181930    91A      1.184172    92A      1.193707  
      93A      1.196745    94A      1.229397    95A      1.235109  
      96A      1.281755    97A      1.292277    98A      1.299443  
      99A      1.301933   100A      1.313574   101A      1.327821  
     102A      1.341050   103A      1.406852   104A      1.437745  
     105A      1.450831   106A      1.479476   107A      1.502929  
     108A      1.504333   109A      1.543211   110A      1.543861  
     111A      1.603074   112A      1.609236   113A      1.664653  
     114A      1.681806   115A      1.712610   116A      1.723488  
     117A      1.724503   118A      1.729964   119A      1.797970  
     120A      1.807793   121A      1.812133   122A      1.825461  
     123A      1.840042   124A      1.878202   125A      1.888021  
     126A      1.951551   127A      1.957512   128A      1.959076  
     129A      1.984417   130A      1.994764   131A      1.999966  
     132A      2.013804   133A      2.046616   134A      2.075544  
     135A      2.080855   136A      2.086629   137A      2.087729  
     138A      2.104686   139A      2.121012   140A      2.121260  
     141A      2.137762   142A      2.138891   143A      2.197419  
     144A      2.208854   145A      2.257275   146A      2.268031  
     147A      2.276650   148A      2.283271   149A      2.324883  
     150A      2.353458   151A      2.378927   152A      2.384559  
     153A      2.393408   154A      2.403294   155A      2.413489  
     156A      2.439875   157A      2.442852   158A      2.454480  
     159A      2.456707   160A      2.490436   161A      2.533161  
     162A      2.533444   163A      2.533958   164A      2.575629  
     165A      2.649129   166A      2.653766   167A      2.699292  
     168A      2.703209   169A      2.725086   170A      2.731862  
     171A      2.816249   172A      2.818281   173A      2.861822  
     174A      2.881455   175A      2.899318   176A      2.912944  
     177A      2.957418   178A      2.968231   179A      2.992914  
     180A      3.029381   181A      3.047246   182A      3.058809  
     183A      3.103969   184A      3.143122   185A      3.192359  
     186A      3.319568   187A      3.322932   188A      3.383695  
     189A      3.414144   190A      3.468525   191A      3.649078  
     192A      3.651194   193A      3.656628   194A      3.671631  
     195A      3.696184   196A      3.734228   197A      3.745578  
     198A      3.785482   199A      3.799638   200A      3.840698  
     201A      3.878778   202A      3.887347   203A      3.957471  
     204A      3.975332   205A      4.014531   206A      4.032140  
     207A      4.047320   208A      4.107014   209A      4.180859  
     210A      4.206647   211A      4.231430   212A      4.265297  
     213A      4.319243   214A      4.400657   215A      4.406244  
     216A      4.410869   217A      4.496118   218A      4.505323  
     219A      4.531493   220A      4.570561   221A      4.592156  
     222A      4.670872   223A      4.760775   224A      4.822210  
     225A      4.878227   226A      5.032120   227A      5.101639  
     228A      5.187292   229A      5.210855   230A      5.422148  
     231A      5.814415   232A      5.863143   233A      5.896615  
     234A      5.968829   235A      5.983556   236A      5.996754  
     237A      6.020407   238A      6.029178   239A      6.253968  
     240A      6.260090   241A      6.284970   242A      6.304797  
     243A      6.343749   244A      6.446756   245A      6.453622  
     246A      6.468812   247A      6.506973   248A      6.537351  
     249A      6.608595   250A      6.625917   251A      6.638479  
     252A      6.679684   253A      6.688434   254A      6.727740  
     255A      6.754660   256A      6.818293   257A      6.848504  
     258A      6.890692   259A      6.948525   260A      7.001960  
     261A      7.009559   262A      7.013187   263A      7.067629  
     264A      7.086965   265A      7.124102   266A      7.194090  
     267A      7.262442   268A      7.300991   269A      7.309067  
     270A      7.315414   271A      7.347541   272A      7.444506  
     273A      7.464056   274A      7.489461   275A      7.640778  
     276A      7.650418   277A      7.768639   278A      7.769541  
     279A      7.769987   280A      7.899001   281A      7.969486  
     282A      8.008847   283A      8.019093   284A      8.028394  
     285A      8.186071   286A      8.285872   287A      8.296741  
     288A      8.304079   289A      8.410341   290A      8.427633  
     291A      8.512136   292A      8.585095   293A      8.586624  
     294A      8.718099   295A      8.728547   296A      8.782428  
     297A      8.818350   298A      8.868333   299A      8.898225  
     300A      8.923223   301A      8.939233   302A      9.076596  
     303A      9.098964   304A      9.152608   305A      9.163468  
     306A      9.226464   307A      9.265070   308A      9.461565  
     309A      9.508086   310A      9.541554   311A      9.548126  
     312A      9.670599   313A      9.676653   314A      9.722005  
     315A      9.768017   316A      9.768842   317A      9.817821  
     318A      9.947670   319A      9.987925   320A      9.996410  
     321A     10.163599   322A     10.256837   323A     10.268130  
     324A     10.287405   325A     10.290522   326A     10.485268  
     327A     10.532773   328A     10.579750   329A     10.622033  
     330A     10.720439   331A     10.731165   332A     10.871533  
     333A     11.059061   334A     11.169416   335A     11.443324  
     336A     11.484285   337A     11.779130   338A     12.287883  
     339A     12.886274   340A     13.009132   341A     13.267622  
     342A     13.685179   343A     26.802221   344A     27.042857  

    Final Occupation by Irrep:
              A 
    DOCC [     8 ]

  @DF-RHF Final Energy:   -78.06978269373312

   => Energetics <=

    Nuclear Repulsion Energy =             33.5499929119867843
    One-Electron Energy =                -170.4212767919192402
    Two-Electron Energy =                  58.8015011861993457
    Total Energy =                        -78.0697826937331172

Computation Completed


Properties will be evaluated at   0.000000,   0.000000,   0.000000 [a0]

Properties computed using the SCF density matrix

  Nuclear Dipole Moment: [e a0]
     X:    -0.0000      Y:     0.0000      Z:     0.0000

  Electronic Dipole Moment: [e a0]
     X:     0.0000      Y:    -0.0000      Z:    -0.0000

  Dipole Moment: [e a0]
     X:    -0.0000      Y:     0.0000      Z:     0.0000     Total:     0.0000

  Dipole Moment: [D]
     X:    -0.0000      Y:     0.0000      Z:     0.0000     Total:     0.0000


*** tstop() called on bp1-compute00143.data.bp.acrc.priv at Mon Apr 19 16:12:25 2021
Module time:
	user time   =      28.58 seconds =       0.48 minutes
	system time =       1.13 seconds =       0.02 minutes
	total time  =          2 seconds =       0.03 minutes
Total time:
	user time   =     194.56 seconds =       3.24 minutes
	system time =      14.13 seconds =       0.24 minutes
	total time  =         15 seconds =       0.25 minutes

*** tstart() called on bp1-compute00143.data.bp.acrc.priv
*** at Mon Apr 19 16:12:25 2021


  //>>>>>>>>>>>>>>>>>>>>>>>>>>>>>>>>>>>//
  //               DFMP2               //
  //<<<<<<<<<<<<<<<<<<<<<<<<<<<<<<<<<<<//

   => Loading Basis Set <=

    Name: (AUG-CC-PV(Q+D)Z AUX)
    Role: RIFIT
    Keyword: DF_BASIS_MP2
    atoms 1-2 entry C          line   184 file /work/zw18965/.conda/envs/p4env/share/psi4/basis/aug-cc-pvqz-ri.gbs 
    atoms 3-6 entry H          line    30 file /work/zw18965/.conda/envs/p4env/share/psi4/basis/aug-cc-pvqz-ri.gbs 

	 --------------------------------------------------------
	                          DF-MP2                         
	      2nd-Order Density-Fitted Moller-Plesset Theory     
	              RMP2 Wavefunction,  24 Threads             
	                                                         
	        Rob Parrish, Justin Turney, Andy Simmonett,      
	           Ed Hohenstein, and C. David Sherrill          
	 --------------------------------------------------------

   => Auxiliary Basis Set <=

  Basis Set: (AUG-CC-PV(Q+D)Z AUX)
    Blend: AUG-CC-PVQZ-RI
    Number of shells: 152
    Number of basis function: 656
    Number of Cartesian functions: 894
    Spherical Harmonics?: true
    Max angular momentum: 5

	 --------------------------------------------------------
	                 NBF =   344, NAUX =   656
	 --------------------------------------------------------
	   CLASS    FOCC     OCC    AOCC    AVIR     VIR    FVIR
	   PAIRS       0       8       8     336     336       0
	 --------------------------------------------------------

  DFHelper Memory: AOs need 0.570 GiB; user supplied 100.583 GiB. Using in-core AOs.


         ------------------------------------------------------------
                                     CPHF                           
                                  Rob Parrish                       
         ------------------------------------------------------------

  ==> Geometry <==

    Molecular point group: c1
    Full point group: C1

    Geometry (in Angstrom), charge = 0, multiplicity = 1:

       Center              X                  Y                   Z               Mass       
    ------------   -----------------  -----------------  -----------------  -----------------
         C           -0.660529558750    -0.052285137232    -0.000272826900    12.000000000000
         C            0.660531021228     0.052283696649     0.000271826645    12.000000000000
         H           -1.232588365544     0.002458442395    -0.912404860780     1.007825032230
         H           -1.217594419463    -0.196362417677     0.911403371817     1.007825032230
         H            1.217594459588     0.196371890079    -0.911402280870     1.007825032230
         H            1.232570911938    -0.002450762024     0.912415679693     1.007825032230

  Nuclear repulsion =   33.549992911986784
  Reference energy  =  -78.069782693733117

  ==> Basis Set <==

  Basis Set: AUG-CC-PV(Q+D)Z
    Blend: AUG-CC-PV(Q+D)Z
    Number of shells: 96
    Number of basis function: 344
    Number of Cartesian functions: 430
    Spherical Harmonics?: true
    Max angular momentum: 4

  ==> CGRSolver (by Rob Parrish) <==

   Number of roots    =         1
   Preconditioning    =    JACOBI
   Convergence cutoff =     1E-06
   Maximum iterations =       100

  ==> CPHFRHamiltonian (by Rob Parrish) <== 

  ==> MemDFJK: Density-Fitted J/K Matrices <==

    J tasked:                   Yes
    K tasked:                   Yes
    wK tasked:                   No
    OpenMP threads:              24
    Memory [MiB]:            102996
    Algorithm:                 Core
    Schwarz Cutoff:           1E-12
    Mask sparsity (%):       0.2789
    Fitting Condition:        1E-10

   => Auxiliary Basis Set <=

  Basis Set: (AUG-CC-PV(Q+D)Z AUX)
    Blend: AUG-CC-PVQZ-JKFIT
    Number of shells: 140
    Number of basis function: 588
    Number of Cartesian functions: 800
    Spherical Harmonics?: true
    Max angular momentum: 5

  ==> CPHF Iterations <==

  => Iterations <=

             Iter  Converged  Remaining    Residual
  CGR           1          0          1   7.488E-02
  CGR           2          0          1   1.178E-02
  CGR           3          0          1   2.554E-03
  CGR           4          0          1   4.543E-04
  CGR           5          0          1   6.966E-05
  CGR           6          0          1   6.750E-06
  CGR           7          1          0   7.807E-07

    CGRSolver converged.

  ==> DFCorrGrad: Density-Fitted Correlated Gradients <==

    OpenMP threads:             24
    Integrals threads:          24
    Memory [GiB]:          100.583
    Schwarz Cutoff:          0E+00
    Fitting Condition:       1E-10

   => Auxiliary Basis Set <=

  Basis Set: (AUG-CC-PV(Q+D)Z AUX)
    Blend: AUG-CC-PVQZ-JKFIT
    Number of shells: 140
    Number of basis function: 588
    Number of Cartesian functions: 800
    Spherical Harmonics?: true
    Max angular momentum: 5

	-----------------------------------------------------------
	 ==================> DF-MP2 Energies <==================== 
	-----------------------------------------------------------
	 Reference Energy          =     -78.0697826937331172 [Eh]
	 Singles Energy            =      -0.0000000000000000 [Eh]
	 Same-Spin Energy          =      -0.0813449449144189 [Eh]
	 Opposite-Spin Energy      =      -0.3336089568685123 [Eh]
	 Correlation Energy        =      -0.4149539017829312 [Eh]
	 Total Energy              =     -78.4847365955160541 [Eh]
	-----------------------------------------------------------
	 ================> DF-SCS-MP2 Energies <================== 
	-----------------------------------------------------------
	 SCS Same-Spin Scale       =       0.3333333333333333 [-]
	 SCS Opposite-Spin Scale   =       1.2000000000000000 [-]
	 SCS Same-Spin Energy      =      -0.0271149816381396 [Eh]
	 SCS Opposite-Spin Energy  =      -0.4003307482422148 [Eh]
	 SCS Correlation Energy    =      -0.4274457298803544 [Eh]
	 SCS Total Energy          =     -78.4972284236134783 [Eh]
	-----------------------------------------------------------


  -Total Gradient:
     Atom            X                  Y                   Z
    ------   -----------------  -----------------  -----------------
       1        0.002821293066     0.000220035529     0.000000697676
       2       -0.002818330492    -0.000221119565    -0.000001570754
       3       -0.000831635808    -0.000105001467     0.000366775711
       4       -0.000837267599    -0.000025001802    -0.000367037556
       5        0.000836141631     0.000025601148     0.000366954991
       6        0.000829799202     0.000105486156    -0.000365820068


*** tstop() called on bp1-compute00143.data.bp.acrc.priv at Mon Apr 19 16:12:35 2021
Module time:
	user time   =     119.16 seconds =       1.99 minutes
	system time =       5.47 seconds =       0.09 minutes
	total time  =         10 seconds =       0.17 minutes
Total time:
	user time   =     313.73 seconds =       5.23 minutes
	system time =      19.60 seconds =       0.33 minutes
	total time  =         25 seconds =       0.42 minutes

			-----------------------------------------
			 OPTKING 2.0: for geometry optimizations 
			  - R.A. King,  Bethel University        
			-----------------------------------------

	Previous internal coordinate definitions found.
	---Fragment 1 Geometry and Gradient---
	 C          -1.2482199638       -0.0988045898       -0.0005155681
	 C           1.2482227275        0.0988018675        0.0005136779
	 H          -2.3292544363        0.0046457828       -1.7241953024
	 H          -2.3009199847       -0.3710711907        1.7223027626
	 H           2.3009200605        0.3710890910       -1.7223007010
	 H           2.3292214538       -0.0046312690        1.7242157472
	             0.0028212931        0.0002200355        0.0000006977
	            -0.0028183305       -0.0002211196       -0.0000015708
	            -0.0008316358       -0.0001050015        0.0003667757
	            -0.0008372676       -0.0000250018       -0.0003670376
	             0.0008361416        0.0000256011        0.0003669550
	             0.0008297992        0.0001054862       -0.0003658201

	---Fragment 1 Intrafragment Coordinates---
	 - Coordinate -           - BOHR/RAD -       - ANG/DEG -
	 R(1,2)           =         2.504251	       1.325193
	 R(1,3)           =         2.037255	       1.078069
	 R(1,4)           =         2.037255	       1.078069
	 R(2,5)           =         2.037253	       1.078068
	 R(2,6)           =         2.037254	       1.078069
	 B(1,2,5)         =         2.123877	     121.689210
	 B(1,2,6)         =         2.123867	     121.688603
	 B(2,1,3)         =         2.123886	     121.689720
	 B(2,1,4)         =         2.123877	     121.689211
	 B(3,1,4)         =         2.035422	     116.621070
	 B(5,2,6)         =         2.035441	     116.622186
	 D(3,1,2,5)       =        -0.000035	      -0.001989
	 D(3,1,2,6)       =         3.141593	     180.000000
	 D(4,1,2,5)       =         3.141593	     180.000000
	 D(4,1,2,6)       =         0.000034	       0.001948

	Current energy   :       -78.4847365955

	Energy change for the previous step:
		Projected    :        -0.0003303088
		Actual       :        -0.0002207237

	Performing BFGS update.
	Previous computed or guess Hessian on step 1.
	Steps to be used in Hessian update: 1
	Taking RFO optimization step.
	Going to follow RFO solution 1.
	Using RFO vector 1.
	Norm of target step-size    0.01942
	Projected energy change by RFO approximation:        -0.0000980114

	Back-transformation to cartesian coordinates...
	Successfully converged to displaced geometry.

	--- Internal Coordinate Step in ANG or DEG, aJ/ANG or AJ/DEG ---
	 ---------------------------------------------------------------------------
	   Coordinate                Previous        Force       Change         New 
	   ----------                --------       ------       ------       ------
	    1 R(1,2)          =      1.325193     0.009523     0.001573     1.326766
	    2 R(1,3)          =      1.078069    -0.001035    -0.000452     1.077617
	    3 R(1,4)          =      1.078069    -0.001035    -0.000452     1.077617
	    4 R(2,5)          =      1.078068    -0.001031    -0.000451     1.077618
	    5 R(2,6)          =      1.078069    -0.001033    -0.000451     1.077617
	    6 B(1,2,5)        =    121.689210    -0.000047    -0.316181   121.373029
	    7 B(1,2,6)        =    121.688603    -0.000047    -0.315590   121.373013
	    8 B(2,1,3)        =    121.689720    -0.000047    -0.316636   121.373083
	    9 B(2,1,4)        =    121.689211    -0.000047    -0.316185   121.373026
	   10 B(3,1,4)        =    116.621070     0.000094     0.632821   117.253891
	   11 B(5,2,6)        =    116.622186     0.000093     0.631771   117.253957
	   12 D(3,1,2,5)      =     -0.001989     0.000000     0.001989     0.000000
	   13 D(3,1,2,6)      =    180.000000     0.000000     0.001781   180.001781
	   14 D(4,1,2,5)      =    180.000000    -0.000000    -0.001744   179.998256
	   15 D(4,1,2,6)      =      0.001948    -0.000000    -0.001948     0.000000
	 ---------------------------------------------------------------------------
	Successfully symmetrized geometry.

  ==> Convergence Check <==

  Measures of convergence in internal coordinates in au.
  Criteria marked as inactive (o), active & met (*), and active & unmet ( ).
  ---------------------------------------------------------------------------------------------
   Step     Total Energy     Delta E     MAX Force     RMS Force      MAX Disp      RMS Disp   
  ---------------------------------------------------------------------------------------------
    Convergence Criteria    1.00e-06 *    3.00e-04 *             o    1.20e-03 *             o
  ---------------------------------------------------------------------------------------------
      2     -78.48473660   -2.21e-04      1.23e-03      6.29e-04 o    1.10e-02      5.01e-03 o  ~
  ---------------------------------------------------------------------------------------------

	Writing optimization data to binary file.
	Structure for next step:
	Cartesian Geometry (in Angstrom)
	    C    -0.6613185413  -0.0523244812  -0.0002690765
	    C     0.6613120546   0.0523484605   0.0002745569
	    H    -1.2280999424   0.0031015026  -0.9151165904
	    H    -1.2130694129  -0.1963105771   0.9141149516
	    H     1.2130652668   0.1963068329  -0.9141126250
	    H     1.2280946241  -0.0031060255   0.9151196929
			--------------------------
			 OPTKING Finished Execution 
			--------------------------

    Structure for next step:
    Molecular point group: c1
    Full point group: C1

    Geometry (in Angstrom), charge = 0, multiplicity = 1:

    C           -0.661315426714    -0.052334449521    -0.000271617822
    C            0.661315174402     0.052338492554     0.000272015591
    H           -1.228096830091     0.003091534426    -0.915119135289
    H           -1.213066300534    -0.196320546017     0.914112413840
    H            1.213068388752     0.196296865559    -0.914115169917
    H            1.228097746111    -0.003115993665     0.915117155198

gradient() will perform analytic gradient computation.
    SCF Algorithm Type (re)set to DF.

*** tstart() called on bp1-compute00143.data.bp.acrc.priv
*** at Mon Apr 19 16:12:35 2021

   => Loading Basis Set <=

    Name: AUG-CC-PV(Q+D)Z
    Role: ORBITAL
    Keyword: BASIS
    atoms 1-2 entry C          line   319 file /work/zw18965/.conda/envs/p4env/share/psi4/basis/aug-cc-pv_qpd_z.gbs 
    atoms 3-6 entry H          line    56 file /work/zw18965/.conda/envs/p4env/share/psi4/basis/aug-cc-pv_qpd_z.gbs 


         ---------------------------------------------------------
                                   SCF
               by Justin Turney, Rob Parrish, Andy Simmonett
                          and Daniel G. A. Smith
                              RHF Reference
                       24 Threads, 137329 MiB Core
         ---------------------------------------------------------

  ==> Geometry <==

    Molecular point group: c1
    Full point group: C1

    Geometry (in Angstrom), charge = 0, multiplicity = 1:

       Center              X                  Y                   Z               Mass       
    ------------   -----------------  -----------------  -----------------  -----------------
         C           -0.661315426714    -0.052334449521    -0.000271617822    12.000000000000
         C            0.661315174402     0.052338492554     0.000272015591    12.000000000000
         H           -1.228096830091     0.003091534426    -0.915119135289     1.007825032230
         H           -1.213066300534    -0.196320546017     0.914112413840     1.007825032230
         H            1.213068388752     0.196296865559    -0.914115169917     1.007825032230
         H            1.228097746111    -0.003115993665     0.915117155198     1.007825032230

  Running in c1 symmetry.

  Rotational constants: A =      4.93985  B =      1.01519  C =      0.84213 [cm^-1]
  Rotational constants: A = 148093.07545  B =  30434.63984  C =  25246.27287 [MHz]
  Nuclear repulsion =   33.544433257783993

  Charge       = 0
  Multiplicity = 1
  Electrons    = 16
  Nalpha       = 8
  Nbeta        = 8

  ==> Algorithm <==

  SCF Algorithm Type is DF.
  DIIS enabled.
  MOM disabled.
  Fractional occupation disabled.
  Guess Type is READ.
  Energy threshold   = 1.00e-10
  Density threshold  = 1.00e-10
  Integral threshold = 0.00e+00

  ==> Primary Basis <==

  Basis Set: AUG-CC-PV(Q+D)Z
    Blend: AUG-CC-PV(Q+D)Z
    Number of shells: 96
    Number of basis function: 344
    Number of Cartesian functions: 430
    Spherical Harmonics?: true
    Max angular momentum: 4

   => Loading Basis Set <=

    Name: (AUG-CC-PV(Q+D)Z AUX)
    Role: JKFIT
    Keyword: DF_BASIS_SCF
    atoms 1-2 entry C          line   178 file /work/zw18965/.conda/envs/p4env/share/psi4/basis/aug-cc-pvqz-jkfit.gbs 
    atoms 3-6 entry H          line    70 file /work/zw18965/.conda/envs/p4env/share/psi4/basis/aug-cc-pvqz-jkfit.gbs 

   => Loading Basis Set <=

    Name: AUG-CC-PV(Q+D)Z
    Role: ORBITAL
    Keyword: BASIS
    atoms 1-2 entry C          line   319 file /work/zw18965/.conda/envs/p4env/share/psi4/basis/aug-cc-pv_qpd_z.gbs 
    atoms 3-6 entry H          line    56 file /work/zw18965/.conda/envs/p4env/share/psi4/basis/aug-cc-pv_qpd_z.gbs 

  Reading orbitals from file 180, no projection.

  ==> Pre-Iterations <==

   -------------------------------------------------------
    Irrep   Nso     Nmo     Nalpha   Nbeta   Ndocc  Nsocc
   -------------------------------------------------------
     A        344     344       0       0       0       0
   -------------------------------------------------------
    Total     344     344       8       8       8       0
   -------------------------------------------------------

  ==> Integral Setup <==

  DFHelper Memory: AOs need 0.570 GiB; user supplied 100.583 GiB. Using in-core AOs.

  ==> MemDFJK: Density-Fitted J/K Matrices <==

    J tasked:                   Yes
    K tasked:                   Yes
    wK tasked:                   No
    OpenMP threads:              24
    Memory [MiB]:            102996
    Algorithm:                 Core
    Schwarz Cutoff:           1E-12
    Mask sparsity (%):       0.2789
    Fitting Condition:        1E-10

   => Auxiliary Basis Set <=

  Basis Set: (AUG-CC-PV(Q+D)Z AUX)
    Blend: AUG-CC-PVQZ-JKFIT
    Number of shells: 140
    Number of basis function: 588
    Number of Cartesian functions: 800
    Spherical Harmonics?: true
    Max angular momentum: 5

  Minimum eigenvalue in the overlap matrix is 2.7470260426E-06.
  Using Symmetric Orthogonalization.

  SCF Guess: Orbitals guess was supplied from a previous computation.

  ==> Iterations <==

                           Total Energy        Delta E     RMS |[F,P]|

   @DF-RHF iter   0:   -78.06968358698904   -7.80697e+01   1.75658e-05 
   @DF-RHF iter   1:   -78.06974382403844   -6.02370e-05   2.92415e-06 DIIS
   @DF-RHF iter   2:   -78.06974439243621   -5.68398e-07   1.08471e-06 DIIS
   @DF-RHF iter   3:   -78.06974446576147   -7.33253e-08   2.32785e-07 DIIS
   @DF-RHF iter   4:   -78.06974447431001   -8.54854e-09   4.99156e-08 DIIS
   @DF-RHF iter   5:   -78.06974447477914   -4.69129e-10   1.12451e-08 DIIS
   @DF-RHF iter   6:   -78.06974447480852   -2.93738e-11   1.34935e-09 DIIS
   @DF-RHF iter   7:   -78.06974447480883   -3.12639e-13   2.19412e-10 DIIS
   @DF-RHF iter   8:   -78.06974447480916   -3.26850e-13   8.84190e-11 DIIS
  Energy and wave function converged.


  ==> Post-Iterations <==

    Orbital Energies [Eh]
    ---------------------

    Doubly Occupied:                                                      

       1A    -11.228301     2A    -11.226524     3A     -1.036581  
       4A     -0.794047     5A     -0.646551     6A     -0.589349  
       7A     -0.508736     8A     -0.378564  

    Virtual:                                                              

       9A      0.029229    10A      0.036282    11A      0.038252  
      12A      0.052908    13A      0.081082    14A      0.082622  
      15A      0.089530    16A      0.105558    17A      0.130088  
      18A      0.130521    19A      0.145590    20A      0.156301  
      21A      0.161499    22A      0.176389    23A      0.200504  
      24A      0.210914    25A      0.239281    26A      0.246920  
      27A      0.253034    28A      0.253306    29A      0.267727  
      30A      0.273489    31A      0.279046    32A      0.302574  
      33A      0.317418    34A      0.322037    35A      0.324036  
      36A      0.335884    37A      0.341162    38A      0.343315  
      39A      0.358700    40A      0.360252    41A      0.360499  
      42A      0.371882    43A      0.399067    44A      0.412022  
      45A      0.445110    46A      0.452937    47A      0.468309  
      48A      0.516991    49A      0.518547    50A      0.531598  
      51A      0.541441    52A      0.569512    53A      0.582646  
      54A      0.591146    55A      0.618462    56A      0.622757  
      57A      0.628059    58A      0.679445    59A      0.696911  
      60A      0.697740    61A      0.707337    62A      0.713470  
      63A      0.718625    64A      0.720681    65A      0.723509  
      66A      0.729869    67A      0.738980    68A      0.764744  
      69A      0.770168    70A      0.793998    71A      0.836629  
      72A      0.840603    73A      0.851477    74A      0.853262  
      75A      0.857481    76A      0.875667    77A      0.878299  
      78A      0.878960    79A      0.889848    80A      0.955355  
      81A      0.964515    82A      0.990407    83A      1.016624  
      84A      1.024703    85A      1.040462    86A      1.047907  
      87A      1.079394    88A      1.126332    89A      1.131334  
      90A      1.182229    91A      1.182870    92A      1.194402  
      93A      1.197552    94A      1.228651    95A      1.235716  
      96A      1.282374    97A      1.291853    98A      1.300171  
      99A      1.303084   100A      1.311876   101A      1.327717  
     102A      1.341471   103A      1.403679   104A      1.435841  
     105A      1.450761   106A      1.478220   107A      1.502486  
     108A      1.503974   109A      1.542698   110A      1.542700  
     111A      1.602325   112A      1.609991   113A      1.666123  
     114A      1.683534   115A      1.711188   116A      1.721752  
     117A      1.725291   118A      1.728568   119A      1.797760  
     120A      1.809597   121A      1.812898   122A      1.825289  
     123A      1.843074   124A      1.875765   125A      1.887715  
     126A      1.953386   127A      1.955154   128A      1.956866  
     129A      1.983993   130A      1.997332   131A      2.000845  
     132A      2.014044   133A      2.045140   134A      2.076319  
     135A      2.080891   136A      2.086015   137A      2.088450  
     138A      2.104833   139A      2.121096   140A      2.122991  
     141A      2.138159   142A      2.138903   143A      2.196411  
     144A      2.212737   145A      2.255766   146A      2.273241  
     147A      2.275652   148A      2.281851   149A      2.325754  
     150A      2.352989   151A      2.377756   152A      2.383999  
     153A      2.397487   154A      2.406170   155A      2.410055  
     156A      2.436060   157A      2.442771   158A      2.456698  
     159A      2.456739   160A      2.490733   161A      2.530098  
     162A      2.533374   163A      2.539379   164A      2.575160  
     165A      2.647982   166A      2.653252   167A      2.700995  
     168A      2.705996   169A      2.724918   170A      2.732322  
     171A      2.818662   172A      2.821620   173A      2.863808  
     174A      2.879066   175A      2.899862   176A      2.912256  
     177A      2.956155   178A      2.966516   179A      2.988797  
     180A      3.026959   181A      3.050869   182A      3.055526  
     183A      3.102569   184A      3.143362   185A      3.195128  
     186A      3.322883   187A      3.323851   188A      3.381592  
     189A      3.411415   190A      3.469197   191A      3.643247  
     192A      3.655441   193A      3.656440   194A      3.671225  
     195A      3.694428   196A      3.733216   197A      3.748874  
     198A      3.784672   199A      3.796489   200A      3.843939  
     201A      3.876764   202A      3.882435   203A      3.962681  
     204A      3.975644   205A      4.016922   206A      4.028857  
     207A      4.046713   208A      4.108868   209A      4.177049  
     210A      4.209557   211A      4.233252   212A      4.265179  
     213A      4.320988   214A      4.401062   215A      4.408470  
     216A      4.408922   217A      4.498953   218A      4.502237  
     219A      4.537318   220A      4.569278   221A      4.597500  
     222A      4.672482   223A      4.760629   224A      4.817255  
     225A      4.876638   226A      5.028343   227A      5.101146  
     228A      5.188852   229A      5.207161   230A      5.418953  
     231A      5.811940   232A      5.867747   233A      5.897936  
     234A      5.967675   235A      5.980389   236A      5.997890  
     237A      6.016925   238A      6.030081   239A      6.255765  
     240A      6.261881   241A      6.284850   242A      6.304191  
     243A      6.345450   244A      6.445347   245A      6.447976  
     246A      6.463008   247A      6.505809   248A      6.537579  
     249A      6.607556   250A      6.621948   251A      6.639380  
     252A      6.686364   253A      6.689603   254A      6.729337  
     255A      6.754002   256A      6.826102   257A      6.854196  
     258A      6.895731   259A      6.955657   260A      6.997931  
     261A      7.009882   262A      7.011543   263A      7.074341  
     264A      7.082163   265A      7.123903   266A      7.188994  
     267A      7.268401   268A      7.303183   269A      7.305670  
     270A      7.307999   271A      7.346017   272A      7.442171  
     273A      7.466222   274A      7.483799   275A      7.644908  
     276A      7.652915   277A      7.762303   278A      7.765496  
     279A      7.774818   280A      7.911665   281A      7.951096  
     282A      8.011660   283A      8.020140   284A      8.025698  
     285A      8.190764   286A      8.287114   287A      8.290812  
     288A      8.309170   289A      8.420126   290A      8.430448  
     291A      8.511793   292A      8.568003   293A      8.588994  
     294A      8.716202   295A      8.720825   296A      8.783374  
     297A      8.823924   298A      8.870702   299A      8.903340  
     300A      8.929044   301A      8.929705   302A      9.088968  
     303A      9.100164   304A      9.150063   305A      9.168685  
     306A      9.229254   307A      9.266647   308A      9.459657  
     309A      9.512169   310A      9.542136   311A      9.546510  
     312A      9.660412   313A      9.671098   314A      9.722421  
     315A      9.773195   316A      9.773575   317A      9.812580  
     318A      9.946964   319A      9.990308   320A      9.996445  
     321A     10.171369   322A     10.259744   323A     10.266381  
     324A     10.290449   325A     10.295689   326A     10.486895  
     327A     10.527174   328A     10.583113   329A     10.619668  
     330A     10.713395   331A     10.731425   332A     10.859428  
     333A     11.065986   334A     11.158484   335A     11.450425  
     336A     11.481908   337A     11.761531   338A     12.313528  
     339A     12.887594   340A     12.996192   341A     13.271466  
     342A     13.682567   343A     26.794068   344A     27.047529  

    Final Occupation by Irrep:
              A 
    DOCC [     8 ]

  @DF-RHF Final Energy:   -78.06974447480916

   => Energetics <=

    Nuclear Repulsion Energy =             33.5444332577839930
    One-Electron Energy =                -170.4110480968891181
    Two-Electron Energy =                  58.7968703642959696
    Total Energy =                        -78.0697444748091556

Computation Completed


Properties will be evaluated at   0.000000,   0.000000,   0.000000 [a0]

Properties computed using the SCF density matrix

  Nuclear Dipole Moment: [e a0]
     X:     0.0000      Y:    -0.0000      Z:    -0.0000

  Electronic Dipole Moment: [e a0]
     X:    -0.0000      Y:     0.0000      Z:     0.0000

  Dipole Moment: [e a0]
     X:     0.0000      Y:    -0.0000      Z:    -0.0000     Total:     0.0000

  Dipole Moment: [D]
     X:     0.0000      Y:    -0.0000      Z:    -0.0000     Total:     0.0000


*** tstop() called on bp1-compute00143.data.bp.acrc.priv at Mon Apr 19 16:12:36 2021
Module time:
	user time   =      27.24 seconds =       0.45 minutes
	system time =       1.06 seconds =       0.02 minutes
	total time  =          1 seconds =       0.02 minutes
Total time:
	user time   =     341.73 seconds =       5.70 minutes
	system time =      20.70 seconds =       0.34 minutes
	total time  =         26 seconds =       0.43 minutes

*** tstart() called on bp1-compute00143.data.bp.acrc.priv
*** at Mon Apr 19 16:12:36 2021


  //>>>>>>>>>>>>>>>>>>>>>>>>>>>>>>>>>>>//
  //               DFMP2               //
  //<<<<<<<<<<<<<<<<<<<<<<<<<<<<<<<<<<<//

   => Loading Basis Set <=

    Name: (AUG-CC-PV(Q+D)Z AUX)
    Role: RIFIT
    Keyword: DF_BASIS_MP2
    atoms 1-2 entry C          line   184 file /work/zw18965/.conda/envs/p4env/share/psi4/basis/aug-cc-pvqz-ri.gbs 
    atoms 3-6 entry H          line    30 file /work/zw18965/.conda/envs/p4env/share/psi4/basis/aug-cc-pvqz-ri.gbs 

	 --------------------------------------------------------
	                          DF-MP2                         
	      2nd-Order Density-Fitted Moller-Plesset Theory     
	              RMP2 Wavefunction,  24 Threads             
	                                                         
	        Rob Parrish, Justin Turney, Andy Simmonett,      
	           Ed Hohenstein, and C. David Sherrill          
	 --------------------------------------------------------

   => Auxiliary Basis Set <=

  Basis Set: (AUG-CC-PV(Q+D)Z AUX)
    Blend: AUG-CC-PVQZ-RI
    Number of shells: 152
    Number of basis function: 656
    Number of Cartesian functions: 894
    Spherical Harmonics?: true
    Max angular momentum: 5

	 --------------------------------------------------------
	                 NBF =   344, NAUX =   656
	 --------------------------------------------------------
	   CLASS    FOCC     OCC    AOCC    AVIR     VIR    FVIR
	   PAIRS       0       8       8     336     336       0
	 --------------------------------------------------------

  DFHelper Memory: AOs need 0.570 GiB; user supplied 100.583 GiB. Using in-core AOs.


         ------------------------------------------------------------
                                     CPHF                           
                                  Rob Parrish                       
         ------------------------------------------------------------

  ==> Geometry <==

    Molecular point group: c1
    Full point group: C1

    Geometry (in Angstrom), charge = 0, multiplicity = 1:

       Center              X                  Y                   Z               Mass       
    ------------   -----------------  -----------------  -----------------  -----------------
         C           -0.661315426714    -0.052334449521    -0.000271617822    12.000000000000
         C            0.661315174402     0.052338492554     0.000272015591    12.000000000000
         H           -1.228096830091     0.003091534426    -0.915119135289     1.007825032230
         H           -1.213066300534    -0.196320546017     0.914112413840     1.007825032230
         H            1.213068388752     0.196296865559    -0.914115169917     1.007825032230
         H            1.228097746111    -0.003115993665     0.915117155198     1.007825032230

  Nuclear repulsion =   33.544433257783993
  Reference energy  =  -78.069744474809156

  ==> Basis Set <==

  Basis Set: AUG-CC-PV(Q+D)Z
    Blend: AUG-CC-PV(Q+D)Z
    Number of shells: 96
    Number of basis function: 344
    Number of Cartesian functions: 430
    Spherical Harmonics?: true
    Max angular momentum: 4

  ==> CGRSolver (by Rob Parrish) <==

   Number of roots    =         1
   Preconditioning    =    JACOBI
   Convergence cutoff =     1E-06
   Maximum iterations =       100

  ==> CPHFRHamiltonian (by Rob Parrish) <== 

  ==> MemDFJK: Density-Fitted J/K Matrices <==

    J tasked:                   Yes
    K tasked:                   Yes
    wK tasked:                   No
    OpenMP threads:              24
    Memory [MiB]:            102996
    Algorithm:                 Core
    Schwarz Cutoff:           1E-12
    Mask sparsity (%):       0.2789
    Fitting Condition:        1E-10

   => Auxiliary Basis Set <=

  Basis Set: (AUG-CC-PV(Q+D)Z AUX)
    Blend: AUG-CC-PVQZ-JKFIT
    Number of shells: 140
    Number of basis function: 588
    Number of Cartesian functions: 800
    Spherical Harmonics?: true
    Max angular momentum: 5

  ==> CPHF Iterations <==

  => Iterations <=

             Iter  Converged  Remaining    Residual
  CGR           1          0          1   7.485E-02
  CGR           2          0          1   1.181E-02
  CGR           3          0          1   2.585E-03
  CGR           4          0          1   4.577E-04
  CGR           5          0          1   6.994E-05
  CGR           6          0          1   6.732E-06
  CGR           7          1          0   7.680E-07

    CGRSolver converged.

  ==> DFCorrGrad: Density-Fitted Correlated Gradients <==

    OpenMP threads:             24
    Integrals threads:          24
    Memory [GiB]:          100.583
    Schwarz Cutoff:          0E+00
    Fitting Condition:       1E-10

   => Auxiliary Basis Set <=

  Basis Set: (AUG-CC-PV(Q+D)Z AUX)
    Blend: AUG-CC-PVQZ-JKFIT
    Number of shells: 140
    Number of basis function: 588
    Number of Cartesian functions: 800
    Spherical Harmonics?: true
    Max angular momentum: 5

	-----------------------------------------------------------
	 ==================> DF-MP2 Energies <==================== 
	-----------------------------------------------------------
	 Reference Energy          =     -78.0697444748091556 [Eh]
	 Singles Energy            =      -0.0000000000000000 [Eh]
	 Same-Spin Energy          =      -0.0813662440587671 [Eh]
	 Opposite-Spin Energy      =      -0.3336489880288156 [Eh]
	 Correlation Energy        =      -0.4150152320875827 [Eh]
	 Total Energy              =     -78.4847597068967389 [Eh]
	-----------------------------------------------------------
	 ================> DF-SCS-MP2 Energies <================== 
	-----------------------------------------------------------
	 SCS Same-Spin Scale       =       0.3333333333333333 [-]
	 SCS Opposite-Spin Scale   =       1.2000000000000000 [-]
	 SCS Same-Spin Energy      =      -0.0271220813529224 [Eh]
	 SCS Opposite-Spin Energy  =      -0.4003787856345787 [Eh]
	 SCS Correlation Energy    =      -0.4275008669875011 [Eh]
	 SCS Total Energy          =     -78.4972453417966562 [Eh]
	-----------------------------------------------------------


  -Total Gradient:
     Atom            X                  Y                   Z
    ------   -----------------  -----------------  -----------------
       1        0.000011284344     0.000003523016     0.000000244559
       2       -0.000011487372    -0.000000141810     0.000000171143
       3        0.000010968810    -0.000010893241     0.000096981077
       4        0.000009435277     0.000010305658    -0.000097204236
       5       -0.000009284336    -0.000011953936     0.000096876989
       6       -0.000010916722     0.000009160313    -0.000097069532


*** tstop() called on bp1-compute00143.data.bp.acrc.priv at Mon Apr 19 16:12:46 2021
Module time:
	user time   =     120.15 seconds =       2.00 minutes
	system time =       5.24 seconds =       0.09 minutes
	total time  =         10 seconds =       0.17 minutes
Total time:
	user time   =     461.89 seconds =       7.70 minutes
[...]
     X:     0.0000      Y:    -0.0000      Z:    -0.0000

  Electronic Dipole Moment: [e a0]
     X:     0.0006      Y:     0.0001      Z:     0.0000

  Dipole Moment: [e a0]
     X:     0.0006      Y:     0.0000      Z:    -0.0000     Total:     0.0006

  Dipole Moment: [D]
     X:     0.0016      Y:     0.0001      Z:    -0.0000     Total:     0.0016


*** tstop() called on bp1-compute00143.data.bp.acrc.priv at Mon Apr 19 16:17:49 2021
Module time:
	user time   =      41.97 seconds =       0.70 minutes
	system time =       1.52 seconds =       0.03 minutes
	total time  =          2 seconds =       0.03 minutes
Total time:
	user time   =    4596.73 seconds =      76.61 minutes
	system time =     195.02 seconds =       3.25 minutes
	total time  =        339 seconds =       5.65 minutes

*** tstart() called on bp1-compute00143.data.bp.acrc.priv
*** at Mon Apr 19 16:17:49 2021


  //>>>>>>>>>>>>>>>>>>>>>>>>>>>>>>>>>>>//
  //               DFMP2               //
  //<<<<<<<<<<<<<<<<<<<<<<<<<<<<<<<<<<<//

   => Loading Basis Set <=

    Name: (AUG-CC-PV(Q+D)Z AUX)
    Role: RIFIT
    Keyword: DF_BASIS_MP2
    atoms 1-2 entry C          line   184 file /work/zw18965/.conda/envs/p4env/share/psi4/basis/aug-cc-pvqz-ri.gbs 
    atoms 3-6 entry H          line    30 file /work/zw18965/.conda/envs/p4env/share/psi4/basis/aug-cc-pvqz-ri.gbs 

	 --------------------------------------------------------
	                          DF-MP2                         
	      2nd-Order Density-Fitted Moller-Plesset Theory     
	              RMP2 Wavefunction,  24 Threads             
	                                                         
	        Rob Parrish, Justin Turney, Andy Simmonett,      
	           Ed Hohenstein, and C. David Sherrill          
	 --------------------------------------------------------

   => Auxiliary Basis Set <=

  Basis Set: (AUG-CC-PV(Q+D)Z AUX)
    Blend: AUG-CC-PVQZ-RI
    Number of shells: 152
    Number of basis function: 656
    Number of Cartesian functions: 894
    Spherical Harmonics?: true
    Max angular momentum: 5

	 --------------------------------------------------------
	                 NBF =   344, NAUX =   656
	 --------------------------------------------------------
	   CLASS    FOCC     OCC    AOCC    AVIR     VIR    FVIR
	   PAIRS       0       8       8     336     336       0
	 --------------------------------------------------------

  DFHelper Memory: AOs need 0.570 GiB; user supplied 100.583 GiB. Using in-core AOs.


         ------------------------------------------------------------
                                     CPHF                           
                                  Rob Parrish                       
         ------------------------------------------------------------

  ==> Geometry <==

    Molecular point group: c1
    Full point group: C1

    Geometry (in Angstrom), charge = 0, multiplicity = 1:

       Center              X                  Y                   Z               Mass       
    ------------   -----------------  -----------------  -----------------  -----------------
         C           -0.661315426714    -0.052334449521    -0.000271617822    12.000000000000
         C            0.661315174402     0.052338492554     0.000272015591    12.000000000000
         H           -1.228096830091     0.003091534426    -0.915119135289     1.007825032230
         H           -1.213066300534    -0.196320546017     0.914112413840     1.007825032230
         H            1.213083610174     0.196094904343    -0.912262561285     1.007825032230
         H            1.228082524689    -0.002914032449     0.913264546566     1.007825032230

  Nuclear repulsion =   33.555029733032271
  Reference energy  =  -78.069760813373605

  ==> Basis Set <==

  Basis Set: AUG-CC-PV(Q+D)Z
    Blend: AUG-CC-PV(Q+D)Z
    Number of shells: 96
    Number of basis function: 344
    Number of Cartesian functions: 430
    Spherical Harmonics?: true
    Max angular momentum: 4

  ==> CGRSolver (by Rob Parrish) <==

   Number of roots    =         1
   Preconditioning    =    JACOBI
   Convergence cutoff =     1E-06
   Maximum iterations =       100

  ==> CPHFRHamiltonian (by Rob Parrish) <== 

  ==> MemDFJK: Density-Fitted J/K Matrices <==

    J tasked:                   Yes
    K tasked:                   Yes
    wK tasked:                   No
    OpenMP threads:              24
    Memory [MiB]:            102996
    Algorithm:                 Core
    Schwarz Cutoff:           1E-12
    Mask sparsity (%):       0.2789
    Fitting Condition:        1E-10

   => Auxiliary Basis Set <=

  Basis Set: (AUG-CC-PV(Q+D)Z AUX)
    Blend: AUG-CC-PVQZ-JKFIT
    Number of shells: 140
    Number of basis function: 588
    Number of Cartesian functions: 800
    Spherical Harmonics?: true
    Max angular momentum: 5

  ==> CPHF Iterations <==

  => Iterations <=

             Iter  Converged  Remaining    Residual
  CGR           1          0          1   7.486E-02
  CGR           2          0          1   1.181E-02
  CGR           3          0          1   2.588E-03
  CGR           4          0          1   4.603E-04
  CGR           5          0          1   8.592E-05
  CGR           6          0          1   2.914E-05
  CGR           7          0          1   3.445E-06
  CGR           8          1          0   4.184E-07

    CGRSolver converged.

  ==> DFCorrGrad: Density-Fitted Correlated Gradients <==

    OpenMP threads:             24
    Integrals threads:          24
    Memory [GiB]:          100.583
    Schwarz Cutoff:          0E+00
    Fitting Condition:       1E-10

   => Auxiliary Basis Set <=

  Basis Set: (AUG-CC-PV(Q+D)Z AUX)
    Blend: AUG-CC-PVQZ-JKFIT
    Number of shells: 140
    Number of basis function: 588
    Number of Cartesian functions: 800
    Spherical Harmonics?: true
    Max angular momentum: 5

	-----------------------------------------------------------
	 ==================> DF-MP2 Energies <==================== 
	-----------------------------------------------------------
	 Reference Energy          =     -78.0697608133736054 [Eh]
	 Singles Energy            =      -0.0000000000000000 [Eh]
	 Same-Spin Energy          =      -0.0813646507600523 [Eh]
	 Opposite-Spin Energy      =      -0.3336298103885896 [Eh]
	 Correlation Energy        =      -0.4149944611486419 [Eh]
	 Total Energy              =     -78.4847552745222430 [Eh]
	-----------------------------------------------------------
	 ================> DF-SCS-MP2 Energies <================== 
	-----------------------------------------------------------
	 SCS Same-Spin Scale       =       0.3333333333333333 [-]
	 SCS Opposite-Spin Scale   =       1.2000000000000000 [-]
	 SCS Same-Spin Energy      =      -0.0271215502533508 [Eh]
	 SCS Opposite-Spin Energy  =      -0.4003557724663075 [Eh]
	 SCS Correlation Energy    =      -0.4274773227196583 [Eh]
	 SCS Total Energy          =     -78.4972381360932587 [Eh]
	-----------------------------------------------------------


  -Total Gradient:
     Atom            X                  Y                   Z
    ------   -----------------  -----------------  -----------------
       1       -0.000019584481     0.000001082630     0.000000215377
       2        0.000915538804     0.000073210318     0.000000551525
       3        0.000008835219    -0.000010853007     0.000095071673
       4        0.000007322449     0.000009927130    -0.000095282180
       5       -0.000446542536    -0.000162636714     0.001155233291
       6       -0.000465569455     0.000089269643    -0.001155789687


*** tstop() called on bp1-compute00143.data.bp.acrc.priv at Mon Apr 19 16:17:59 2021
Module time:
	user time   =     120.17 seconds =       2.00 minutes
	system time =       5.07 seconds =       0.08 minutes
	total time  =         10 seconds =       0.17 minutes
Total time:
	user time   =    4716.91 seconds =      78.62 minutes
	system time =     200.10 seconds =       3.33 minutes
	total time  =        349 seconds =       5.82 minutes

         ----------------------------------------------------------
                                   FINDIF
                     R. A. King and Jonathon Misiewicz
         ---------------------------------------------------------

  Computing second-derivative from gradients using projected, 
  symmetry-adapted, cartesian coordinates.

  25 gradients passed in, including the reference geometry.
  Generating complete list of displacements from unique ones.


-------------------------------------------------------------


  ==> Harmonic Vibrational Analysis <==

  non-mass-weighted Hessian:       Symmetric? True   Hermitian? True   Lin Dep Dim?  6 (0)
  projection of translations (True) and rotations (True) removed 6 degrees of freedom (6)
  total projector:                 Symmetric? True   Hermitian? True   Lin Dep Dim?  6 (6)
  mass-weighted Hessian:           Symmetric? True   Hermitian? True   Lin Dep Dim?  6 (0)
  pre-proj  low-frequency mode:    0.0000i [cm^-1]
  pre-proj  low-frequency mode:    0.0000i [cm^-1]
  pre-proj  low-frequency mode:    0.0000i [cm^-1]
  pre-proj  low-frequency mode:    0.0000i [cm^-1]
  pre-proj  low-frequency mode:    0.0000  [cm^-1]
  pre-proj  low-frequency mode:    0.0000  [cm^-1]
  pre-proj  all modes:['0.0000i' '0.0000i' '0.0000i' '0.0000i' '0.0000' '0.0000' '829.1621'
 '986.0401' '988.3791' '1079.3118' '1246.5011' '1386.7591' '1486.0145'
 '1689.4785' '3190.0145' '3206.6875' '3281.0711' '3306.4565']
  projected mass-weighted Hessian: Symmetric? True   Hermitian? True   Lin Dep Dim?  6 (6)
  post-proj low-frequency mode:    0.0000i [cm^-1] (TR)
  post-proj low-frequency mode:    0.0000i [cm^-1] (TR)
  post-proj low-frequency mode:    0.0000i [cm^-1] (TR)
  post-proj low-frequency mode:    0.0000  [cm^-1] (TR)
  post-proj low-frequency mode:    0.0000  [cm^-1] (TR)
  post-proj low-frequency mode:    0.0000  [cm^-1] (TR)
  post-proj  all modes:['0.0000i' '0.0000i' '0.0000i' '0.0000' '0.0000' '0.0000' '829.1621'
 '986.0401' '988.3791' '1079.3118' '1246.5011' '1386.7591' '1486.0145'
 '1689.4785' '3190.0145' '3206.6875' '3281.0711' '3306.4565']

  Vibration                       7                   8                   9           
  Freq [cm^-1]                 829.1621            986.0401            988.3791       
  Irrep                           A                   A                   A           
  Reduced mass [u]              1.0417              1.5119              1.1607        
  Force const [mDyne/A]         0.4220              0.8661              0.6681        
  Turning point v=0 [a0]        0.3733              0.2842              0.3240        
  RMS dev v=0 [a0 u^1/2]        0.2694              0.2471              0.2468        
  Char temp [K]               1192.9797           1418.6922           1422.0575       
  ----------------------------------------------------------------------------------
      1   C                0.00 -0.00  0.04   -0.01  0.15  0.02    0.01 -0.08 -0.01   
      2   C                0.00 -0.00  0.04    0.01 -0.15 -0.02    0.01 -0.08 -0.01   
      3   H                0.44  0.06 -0.23    0.04 -0.48 -0.05   -0.04  0.49  0.05   
      4   H               -0.44 -0.01 -0.23    0.04 -0.48 -0.05   -0.04  0.49  0.05   
      5   H               -0.44 -0.01 -0.23   -0.04  0.48  0.05   -0.04  0.49  0.05   
      6   H                0.44  0.06 -0.23   -0.04  0.48  0.05   -0.04  0.49  0.05   

  Vibration                       10                  11                  12          
  Freq [cm^-1]                1079.3118           1246.5011           1386.7591       
  Irrep                           A                   A                   A           
  Reduced mass [u]              1.0078              1.5172              1.2514        
  Force const [mDyne/A]         0.6917              1.3890              1.4179        
  Turning point v=0 [a0]        0.3327              0.2523              0.2634        
  RMS dev v=0 [a0 u^1/2]        0.2362              0.2198              0.2084        
  Char temp [K]               1552.8894           1793.4375           1995.2377       
  ----------------------------------------------------------------------------------
      1   C               -0.00 -0.00  0.00    0.00 -0.02  0.15    0.10  0.01  0.00   
      2   C                0.00  0.00 -0.00   -0.00  0.02 -0.15   -0.10 -0.01 -0.00   
      3   H               -0.04  0.50  0.05    0.47  0.05 -0.14    0.45  0.06 -0.19   
      4   H                0.04 -0.50 -0.05   -0.47 -0.02 -0.14    0.46  0.02  0.19   
      5   H                0.04 -0.50 -0.05    0.47  0.02  0.14   -0.46 -0.02 -0.19   
      6   H               -0.04  0.50  0.05   -0.47 -0.05  0.14   -0.45 -0.06  0.19   

  Vibration                       13                  14                  15          
  Freq [cm^-1]                1486.0145           1689.4785           3190.0145       
  Irrep                           A                   A                   A           
  Reduced mass [u]              1.1128              2.9615              1.0470        
  Force const [mDyne/A]         1.4478              4.9804              6.2776        
  Turning point v=0 [a0]        0.2698              0.1551              0.1899        
  RMS dev v=0 [a0 u^1/2]        0.2013              0.1888              0.1374        
  Char temp [K]               2138.0440           2430.7833           4589.7206       
  ----------------------------------------------------------------------------------
      1   C               -0.07 -0.01 -0.00    0.30  0.02  0.00   -0.04 -0.00 -0.00   
      2   C               -0.07 -0.01 -0.00   -0.30 -0.02 -0.00   -0.04 -0.00 -0.00   
      3   H                0.41  0.06 -0.28   -0.25 -0.06  0.37    0.25 -0.03  0.43   
      4   H                0.41  0.00  0.28   -0.26  0.02 -0.37    0.25  0.07 -0.43   
      5   H                0.41  0.00  0.28    0.26 -0.02  0.37    0.25  0.07 -0.43   
      6   H                0.41  0.06 -0.28    0.25  0.06 -0.37    0.25 -0.03  0.43   

  Vibration                       16                  17                  18          
  Freq [cm^-1]                3206.6875           3281.0711           3306.4565       
  Irrep                           A                   A                   A           
  Reduced mass [u]              1.0741              1.1160              1.1188        
  Force const [mDyne/A]         6.5074              7.0787              7.2065        
  Turning point v=0 [a0]        0.1870              0.1813              0.1804        
  RMS dev v=0 [a0 u^1/2]        0.1370              0.1355              0.1349        
  Char temp [K]               4613.7094           4720.7308           4757.2548       
  ----------------------------------------------------------------------------------
      1   C               -0.05 -0.00  0.00   -0.00  0.01 -0.07   -0.00  0.01 -0.07   
      2   C                0.05  0.00  0.00    0.00 -0.01  0.07   -0.00  0.01 -0.07   
      3   H                0.26 -0.03  0.43    0.26 -0.03  0.42    0.26 -0.03  0.42   
      4   H                0.25  0.07 -0.43   -0.26 -0.07  0.42   -0.26 -0.07  0.42   
      5   H               -0.25 -0.07  0.43    0.26  0.07 -0.42   -0.26 -0.07  0.42   
      6   H               -0.26  0.03 -0.43   -0.26  0.03 -0.42    0.26 -0.03  0.42   

  ==> Thermochemistry Components <==

  Entropy, S
    Electronic S            0.000 [cal/(mol K)]        0.000 [J/(mol K)]       0.00000000 [mEh/K] (multiplicity = 1)
    Translational S        35.927 [cal/(mol K)]      150.318 [J/(mol K)]       0.05725309 [mEh/K] (mol. weight = 28.0313 [u], P = 101325.00 [Pa])
    Rotational S           18.586 [cal/(mol K)]       77.763 [J/(mol K)]       0.02961847 [mEh/K] (symmetry no. = 1)
    Vibrational S           0.521 [cal/(mol K)]        2.178 [J/(mol K)]       0.00082948 [mEh/K]
  Total S                  55.033 [cal/(mol K)]      230.259 [J/(mol K)]       0.08770105 [mEh/K]
  Correction S              0.000 [cal/(mol K)]        0.000 [J/(mol K)]       0.00000000 [mEh/K]

  Constant volume heat capacity, Cv
    Electronic Cv           0.000 [cal/(mol K)]        0.000 [J/(mol K)]       0.00000000 [mEh/K]
    Translational Cv        2.981 [cal/(mol K)]       12.472 [J/(mol K)]       0.00475022 [mEh/K]
    Rotational Cv           2.981 [cal/(mol K)]       12.472 [J/(mol K)]       0.00475022 [mEh/K]
    Vibrational Cv          2.089 [cal/(mol K)]        8.740 [J/(mol K)]       0.00332903 [mEh/K]
  Total Cv                  8.051 [cal/(mol K)]       33.684 [J/(mol K)]       0.01282947 [mEh/K]
  Correction Cv             0.000 [cal/(mol K)]        0.000 [J/(mol K)]       0.00000000 [mEh/K]

  Constant pressure heat capacity, Cp
    Electronic Cp           0.000 [cal/(mol K)]        0.000 [J/(mol K)]       0.00000000 [mEh/K]
    Translational Cp        4.968 [cal/(mol K)]       20.786 [J/(mol K)]       0.00791703 [mEh/K]
    Rotational Cp           2.981 [cal/(mol K)]       12.472 [J/(mol K)]       0.00475022 [mEh/K]
    Vibrational Cp          2.089 [cal/(mol K)]        8.740 [J/(mol K)]       0.00332903 [mEh/K]
  Total Cp                 10.038 [cal/(mol K)]       41.998 [J/(mol K)]       0.01599628 [mEh/K]
  Correction Cp             0.000 [cal/(mol K)]        0.000 [J/(mol K)]       0.00000000 [mEh/K]

  ==> Thermochemistry Energy Analysis <==

  Raw electronic energy, E0
  Total E0, Electronic energy at well bottom at 0 [K]                  -78.48475971 [Eh]

  Zero-point energy, ZPE_vib = Sum_i nu_i / 2
    Electronic ZPE          0.000 [kcal/mol]        0.000 [kJ/mol]       0.00000000 [Eh]
    Translational ZPE       0.000 [kcal/mol]        0.000 [kJ/mol]       0.00000000 [Eh]
    Rotational ZPE          0.000 [kcal/mol]        0.000 [kJ/mol]       0.00000000 [Eh]
    Vibrational ZPE        32.417 [kcal/mol]      135.632 [kJ/mol]       0.05165945 [Eh]       11337.938 [cm^-1]
  Correction ZPE           32.417 [kcal/mol]      135.632 [kJ/mol]       0.05165945 [Eh]       11337.938 [cm^-1]
  Total ZPE, Electronic energy at 0 [K]                                -78.43310026 [Eh]

  Thermal Energy, E (includes ZPE)
    Electronic E            0.000 [kcal/mol]        0.000 [kJ/mol]       0.00000000 [Eh]
    Translational E         0.889 [kcal/mol]        3.718 [kJ/mol]       0.00141628 [Eh]
    Rotational E            0.889 [kcal/mol]        3.718 [kJ/mol]       0.00141628 [Eh]
    Vibrational E          32.545 [kcal/mol]      136.168 [kJ/mol]       0.05186349 [Eh]
  Correction E             34.322 [kcal/mol]      143.604 [kJ/mol]       0.05469604 [Eh]
  Total E, Electronic energy at  298.15 [K]                            -78.43006367 [Eh]

  Enthalpy, H_trans = E_trans + k_B * T
    Electronic H            0.000 [kcal/mol]        0.000 [kJ/mol]       0.00000000 [Eh]
    Translational H         1.481 [kcal/mol]        6.197 [kJ/mol]       0.00236046 [Eh]
    Rotational H            0.889 [kcal/mol]        3.718 [kJ/mol]       0.00141628 [Eh]
    Vibrational H          32.545 [kcal/mol]      136.168 [kJ/mol]       0.05186349 [Eh]
  Correction H             34.915 [kcal/mol]      146.083 [kJ/mol]       0.05564023 [Eh]
  Total H, Enthalpy at  298.15 [K]                                     -78.42911948 [Eh]

  Gibbs free energy, G = H - T * S
    Electronic G            0.000 [kcal/mol]        0.000 [kJ/mol]       0.00000000 [Eh]
    Translational G        -9.230 [kcal/mol]      -38.620 [kJ/mol]      -0.01470955 [Eh]
    Rotational G           -4.653 [kcal/mol]      -19.467 [kJ/mol]      -0.00741447 [Eh]
    Vibrational G          32.390 [kcal/mol]      135.518 [kJ/mol]       0.05161618 [Eh]
  Correction G             18.507 [kcal/mol]       77.432 [kJ/mol]       0.02949216 [Eh]
  Total G, Free enthalpy at  298.15 [K]                                -78.45526755 [Eh]

    Psi4 stopped on: Monday, 19 April 2021 04:17PM
    Psi4 wall time for execution: 0:05:48.65

*** Psi4 exiting successfully. Buy a developer a beer!
