
    -----------------------------------------------------------------------
          Psi4: An Open-Source Ab Initio Electronic Structure Package
                               Psi4 1.3.2 release

                         Git: Rev {HEAD} ecbda83 


    R. M. Parrish, L. A. Burns, D. G. A. Smith, A. C. Simmonett,
    A. E. DePrince III, E. G. Hohenstein, U. Bozkaya, A. Yu. Sokolov,
    R. Di Remigio, R. M. Richard, J. F. Gonthier, A. M. James,
    H. R. McAlexander, A. Kumar, M. Saitow, X. Wang, B. P. Pritchard,
    P. Verma, H. F. Schaefer III, K. Patkowski, R. A. King, E. F. Valeev,
    F. A. Evangelista, J. M. Turney, T. D. Crawford, and C. D. Sherrill,
    J. Chem. Theory Comput. 13(7) pp 3185--3197 (2017).
    (doi: 10.1021/acs.jctc.7b00174)


                         Additional Contributions by
    P. Kraus, H. Kruse, M. H. Lechner, M. C. Schieber, R. A. Shaw,
    A. Alenaizan, R. Galvelis, Z. L. Glick, S. Lehtola, and J. P. Misiewicz

    -----------------------------------------------------------------------


    Psi4 started on: Monday, 19 April 2021 04:08PM

    Process ID: 204125
    Host:       bp1-compute00148.data.bp.acrc.priv
    PSIDATADIR: /work/zw18965/.conda/envs/p4env/share/psi4
    Memory:     500.0 MiB
    Threads:    24
    
  ==> Input File <==

--------------------------------------------------------------------------
memory 144 GB

molecule {
0 1
C     0.000000000000   0.062629493479   0.000000000000
Cl    0.000000000000   0.968685269334  -1.404771567375
Cl    0.000000000000   0.852005827204   1.473501008275}

set basis aug-cc-pV(Q+d)Z
 
optimize("MP2")
frequencies("MP2")--------------------------------------------------------------------------

  Memory set to 134.110 GiB by Python driver.
gradient() will perform analytic gradient computation.
    SCF Algorithm Type (re)set to DF.

*** tstart() called on bp1-compute00148.data.bp.acrc.priv
*** at Mon Apr 19 16:08:01 2021

   => Loading Basis Set <=

    Name: AUG-CC-PV(Q+D)Z
    Role: ORBITAL
    Keyword: BASIS
    atoms 1   entry C          line   319 file /work/zw18965/.conda/envs/p4env/share/psi4/basis/aug-cc-pv_qpd_z.gbs 
    atoms 2-3 entry CL         line  1246 file /work/zw18965/.conda/envs/p4env/share/psi4/basis/aug-cc-pv_qpd_z.gbs 


         ---------------------------------------------------------
                                   SCF
               by Justin Turney, Rob Parrish, Andy Simmonett
                          and Daniel G. A. Smith
                              RHF Reference
                       24 Threads, 137329 MiB Core
         ---------------------------------------------------------

  ==> Geometry <==

    Molecular point group: c2v
    Full point group: C2v

    Geometry (in Angstrom), charge = 0, multiplicity = 1:

       Center              X                  Y                   Z               Mass       
    ------------   -----------------  -----------------  -----------------  -----------------
         C            0.000000000000     0.000000000000    -0.724160015554    12.000000000000
         CL          -0.000000000000     1.440318290514     0.124252291971    34.968852682000
         CL           0.000000000000    -1.440318290514     0.124252291971    34.968852682000

  Running in c2v symmetry.

  Rotational constants: A =      2.28651  B =      0.11619  C =      0.11057 [cm^-1]
  Rotational constants: A =  68547.94691  B =   3483.28387  C =   3314.83934 [MHz]
  Nuclear repulsion =  117.669010643350347

  Charge       = 0
  Multiplicity = 1
  Electrons    = 40
  Nalpha       = 20
  Nbeta        = 20

  ==> Algorithm <==

  SCF Algorithm Type is DF.
  DIIS enabled.
  MOM disabled.
  Fractional occupation disabled.
  Guess Type is SAD.
  Energy threshold   = 1.00e-10
  Density threshold  = 1.00e-10
  Integral threshold = 0.00e+00

  ==> Primary Basis <==

  Basis Set: AUG-CC-PV(Q+D)Z
    Blend: AUG-CC-PV(Q+D)Z
    Number of shells: 66
    Number of basis function: 258
    Number of Cartesian functions: 335
    Spherical Harmonics?: true
    Max angular momentum: 4

   => Loading Basis Set <=

    Name: (AUG-CC-PV(Q+D)Z AUX)
    Role: JKFIT
    Keyword: DF_BASIS_SCF
    atoms 1   entry C          line   178 file /work/zw18965/.conda/envs/p4env/share/psi4/basis/aug-cc-pvqz-jkfit.gbs 
    atoms 2-3 entry CL         line   904 file /work/zw18965/.conda/envs/p4env/share/psi4/basis/aug-cc-pvqz-jkfit.gbs 

  ==> Pre-Iterations <==

   -------------------------------------------------------
    Irrep   Nso     Nmo     Nalpha   Nbeta   Ndocc  Nsocc
   -------------------------------------------------------
     A1        87      87       0       0       0       0
     A2        44      44       0       0       0       0
     B1        52      52       0       0       0       0
     B2        75      75       0       0       0       0
   -------------------------------------------------------
    Total     258     258      20      20      20       0
   -------------------------------------------------------

  ==> Integral Setup <==

  DFHelper Memory: AOs need 0.282 GiB; user supplied 100.583 GiB. Using in-core AOs.

  ==> MemDFJK: Density-Fitted J/K Matrices <==

    J tasked:                   Yes
    K tasked:                   Yes
    wK tasked:                   No
    OpenMP threads:              24
    Memory [MiB]:            102996
    Algorithm:                 Core
    Schwarz Cutoff:           1E-12
    Mask sparsity (%):       0.5889
    Fitting Condition:        1E-10

   => Auxiliary Basis Set <=

  Basis Set: (AUG-CC-PV(Q+D)Z AUX)
    Blend: AUG-CC-PVQZ-JKFIT
    Number of shells: 126
    Number of basis function: 510
    Number of Cartesian functions: 692
    Spherical Harmonics?: true
    Max angular momentum: 5

  Minimum eigenvalue in the overlap matrix is 4.5655993269E-05.
  Using Symmetric Orthogonalization.

  SCF Guess: Superposition of Atomic Densities via on-the-fly atomic UHF.

  ==> Iterations <==

                           Total Energy        Delta E     RMS |[F,P]|

   @DF-RHF iter SAD:  -956.57375331742787   -9.56574e+02   0.00000e+00 
   @DF-RHF iter   1:  -956.78586323481932   -2.12110e-01   1.61055e-03 DIIS
   @DF-RHF iter   2:  -956.81033375391416   -2.44705e-02   5.38816e-04 DIIS
   @DF-RHF iter   3:  -956.81405420048463   -3.72045e-03   2.67396e-04 DIIS
   @DF-RHF iter   4:  -956.81524074078686   -1.18654e-03   9.80714e-05 DIIS
   @DF-RHF iter   5:  -956.81558389163138   -3.43151e-04   3.77283e-05 DIIS
   @DF-RHF iter   6:  -956.81562683974016   -4.29481e-05   1.31175e-05 DIIS
   @DF-RHF iter   7:  -956.81563490288681   -8.06315e-06   3.57681e-06 DIIS
   @DF-RHF iter   8:  -956.81563548738268   -5.84496e-07   8.77171e-07 DIIS
   @DF-RHF iter   9:  -956.81563551789452   -3.05118e-08   2.96488e-07 DIIS
   @DF-RHF iter  10:  -956.81563552126352   -3.36900e-09   8.34183e-08 DIIS
   @DF-RHF iter  11:  -956.81563552149134   -2.27828e-10   1.42545e-08 DIIS
   @DF-RHF iter  12:  -956.81563552149771   -6.36646e-12   3.61079e-09 DIIS
   @DF-RHF iter  13:  -956.81563552149760    1.13687e-13   7.07407e-10 DIIS
   @DF-RHF iter  14:  -956.81563552149782   -2.27374e-13   1.40511e-10 DIIS
   @DF-RHF iter  15:  -956.81563552149748    3.41061e-13   3.21036e-11 DIIS
  Energy and wave function converged.


  ==> Post-Iterations <==

    Orbital Energies [Eh]
    ---------------------

    Doubly Occupied:                                                      

       1B2  -104.887296     1A1  -104.887296     2A1   -11.388586  
       2B2   -10.613269     3A1   -10.613257     3B2    -8.080110  
       4A1    -8.080108     1A2    -8.078683     1B1    -8.078681  
       5A1    -8.078017     4B2    -8.078015     6A1    -1.236688  
       5B2    -1.143979     7A1    -0.805911     6B2    -0.634289  
       8A1    -0.587138     2B1    -0.562852     2A2    -0.492437  
       7B2    -0.483916     9A1    -0.375395  

    Virtual:                                                              

       3B1     0.034201    10A1     0.047508     8B2     0.054125  
      11A1     0.080328     4B1     0.082978    12A1     0.094091  
       9B2     0.101237     3A2     0.105857    13A1     0.116377  
       5B1     0.120228    10B2     0.135978    14A1     0.176838  
      11B2     0.193182    15A1     0.201548     6B1     0.231730  
      12B2     0.240089    16A1     0.246438     4A2     0.270416  
      13B2     0.278662    17A1     0.301532     7B1     0.315612  
       5A2     0.325487    14B2     0.326518    18A1     0.327739  
      19A1     0.339031    15B2     0.352173     8B1     0.355451  
      20A1     0.368331     6A2     0.368924    16B2     0.405956  
       9B1     0.433012    21A1     0.471149    17B2     0.512025  
      22A1     0.519244    10B1     0.524932    18B2     0.562627  
       7A2     0.562958    23A1     0.569147    24A1     0.574326  
      19B2     0.576365     8A2     0.591090    11B1     0.595738  
      20B2     0.634481    25A1     0.641052     9A2     0.657521  
      26A1     0.660763    12B1     0.687539    21B2     0.740097  
      27A1     0.783441    13B1     0.797442    22B2     0.821594  
      28A1     0.828490    14B1     0.842671    10A2     0.845692  
      29A1     0.859624    23B2     0.866845    30A1     0.914641  
      15B1     0.915062    24B2     0.918460    11A2     0.922189  
      31A1     1.031110    25B2     1.056639    16B1     1.074722  
      32A1     1.083878    12A2     1.091481    26B2     1.099594  
      13A2     1.108591    27B2     1.143281    17B1     1.144105  
      33A1     1.146725    28B2     1.172407    34A1     1.182976  
      18B1     1.224368    35A1     1.229185    29B2     1.234668  
      14A2     1.294663    30B2     1.330471    36A1     1.405228  
      19B1     1.514824    37A1     1.520286    31B2     1.590767  
      38A1     1.593763    15A2     1.616802    20B1     1.617318  
      32B2     1.640643    39A1     1.661784    16A2     1.678315  
      21B1     1.699128    40A1     1.729115    22B1     1.737539  
      17A2     1.746552    41A1     1.761014    33B2     1.819090  
      42A1     1.823734    34B2     1.846776    18A2     1.875188  
      23B1     1.876774    43A1     1.894552    35B2     1.902583  
      44A1     1.953430    24B1     1.962112    36B2     1.962846  
      19A2     1.967275    25B1     2.005939    37B2     2.043335  
      45A1     2.051777    20A2     2.064719    26B1     2.074637  
      46A1     2.090810    38B2     2.115973    21A2     2.125179  
      39B2     2.186567    27B1     2.205184    40B2     2.228179  
      22A2     2.228596    47A1     2.232830    48A1     2.265276  
      41B2     2.296802    49A1     2.300200    28B1     2.312139  
      29B1     2.360676    30B1     2.376496    23A2     2.376974  
      50A1     2.390430    42B2     2.403236    43B2     2.452453  
      51A1     2.469891    24A2     2.487411    44B2     2.506254  
      25A2     2.523090    52A1     2.595276    45B2     2.623086  
      31B1     2.646794    53A1     2.708991    54A1     2.826397  
      46B2     2.831184    55A1     2.869804    32B1     2.945583  
      26A2     3.021200    33B1     3.038036    56A1     3.039156  
      47B2     3.075142    27A2     3.240427    57A1     3.241198  
      48B2     3.245646    58A1     3.299904    34B1     3.311941  
      28A2     3.366756    49B2     3.405210    59A1     3.486908  
      50B2     3.491260    51B2     3.540496    60A1     3.690666  
      35B1     3.811221    29A2     3.837063    61A1     3.838881  
      52B2     3.887840    30A2     4.025579    36B1     4.105405  
      62A1     4.138940    53B2     4.301071    63A1     4.511225  
      54B2     4.522404    37B1     4.612866    64A1     4.635630  
      31A2     4.655140    55B2     4.679405    38B1     4.684214  
      65A1     4.684336    66A1     4.696510    32A2     4.698035  
      39B1     4.702081    56B2     4.709988    33A2     4.730501  
      67A1     4.742011    40B1     4.759258    68A1     4.760360  
      34A2     4.781996    57B2     4.802033    41B1     4.815579  
      58B2     4.830840    59B2     4.846429    35A2     4.857449  
      60B2     4.915377    69A1     4.937476    36A2     4.969324  
      42B1     4.975603    70A1     5.067501    61B2     5.108534  
      43B1     5.158514    62B2     5.167444    37A2     5.181830  
      71A1     5.182395    72A1     5.329904    63B2     5.488365  
      44B1     6.058686    73A1     6.112442    45B1     6.123325  
      38A2     6.192296    74A1     6.267714    64B2     6.310787  
      75A1     6.333017    46B1     6.346581    39A2     6.472310  
      47B1     6.529013    76A1     6.565204    65B2     6.613960  
      40A2     6.629124    66B2     6.645145    77A1     6.698778  
      48B1     6.718568    67B2     6.831063    49B1     6.978175  
      78A1     6.982617    41A2     7.142390    79A1     7.169370  
      68B2     7.344330    80A1     7.371178    42A2     7.373727  
      50B1     7.374263    69B2     7.477122    81A1     7.691975  
      70B2     7.977897    82A1     8.736535    71B2     8.956986  
      43A2    11.460007    83A1    11.464036    51B1    11.475786  
      72B2    11.497765    44A2    11.694807    52B1    11.717246  
      84A1    11.766944    73B2    11.926744    85A1    12.009470  
      74B2    12.026810    86A1    22.921294    87A1    26.113848  
      75B2    26.306298  

    Final Occupation by Irrep:
             A1    A2    B1    B2 
    DOCC [     9,    2,    2,    7 ]

  @DF-RHF Final Energy:  -956.81563552149748

   => Energetics <=

    Nuclear Repulsion Energy =            117.6690106433503473
    One-Electron Energy =               -1554.5974474733352508
    Two-Electron Energy =                 480.1128013084875761
    Total Energy =                       -956.8156355214973701

Computation Completed


Properties will be evaluated at   0.000000,   0.000000,   0.000000 [a0]

Properties computed using the SCF density matrix

  Nuclear Dipole Moment: [e a0]
     X:    -0.0000      Y:    -0.0000      Z:    -0.2275

  Electronic Dipole Moment: [e a0]
     X:     0.0000      Y:     0.0000      Z:     0.6670

  Dipole Moment: [e a0]
     X:    -0.0000      Y:    -0.0000      Z:     0.4395     Total:     0.4395

  Dipole Moment: [D]
     X:    -0.0000      Y:    -0.0000      Z:     1.1172     Total:     1.1172


*** tstop() called on bp1-compute00148.data.bp.acrc.priv at Mon Apr 19 16:08:04 2021
Module time:
	user time   =      36.60 seconds =       0.61 minutes
	system time =       1.53 seconds =       0.03 minutes
	total time  =          3 seconds =       0.05 minutes
Total time:
	user time   =      36.60 seconds =       0.61 minutes
	system time =       1.53 seconds =       0.03 minutes
	total time  =          3 seconds =       0.05 minutes

*** tstart() called on bp1-compute00148.data.bp.acrc.priv
*** at Mon Apr 19 16:08:04 2021


  //>>>>>>>>>>>>>>>>>>>>>>>>>>>>>>>>>>>//
  //               DFMP2               //
  //<<<<<<<<<<<<<<<<<<<<<<<<<<<<<<<<<<<//

   => Loading Basis Set <=

    Name: (AUG-CC-PV(Q+D)Z AUX)
    Role: RIFIT
    Keyword: DF_BASIS_MP2
    atoms 1   entry C          line   184 file /work/zw18965/.conda/envs/p4env/share/psi4/basis/aug-cc-pvqz-ri.gbs 
    atoms 2-3 entry CL         line   914 file /work/zw18965/.conda/envs/p4env/share/psi4/basis/aug-cc-pvqz-ri.gbs 

	 --------------------------------------------------------
	                          DF-MP2                         
	      2nd-Order Density-Fitted Moller-Plesset Theory     
	              RMP2 Wavefunction,  24 Threads             
	                                                         
	        Rob Parrish, Justin Turney, Andy Simmonett,      
	           Ed Hohenstein, and C. David Sherrill          
	 --------------------------------------------------------

   => Auxiliary Basis Set <=

  Basis Set: (AUG-CC-PV(Q+D)Z AUX)
    Blend: AUG-CC-PVQZ-RI
    Number of shells: 124
    Number of basis function: 556
    Number of Cartesian functions: 773
    Spherical Harmonics?: true
    Max angular momentum: 5

	 --------------------------------------------------------
	                 NBF =   258, NAUX =   556
	 --------------------------------------------------------
	   CLASS    FOCC     OCC    AOCC    AVIR     VIR    FVIR
	   PAIRS       0      20      20     238     238       0
	 --------------------------------------------------------

  DFHelper Memory: AOs need 0.282 GiB; user supplied 100.583 GiB. Using in-core AOs.


         ------------------------------------------------------------
                                     CPHF                           
                                  Rob Parrish                       
         ------------------------------------------------------------

  ==> Geometry <==

    Molecular point group: c2v
    Full point group: C2v

    Geometry (in Angstrom), charge = 0, multiplicity = 1:

       Center              X                  Y                   Z               Mass       
    ------------   -----------------  -----------------  -----------------  -----------------
         C            0.000000000000     0.000000000000    -0.724160015554    12.000000000000
         CL          -0.000000000000     1.440318290514     0.124252291971    34.968852682000
         CL           0.000000000000    -1.440318290514     0.124252291971    34.968852682000

  Nuclear repulsion =  117.669010643350347
  Reference energy  = -956.815635521497484

  ==> Basis Set <==

  Basis Set: AUG-CC-PV(Q+D)Z
    Blend: AUG-CC-PV(Q+D)Z
    Number of shells: 66
    Number of basis function: 258
    Number of Cartesian functions: 335
    Spherical Harmonics?: true
    Max angular momentum: 4

  ==> CGRSolver (by Rob Parrish) <==

   Number of roots    =         1
   Preconditioning    =    JACOBI
   Convergence cutoff =     1E-06
   Maximum iterations =       100

  ==> CPHFRHamiltonian (by Rob Parrish) <== 

  ==> MemDFJK: Density-Fitted J/K Matrices <==

    J tasked:                   Yes
    K tasked:                   Yes
    wK tasked:                   No
    OpenMP threads:              24
    Memory [MiB]:            102996
    Algorithm:                 Core
    Schwarz Cutoff:           1E-12
    Mask sparsity (%):       0.5889
    Fitting Condition:        1E-10

   => Auxiliary Basis Set <=

  Basis Set: (AUG-CC-PV(Q+D)Z AUX)
    Blend: AUG-CC-PVQZ-JKFIT
    Number of shells: 126
    Number of basis function: 510
    Number of Cartesian functions: 692
    Spherical Harmonics?: true
    Max angular momentum: 5

  ==> CPHF Iterations <==

  => Iterations <=

             Iter  Converged  Remaining    Residual
  CGR           1          0          1   1.756E-01
  CGR           2          0          1   4.760E-02
  CGR           3          0          1   1.743E-02
  CGR           4          0          1   4.285E-03
  CGR           5          0          1   2.111E-03
  CGR           6          0          1   4.778E-04
  CGR           7          0          1   1.502E-04
  CGR           8          0          1   3.551E-05
  CGR           9          0          1   6.327E-06
  CGR          10          0          1   1.961E-06
  CGR          11          1          0   3.151E-07

    CGRSolver converged.

  ==> DFCorrGrad: Density-Fitted Correlated Gradients <==

    OpenMP threads:             24
    Integrals threads:          24
    Memory [GiB]:          100.583
    Schwarz Cutoff:          0E+00
    Fitting Condition:       1E-10

   => Auxiliary Basis Set <=

  Basis Set: (AUG-CC-PV(Q+D)Z AUX)
    Blend: AUG-CC-PVQZ-JKFIT
    Number of shells: 126
    Number of basis function: 510
    Number of Cartesian functions: 692
    Spherical Harmonics?: true
    Max angular momentum: 5

	-----------------------------------------------------------
	 ==================> DF-MP2 Energies <==================== 
	-----------------------------------------------------------
	 Reference Energy          =    -956.8156355214974838 [Eh]
	 Singles Energy            =      -0.0000000000000000 [Eh]
	 Same-Spin Energy          =      -0.2269860615733903 [Eh]
	 Opposite-Spin Energy      =      -0.6410146025238532 [Eh]
	 Correlation Energy        =      -0.8680006640972435 [Eh]
	 Total Energy              =    -957.6836361855947644 [Eh]
	-----------------------------------------------------------
	 ================> DF-SCS-MP2 Energies <================== 
	-----------------------------------------------------------
	 SCS Same-Spin Scale       =       0.3333333333333333 [-]
	 SCS Opposite-Spin Scale   =       1.2000000000000000 [-]
	 SCS Same-Spin Energy      =      -0.0756620205244634 [Eh]
	 SCS Opposite-Spin Energy  =      -0.7692175230286239 [Eh]
	 SCS Correlation Energy    =      -0.8448795435530874 [Eh]
	 SCS Total Energy          =    -957.6605150650506175 [Eh]
	-----------------------------------------------------------


  -Total Gradient:
     Atom            X                  Y                   Z
    ------   -----------------  -----------------  -----------------
       1       -0.000000000000     0.000000000000     0.030566495607
       2       -0.000000000000     0.005787838078    -0.015283247801
       3        0.000000000000    -0.005787838078    -0.015283247801


*** tstop() called on bp1-compute00148.data.bp.acrc.priv at Mon Apr 19 16:08:13 2021
Module time:
	user time   =     110.61 seconds =       1.84 minutes
	system time =      11.78 seconds =       0.20 minutes
	total time  =          9 seconds =       0.15 minutes
Total time:
	user time   =     147.22 seconds =       2.45 minutes
	system time =      13.31 seconds =       0.22 minutes
	total time  =         12 seconds =       0.20 minutes

			-----------------------------------------
			 OPTKING 2.0: for geometry optimizations 
			  - R.A. King,  Bethel University        
			-----------------------------------------

	Internal coordinates to be generated automatically.
	Detected frag 1 with atoms:  1 2 3
	---Fragment 1 Bond Connectivity---
	 1 : 2 3
	 2 : 1
	 3 : 1

	---Fragment 1 Geometry and Gradient---
	 C           0.0000000000        0.0000000000       -1.3684641004
	 CL         -0.0000000000        2.7218071026        0.2348028023
	 CL          0.0000000000       -2.7218071026        0.2348028023
	            -0.0000000000        0.0000000000        0.0305664956
	            -0.0000000000        0.0057878381       -0.0152832478
	             0.0000000000       -0.0057878381       -0.0152832478

	Previous optimization step data not found.  Starting new optimization.

	---Fragment 1 Intrafragment Coordinates---
	 - Coordinate -           - BOHR/RAD -       - ANG/DEG -
	 R(1,2)           =         3.158908	       1.671622
	 R(1,3)           =         3.158908	       1.671622
	 B(2,1,3)         =         2.076942	     119.000000

	Current energy   :      -957.6836361856

	Generating empirical Hessian (Schlegel '84) for each fragment.
	Taking RFO optimization step.
	Going to follow RFO solution 1.
	Using RFO vector 1.
	Norm of target step-size    0.19593
	Projected energy change by RFO approximation:        -0.0093993155

	Back-transformation to cartesian coordinates...
	Successfully converged to displaced geometry.

	--- Internal Coordinate Step in ANG or DEG, aJ/ANG or AJ/DEG ---
	 ---------------------------------------------------------------------------
	   Coordinate                Previous        Force       Change         New 
	   ----------                --------       ------       ------       ------
	    1 R(1,2)          =      1.671622     0.022820     0.003616     1.675238
	    2 R(1,3)          =      1.671622     0.022820     0.003616     1.675238
	    3 B(2,1,3)        =    119.000000    -0.003871   -11.212054   107.787946
	 ---------------------------------------------------------------------------
	Successfully symmetrized geometry.

  ==> Convergence Check <==

  Measures of convergence in internal coordinates in au.
  Criteria marked as inactive (o), active & met (*), and active & unmet ( ).
  --------------------------------------------------------------------------------------------- ~
   Step     Total Energy     Delta E     MAX Force     RMS Force      MAX Disp      RMS Disp    ~
  --------------------------------------------------------------------------------------------- ~
    Convergence Criteria    1.00e-06 *    3.00e-04 *             o    1.20e-03 *             o  ~
  --------------------------------------------------------------------------------------------- ~
      1    -957.68363619   -9.58e+02      5.09e-02      2.95e-02 o    1.96e-01      1.13e-01 o  ~
  ---------------------------------------------------------------------------------------------

	Writing optimization data to binary file.
	Structure for next step:
	Cartesian Geometry (in Angstrom)
	    C     0.0000000000   0.0000000000  -0.8166762001
	   CL    -0.0000000000   1.3534716277   0.1705103852
	   CL     0.0000000000  -1.3534716277   0.1705103852
			--------------------------
			 OPTKING Finished Execution 
			--------------------------

    Structure for next step:
    Molecular point group: c2v
    Full point group: C2v

    Geometry (in Angstrom), charge = 0, multiplicity = 1:

    C           -0.000000000000     0.000000000000    -0.842610425829
    CL          -0.000000000000     1.353471633050     0.144576163277
    CL           0.000000000000    -1.353471633050     0.144576163277

gradient() will perform analytic gradient computation.
    SCF Algorithm Type (re)set to DF.

*** tstart() called on bp1-compute00148.data.bp.acrc.priv
*** at Mon Apr 19 16:08:13 2021

   => Loading Basis Set <=

    Name: AUG-CC-PV(Q+D)Z
    Role: ORBITAL
    Keyword: BASIS
    atoms 1   entry C          line   319 file /work/zw18965/.conda/envs/p4env/share/psi4/basis/aug-cc-pv_qpd_z.gbs 
    atoms 2-3 entry CL         line  1246 file /work/zw18965/.conda/envs/p4env/share/psi4/basis/aug-cc-pv_qpd_z.gbs 


         ---------------------------------------------------------
                                   SCF
               by Justin Turney, Rob Parrish, Andy Simmonett
                          and Daniel G. A. Smith
                              RHF Reference
                       24 Threads, 137329 MiB Core
         ---------------------------------------------------------

  ==> Geometry <==

    Molecular point group: c2v
    Full point group: C2v

    Geometry (in Angstrom), charge = 0, multiplicity = 1:

       Center              X                  Y                   Z               Mass       
    ------------   -----------------  -----------------  -----------------  -----------------
         C           -0.000000000000     0.000000000000    -0.842610425829    12.000000000000
         CL          -0.000000000000     1.353471633050     0.144576163277    34.968852682000
         CL           0.000000000000    -1.353471633050     0.144576163277    34.968852682000

  Running in c2v symmetry.

  Rotational constants: A =      1.68884  B =      0.13158  C =      0.12207 [cm^-1]
  Rotational constants: A =  50630.22740  B =   3944.64118  C =   3659.52471 [MHz]
  Nuclear repulsion =  120.936159770088068

  Charge       = 0
  Multiplicity = 1
  Electrons    = 40
  Nalpha       = 20
  Nbeta        = 20

  ==> Algorithm <==

  SCF Algorithm Type is DF.
  DIIS enabled.
  MOM disabled.
  Fractional occupation disabled.
  Guess Type is READ.
  Energy threshold   = 1.00e-10
  Density threshold  = 1.00e-10
  Integral threshold = 0.00e+00

  ==> Primary Basis <==

  Basis Set: AUG-CC-PV(Q+D)Z
    Blend: AUG-CC-PV(Q+D)Z
    Number of shells: 66
    Number of basis function: 258
    Number of Cartesian functions: 335
    Spherical Harmonics?: true
    Max angular momentum: 4

   => Loading Basis Set <=

    Name: (AUG-CC-PV(Q+D)Z AUX)
    Role: JKFIT
    Keyword: DF_BASIS_SCF
    atoms 1   entry C          line   178 file /work/zw18965/.conda/envs/p4env/share/psi4/basis/aug-cc-pvqz-jkfit.gbs 
    atoms 2-3 entry CL         line   904 file /work/zw18965/.conda/envs/p4env/share/psi4/basis/aug-cc-pvqz-jkfit.gbs 

   => Loading Basis Set <=

    Name: AUG-CC-PV(Q+D)Z
    Role: ORBITAL
    Keyword: BASIS
    atoms 1   entry C          line   319 file /work/zw18965/.conda/envs/p4env/share/psi4/basis/aug-cc-pv_qpd_z.gbs 
    atoms 2-3 entry CL         line  1246 file /work/zw18965/.conda/envs/p4env/share/psi4/basis/aug-cc-pv_qpd_z.gbs 

  Reading orbitals from file 180, no projection.

  ==> Pre-Iterations <==

   -------------------------------------------------------
    Irrep   Nso     Nmo     Nalpha   Nbeta   Ndocc  Nsocc
   -------------------------------------------------------
     A1        87      87       0       0       0       0
     A2        44      44       0       0       0       0
     B1        52      52       0       0       0       0
     B2        75      75       0       0       0       0
   -------------------------------------------------------
    Total     258     258      20      20      20       0
   -------------------------------------------------------

  ==> Integral Setup <==

  DFHelper Memory: AOs need 0.282 GiB; user supplied 100.583 GiB. Using in-core AOs.

  ==> MemDFJK: Density-Fitted J/K Matrices <==

    J tasked:                   Yes
    K tasked:                   Yes
    wK tasked:                   No
    OpenMP threads:              24
    Memory [MiB]:            102996
    Algorithm:                 Core
    Schwarz Cutoff:           1E-12
    Mask sparsity (%):       0.4627
    Fitting Condition:        1E-10

   => Auxiliary Basis Set <=

  Basis Set: (AUG-CC-PV(Q+D)Z AUX)
    Blend: AUG-CC-PVQZ-JKFIT
    Number of shells: 126
    Number of basis function: 510
    Number of Cartesian functions: 692
    Spherical Harmonics?: true
    Max angular momentum: 5

  Minimum eigenvalue in the overlap matrix is 4.7234021202E-05.
  Using Symmetric Orthogonalization.

  SCF Guess: Orbitals guess was supplied from a previous computation.

  ==> Iterations <==

                           Total Energy        Delta E     RMS |[F,P]|

   @DF-RHF iter   0:  -956.84433541160638   -9.56844e+02   2.48204e-03 
   @DF-RHF iter   1:  -956.81663130551942    2.77041e-02   3.08297e-04 DIIS
   @DF-RHF iter   2:  -956.81798061581412   -1.34931e-03   1.58443e-04 DIIS
   @DF-RHF iter   3:  -956.81830799583224   -3.27380e-04   7.04109e-05 DIIS
   @DF-RHF iter   4:  -956.81843388550953   -1.25890e-04   2.11062e-05 DIIS
   @DF-RHF iter   5:  -956.81844432980222   -1.04443e-05   5.38977e-06 DIIS
   @DF-RHF iter   6:  -956.81844520182699   -8.72025e-07   1.74458e-06 DIIS
   @DF-RHF iter   7:  -956.81844532735727   -1.25530e-07   5.27769e-07 DIIS
   @DF-RHF iter   8:  -956.81844533975175   -1.23945e-08   1.69398e-07 DIIS
   @DF-RHF iter   9:  -956.81844534087259   -1.12084e-09   4.68433e-08 DIIS
   @DF-RHF iter  10:  -956.81844534095910   -8.65157e-11   1.13145e-08 DIIS
   @DF-RHF iter  11:  -956.81844534096342   -4.32010e-12   2.57311e-09 DIIS
   @DF-RHF iter  12:  -956.81844534096399   -5.68434e-13   7.12559e-10 DIIS
   @DF-RHF iter  13:  -956.81844534096410   -1.13687e-13   1.31379e-10 DIIS
   @DF-RHF iter  14:  -956.81844534096444   -3.41061e-13   3.32897e-11 DIIS
  Energy and wave function converged.


  ==> Post-Iterations <==

    Orbital Energies [Eh]
    ---------------------

    Doubly Occupied:                                                      

       1B2  -104.882522     1A1  -104.882522     2A1   -11.395248  
       2B2   -10.609292     3A1   -10.609279     3B2    -8.076079  
       4A1    -8.076078     1A2    -8.074651     1B1    -8.074648  
       5A1    -8.074047     4B2    -8.074045     6A1    -1.246648  
       5B2    -1.133604     7A1    -0.807960     6B2    -0.625601  
       8A1    -0.594733     2B1    -0.566389     2A2    -0.486485  
       7B2    -0.466649     9A1    -0.397016  

    Virtual:                                                              

       3B1     0.030664    10A1     0.048532     8B2     0.054710  
      11A1     0.077394     4B1     0.082384    12A1     0.098578  
       9B2     0.100511     3A2     0.107652    13A1     0.112646  
       5B1     0.118428    10B2     0.136102    14A1     0.183084  
      11B2     0.189567    15A1     0.204409     6B1     0.236869  
      12B2     0.237414    16A1     0.249513     4A2     0.269384  
      13B2     0.279624    17A1     0.300347     7B1     0.306116  
      14B2     0.321457    18A1     0.321890     5A2     0.329883  
      19A1     0.342795     8B1     0.353339    15B2     0.354670  
      20A1     0.366116     6A2     0.374053    16B2     0.401950  
       9B1     0.431208    21A1     0.472523    17B2     0.519822  
      10B1     0.522031    22A1     0.524434     7A2     0.552002  
      18B2     0.555279    23A1     0.567060    24A1     0.578779  
      19B2     0.584285     8A2     0.591839    11B1     0.593871  
      25A1     0.637176    20B2     0.641401    26A1     0.647141  
       9A2     0.672213    12B1     0.677690    21B2     0.771955  
      27A1     0.784712    13B1     0.798029    22B2     0.814208  
      28A1     0.826437    10A2     0.841606    23B2     0.849431  
      29A1     0.872612    14B1     0.874669    30A1     0.896865  
      15B1     0.898175    24B2     0.931382    11A2     0.937533  
      16B1     1.055315    31A1     1.058358    12A2     1.073445  
      25B2     1.077040    32A1     1.078900    26B2     1.082652  
      33A1     1.132709    13A2     1.133412    27B2     1.135731  
      17B1     1.139346    34A1     1.150127    28B2     1.164954  
      18B1     1.216016    29B2     1.227840    35A1     1.230890  
      14A2     1.282510    30B2     1.342551    36A1     1.401969  
      19B1     1.510585    37A1     1.520116    31B2     1.591131  
      38A1     1.594249    20B1     1.599088    15A2     1.616906  
      32B2     1.669940    39A1     1.679326    16A2     1.695317  
      21B1     1.696463    40A1     1.722825    22B1     1.728966  
      41A1     1.744462    17A2     1.759264    33B2     1.796884  
      42A1     1.804123    23B1     1.853810    34B2     1.857738  
      43A1     1.879264    18A2     1.895935    24B1     1.923757  
      35B2     1.933029    44A1     1.949043    25B1     1.977623  
      19A2     1.985043    36B2     2.006595    37B2     2.068278  
      45A1     2.072859    38B2     2.103674    46A1     2.104530  
      26B1     2.119247    20A2     2.145246    21A2     2.157777  
      22A2     2.214232    39B2     2.215419    27B1     2.219051  
      40B2     2.241280    47A1     2.245974    48A1     2.280315  
      41B2     2.288221    49A1     2.295842    28B1     2.302185  
      29B1     2.353777    23A2     2.370211    30B1     2.381860  
      42B2     2.406248    50A1     2.408443    43B2     2.439532  
      24A2     2.479276    51A1     2.491999    44B2     2.498684  
      25A2     2.579889    52A1     2.608268    31B1     2.646579  
      53A1     2.647544    45B2     2.752096    54A1     2.822984  
      46B2     2.838251    55A1     2.846582    32B1     2.896131  
      26A2     2.991915    56A1     3.003206    47B2     3.066860  
      33B1     3.085306    27A2     3.171476    57A1     3.213958  
      48B2     3.216911    58A1     3.280336    34B1     3.286854  
      49B2     3.347379    28A2     3.367853    59A1     3.496063  
      50B2     3.506626    51B2     3.542896    60A1     3.686407  
      35B1     3.802902    29A2     3.821390    61A1     3.889663  
      52B2     3.934557    30A2     4.051551    36B1     4.084309  
      62A1     4.122459    53B2     4.295746    54B2     4.509757  
      63A1     4.539984    37B1     4.616476    31A2     4.655742  
      64A1     4.660085    65A1     4.674177    38B1     4.683177  
      39B1     4.685505    55B2     4.694194    66A1     4.707340  
      32A2     4.710738    56B2     4.721836    67A1     4.726522  
      40B1     4.735064    33A2     4.750057    68A1     4.785309  
      57B2     4.796920    58B2     4.818666    34A2     4.830213  
      41B1     4.835848    59B2     4.872948    35A2     4.881714  
      36A2     4.921429    60B2     4.935472    69A1     4.950917  
      42B1     5.035936    61B2     5.062689    70A1     5.064555  
      43B1     5.133973    71A1     5.156064    37A2     5.159591  
      62B2     5.172496    72A1     5.377942    63B2     5.418880  
      44B1     6.043838    45B1     6.127955    73A1     6.142317  
      38A2     6.166858    74A1     6.242235    64B2     6.300822  
      75A1     6.333833    46B1     6.358329    39A2     6.475725  
      47B1     6.520013    76A1     6.531492    40A2     6.557597  
      65B2     6.609313    66B2     6.682860    77A1     6.718659  
      48B1     6.778645    78A1     6.974729    49B1     6.981649  
      67B2     7.033648    41A2     7.119043    79A1     7.145093  
      68B2     7.320945    50B1     7.340030    42A2     7.368655  
      80A1     7.397786    81A1     7.621354    69B2     7.630130  
      70B2     7.815347    82A1     8.635164    71B2     8.879065  
      43A2    11.465728    51B1    11.466812    83A1    11.476106  
      72B2    11.520156    44A2    11.704509    52B1    11.709425  
      84A1    11.820853    73B2    11.861140    85A1    12.026851  
      74B2    12.032894    86A1    22.974471    87A1    26.134073  
      75B2    26.296193  

    Final Occupation by Irrep:
             A1    A2    B1    B2 
    DOCC [     9,    2,    2,    7 ]

  @DF-RHF Final Energy:  -956.81844534096444

   => Energetics <=

    Nuclear Repulsion Energy =            120.9361597700880679
    One-Electron Energy =               -1561.2022179817172400
    Two-Electron Energy =                 483.4476128706646136
    Total Energy =                       -956.8184453409644448

Computation Completed


Properties will be evaluated at   0.000000,   0.000000,   0.000000 [a0]

Properties computed using the SCF density matrix

  Nuclear Dipole Moment: [e a0]
     X:    -0.0000      Y:     0.0000      Z:    -0.2647

  Electronic Dipole Moment: [e a0]
     X:     0.0000      Y:     0.0000      Z:     0.6893

  Dipole Moment: [e a0]
     X:    -0.0000      Y:     0.0000      Z:     0.4246     Total:     0.4246

  Dipole Moment: [D]
     X:    -0.0000      Y:     0.0000      Z:     1.0792     Total:     1.0792


*** tstop() called on bp1-compute00148.data.bp.acrc.priv at Mon Apr 19 16:08:15 2021
Module time:
	user time   =      23.29 seconds =       0.39 minutes
	system time =       0.82 seconds =       0.01 minutes
	total time  =          2 seconds =       0.03 minutes
Total time:
	user time   =     171.11 seconds =       2.85 minutes
	system time =      14.16 seconds =       0.24 minutes
	total time  =         14 seconds =       0.23 minutes

*** tstart() called on bp1-compute00148.data.bp.acrc.priv
*** at Mon Apr 19 16:08:15 2021


  //>>>>>>>>>>>>>>>>>>>>>>>>>>>>>>>>>>>//
  //               DFMP2               //
  //<<<<<<<<<<<<<<<<<<<<<<<<<<<<<<<<<<<//

   => Loading Basis Set <=

    Name: (AUG-CC-PV(Q+D)Z AUX)
    Role: RIFIT
    Keyword: DF_BASIS_MP2
    atoms 1   entry C          line   184 file /work/zw18965/.conda/envs/p4env/share/psi4/basis/aug-cc-pvqz-ri.gbs 
    atoms 2-3 entry CL         line   914 file /work/zw18965/.conda/envs/p4env/share/psi4/basis/aug-cc-pvqz-ri.gbs 

	 --------------------------------------------------------
	                          DF-MP2                         
	      2nd-Order Density-Fitted Moller-Plesset Theory     
	              RMP2 Wavefunction,  24 Threads             
	                                                         
	        Rob Parrish, Justin Turney, Andy Simmonett,      
	           Ed Hohenstein, and C. David Sherrill          
	 --------------------------------------------------------

   => Auxiliary Basis Set <=

  Basis Set: (AUG-CC-PV(Q+D)Z AUX)
    Blend: AUG-CC-PVQZ-RI
    Number of shells: 124
    Number of basis function: 556
    Number of Cartesian functions: 773
    Spherical Harmonics?: true
    Max angular momentum: 5

	 --------------------------------------------------------
	                 NBF =   258, NAUX =   556
	 --------------------------------------------------------
	   CLASS    FOCC     OCC    AOCC    AVIR     VIR    FVIR
	   PAIRS       0      20      20     238     238       0
	 --------------------------------------------------------

  DFHelper Memory: AOs need 0.282 GiB; user supplied 100.583 GiB. Using in-core AOs.


         ------------------------------------------------------------
                                     CPHF                           
                                  Rob Parrish                       
         ------------------------------------------------------------

  ==> Geometry <==

    Molecular point group: c2v
    Full point group: C2v

    Geometry (in Angstrom), charge = 0, multiplicity = 1:

       Center              X                  Y                   Z               Mass       
    ------------   -----------------  -----------------  -----------------  -----------------
         C           -0.000000000000     0.000000000000    -0.842610425829    12.000000000000
         CL          -0.000000000000     1.353471633050     0.144576163277    34.968852682000
         CL           0.000000000000    -1.353471633050     0.144576163277    34.968852682000

  Nuclear repulsion =  120.936159770088068
  Reference energy  = -956.818445340964445

  ==> Basis Set <==

  Basis Set: AUG-CC-PV(Q+D)Z
    Blend: AUG-CC-PV(Q+D)Z
    Number of shells: 66
    Number of basis function: 258
    Number of Cartesian functions: 335
    Spherical Harmonics?: true
    Max angular momentum: 4

  ==> CGRSolver (by Rob Parrish) <==

   Number of roots    =         1
   Preconditioning    =    JACOBI
   Convergence cutoff =     1E-06
   Maximum iterations =       100

  ==> CPHFRHamiltonian (by Rob Parrish) <== 

  ==> MemDFJK: Density-Fitted J/K Matrices <==

    J tasked:                   Yes
    K tasked:                   Yes
    wK tasked:                   No
    OpenMP threads:              24
    Memory [MiB]:            102996
    Algorithm:                 Core
    Schwarz Cutoff:           1E-12
    Mask sparsity (%):       0.4627
    Fitting Condition:        1E-10

   => Auxiliary Basis Set <=

  Basis Set: (AUG-CC-PV(Q+D)Z AUX)
    Blend: AUG-CC-PVQZ-JKFIT
    Number of shells: 126
    Number of basis function: 510
    Number of Cartesian functions: 692
    Spherical Harmonics?: true
    Max angular momentum: 5

  ==> CPHF Iterations <==

  => Iterations <=

             Iter  Converged  Remaining    Residual
  CGR           1          0          1   1.712E-01
  CGR           2          0          1   4.515E-02
  CGR           3          0          1   1.595E-02
  CGR           4          0          1   3.792E-03
  CGR           5          0          1   1.704E-03
  CGR           6          0          1   3.836E-04
  CGR           7          0          1   1.264E-04
  CGR           8          0          1   2.902E-05
  CGR           9          0          1   5.053E-06
  CGR          10          0          1   1.085E-06
  CGR          11          1          0   2.431E-07

    CGRSolver converged.

  ==> DFCorrGrad: Density-Fitted Correlated Gradients <==

    OpenMP threads:             24
    Integrals threads:          24
    Memory [GiB]:          100.583
    Schwarz Cutoff:          0E+00
    Fitting Condition:       1E-10

   => Auxiliary Basis Set <=

  Basis Set: (AUG-CC-PV(Q+D)Z AUX)
    Blend: AUG-CC-PVQZ-JKFIT
    Number of shells: 126
    Number of basis function: 510
    Number of Cartesian functions: 692
    Spherical Harmonics?: true
    Max angular momentum: 5

	-----------------------------------------------------------
	 ==================> DF-MP2 Energies <==================== 
	-----------------------------------------------------------
	 Reference Energy          =    -956.8184453409644448 [Eh]
	 Singles Energy            =      -0.0000000000000000 [Eh]
	 Same-Spin Energy          =      -0.2274605226435203 [Eh]
	 Opposite-Spin Energy      =      -0.6415395076956458 [Eh]
	 Correlation Energy        =      -0.8690000303391662 [Eh]
	 Total Energy              =    -957.6874453713036246 [Eh]
	-----------------------------------------------------------
	 ================> DF-SCS-MP2 Energies <================== 
	-----------------------------------------------------------
	 SCS Same-Spin Scale       =       0.3333333333333333 [-]
	 SCS Opposite-Spin Scale   =       1.2000000000000000 [-]
	 SCS Same-Spin Energy      =      -0.0758201742145068 [Eh]
	 SCS Opposite-Spin Energy  =      -0.7698474092347750 [Eh]
	 SCS Correlation Energy    =      -0.8456675834492817 [Eh]
	 SCS Total Energy          =    -957.6641129244137574 [Eh]
	-----------------------------------------------------------


  -Total Gradient:
     Atom            X                  Y                   Z
    ------   -----------------  -----------------  -----------------
       1       -0.000000000000     0.000000000000     0.005147379741
       2        0.000000000000    -0.012939738849    -0.002573689871
       3       -0.000000000000     0.012939738849    -0.002573689871


*** tstop() called on bp1-compute00148.data.bp.acrc.priv at Mon Apr 19 16:08:24 2021
Module time:
	user time   =     109.39 seconds =       1.82 minutes
	system time =       5.52 seconds =       0.09 minutes
	total time  =          9 seconds =       0.15 minutes
Total time:
	user time   =     280.51 seconds =       4.68 minutes
	system time =      19.68 seconds =       0.33 minutes
	total time  =         23 seconds =       0.38 minutes

			-----------------------------------------
			 OPTKING 2.0: for geometry optimizations 
			  - R.A. King,  Bethel University        
			-----------------------------------------

	Previous internal coordinate definitions found.
	---Fragment 1 Geometry and Gradient---
	 C          -0.0000000000        0.0000000000       -1.5923029353
	 CL         -0.0000000000        2.5576907050        0.2732093529
	 CL          0.0000000000       -2.5576907050        0.2732093529
	            -0.0000000000        0.0000000000        0.0051473797
	             0.0000000000       -0.0129397388       -0.0025736899
	            -0.0000000000        0.0129397388       -0.0025736899

	---Fragment 1 Intrafragment Coordinates---
	 - Coordinate -           - BOHR/RAD -       - ANG/DEG -
	 R(1,2)           =         3.165741	       1.675238
	 R(1,3)           =         3.165741	       1.675238
	 B(2,1,3)         =         1.881255	     107.787946

	Current energy   :      -957.6874453713

	Energy change for the previous step:
		Projected    :        -0.0093993155
		Actual       :        -0.0038091857

	Performing BFGS update.
	Previous computed or guess Hessian on step 1.
	Steps to be used in Hessian update: 1
	Taking RFO optimization step.
	Going to follow RFO solution 1.
	Using RFO vector 1.
	Norm of target step-size    0.05280
	Projected energy change by RFO approximation:        -0.0021716435

	Back-transformation to cartesian coordinates...
	Successfully converged to displaced geometry.

	--- Internal Coordinate Step in ANG or DEG, aJ/ANG or AJ/DEG ---
	 ---------------------------------------------------------------------------
	   Coordinate                Previous        Force       Change         New 
	   ----------                --------       ------       ------       ------
	    1 R(1,2)          =      1.675238     0.098626     0.012239     1.687478
	    2 R(1,3)          =      1.675238     0.098626     0.012239     1.687478
	    3 B(2,1,3)        =    107.787946     0.001336     2.374723   110.162669
	 ---------------------------------------------------------------------------
	Successfully symmetrized geometry.

  ==> Convergence Check <==

  Measures of convergence in internal coordinates in au.
  Criteria marked as inactive (o), active & met (*), and active & unmet ( ).
  ---------------------------------------------------------------------------------------------
   Step     Total Energy     Delta E     MAX Force     RMS Force      MAX Disp      RMS Disp   
  ---------------------------------------------------------------------------------------------
    Convergence Criteria    1.00e-06 *    3.00e-04 *             o    1.20e-03 *             o
  ---------------------------------------------------------------------------------------------
      2    -957.68744537   -3.81e-03      1.76e-02      1.41e-02 o    4.14e-02      3.05e-02 o  ~
  ---------------------------------------------------------------------------------------------

	Writing optimization data to binary file.
	Structure for next step:
	Cartesian Geometry (in Angstrom)
	    C    -0.0000000000   0.0000000000  -0.8284421282
	   CL    -0.0000000000   1.3836732799   0.1374920155
	   CL     0.0000000000  -1.3836732799   0.1374920155
			--------------------------
			 OPTKING Finished Execution 
			--------------------------

    Structure for next step:
    Molecular point group: c2v
    Full point group: C2v

    Geometry (in Angstrom), charge = 0, multiplicity = 1:

    C           -0.000000000000     0.000000000000    -0.824470462149
    CL          -0.000000000000     1.383673285360     0.141463685351
    CL           0.000000000000    -1.383673285360     0.141463685351

gradient() will perform analytic gradient computation.
    SCF Algorithm Type (re)set to DF.

*** tstart() called on bp1-compute00148.data.bp.acrc.priv
*** at Mon Apr 19 16:08:24 2021

   => Loading Basis Set <=

    Name: AUG-CC-PV(Q+D)Z
    Role: ORBITAL
    Keyword: BASIS
    atoms 1   entry C          line   319 file /work/zw18965/.conda/envs/p4env/share/psi4/basis/aug-cc-pv_qpd_z.gbs 
    atoms 2-3 entry CL         line  1246 file /work/zw18965/.conda/envs/p4env/share/psi4/basis/aug-cc-pv_qpd_z.gbs 


         ---------------------------------------------------------
                                   SCF
               by Justin Turney, Rob Parrish, Andy Simmonett
                          and Daniel G. A. Smith
                              RHF Reference
                       24 Threads, 137329 MiB Core
         ---------------------------------------------------------

  ==> Geometry <==

    Molecular point group: c2v
    Full point group: C2v

    Geometry (in Angstrom), charge = 0, multiplicity = 1:

       Center              X                  Y                   Z               Mass       
    ------------   -----------------  -----------------  -----------------  -----------------
         C           -0.000000000000     0.000000000000    -0.824470462149    12.000000000000
         CL          -0.000000000000     1.383673285360     0.141463685351    34.968852682000
         CL           0.000000000000    -1.383673285360     0.141463685351    34.968852682000

  Running in c2v symmetry.

  Rotational constants: A =      1.76398  B =      0.12590  C =      0.11751 [cm^-1]
  Rotational constants: A =  52882.66497  B =   3774.31991  C =   3522.88594 [MHz]
  Nuclear repulsion =  119.235618449784354

  Charge       = 0
  Multiplicity = 1
  Electrons    = 40
  Nalpha       = 20
  Nbeta        = 20

  ==> Algorithm <==

  SCF Algorithm Type is DF.
  DIIS enabled.
  MOM disabled.
  Fractional occupation disabled.
  Guess Type is READ.
  Energy threshold   = 1.00e-10
  Density threshold  = 1.00e-10
  Integral threshold = 0.00e+00

  ==> Primary Basis <==

  Basis Set: AUG-CC-PV(Q+D)Z
    Blend: AUG-CC-PV(Q+D)Z
    Number of shells: 66
    Number of basis function: 258
    Number of Cartesian functions: 335
    Spherical Harmonics?: true
    Max angular momentum: 4

   => Loading Basis Set <=

    Name: (AUG-CC-PV(Q+D)Z AUX)
    Role: JKFIT
    Keyword: DF_BASIS_SCF
    atoms 1   entry C          line   178 file /work/zw18965/.conda/envs/p4env/share/psi4/basis/aug-cc-pvqz-jkfit.gbs 
    atoms 2-3 entry CL         line   904 file /work/zw18965/.conda/envs/p4env/share/psi4/basis/aug-cc-pvqz-jkfit.gbs 

   => Loading Basis Set <=

    Name: AUG-CC-PV(Q+D)Z
    Role: ORBITAL
    Keyword: BASIS
    atoms 1   entry C          line   319 file /work/zw18965/.conda/envs/p4env/share/psi4/basis/aug-cc-pv_qpd_z.gbs 
    atoms 2-3 entry CL         line  1246 file /work/zw18965/.conda/envs/p4env/share/psi4/basis/aug-cc-pv_qpd_z.gbs 

  Reading orbitals from file 180, no projection.

  ==> Pre-Iterations <==

   -------------------------------------------------------
    Irrep   Nso     Nmo     Nalpha   Nbeta   Ndocc  Nsocc
   -------------------------------------------------------
     A1        87      87       0       0       0       0
     A2        44      44       0       0       0       0
     B1        52      52       0       0       0       0
     B2        75      75       0       0       0       0
   -------------------------------------------------------
    Total     258     258      20      20      20       0
   -------------------------------------------------------

  ==> Integral Setup <==

  DFHelper Memory: AOs need 0.282 GiB; user supplied 100.583 GiB. Using in-core AOs.

  ==> MemDFJK: Density-Fitted J/K Matrices <==

    J tasked:                   Yes
    K tasked:                   Yes
    wK tasked:                   No
    OpenMP threads:              24
    Memory [MiB]:            102996
    Algorithm:                 Core
    Schwarz Cutoff:           1E-12
    Mask sparsity (%):       0.4867
    Fitting Condition:        1E-10

   => Auxiliary Basis Set <=

  Basis Set: (AUG-CC-PV(Q+D)Z AUX)
    Blend: AUG-CC-PVQZ-JKFIT
    Number of shells: 126
    Number of basis function: 510
    Number of Cartesian functions: 692
    Spherical Harmonics?: true
    Max angular momentum: 5

  Minimum eigenvalue in the overlap matrix is 4.8663539859E-05.
  Using Symmetric Orthogonalization.

  SCF Guess: Orbitals guess was supplied from a previous computation.

  ==> Iterations <==

                           Total Energy        Delta E     RMS |[F,P]|

   @DF-RHF iter   0:  -956.81214258767193   -9.56812e+02   6.69872e-04 
   @DF-RHF iter   1:  -956.81950538496812   -7.36280e-03   6.07370e-05 DIIS
   @DF-RHF iter   2:  -956.81957782838060   -7.24434e-05   2.67596e-05 DIIS
   @DF-RHF iter   3:  -956.81959596480704   -1.81364e-05   1.46033e-05 DIIS
   @DF-RHF iter   4:  -956.81960131276151   -5.34795e-06   4.08470e-06 DIIS
   @DF-RHF iter   5:  -956.81960176320649   -4.50445e-07   1.41375e-06 DIIS
   @DF-RHF iter   6:  -956.81960180713054   -4.39240e-08   4.00690e-07 DIIS
   @DF-RHF iter   7:  -956.81960181396789   -6.83735e-09   1.38083e-07 DIIS
   @DF-RHF iter   8:  -956.81960181485601   -8.88122e-10   4.24671e-08 DIIS
   @DF-RHF iter   9:  -956.81960181492775   -7.17364e-11   1.08917e-08 DIIS
   @DF-RHF iter  10:  -956.81960181493116   -3.41061e-12   2.48009e-09 DIIS
   @DF-RHF iter  11:  -956.81960181493196   -7.95808e-13   6.43131e-10 DIIS
   @DF-RHF iter  12:  -956.81960181493196    0.00000e+00   1.33073e-10 DIIS
   @DF-RHF iter  13:  -956.81960181493218   -2.27374e-13   3.21191e-11 DIIS
  Energy and wave function converged.


  ==> Post-Iterations <==

    Orbital Energies [Eh]
    ---------------------

    Doubly Occupied:                                                      

       1B2  -104.883672     1A1  -104.883672     2A1   -11.398732  
       2B2   -10.609956     3A1   -10.609943     3B2    -8.076734  
       4A1    -8.076733     1A2    -8.075334     1B1    -8.075331  
       5A1    -8.074732     4B2    -8.074730     6A1    -1.238691  
       5B2    -1.134164     7A1    -0.807592     6B2    -0.624916  
       8A1    -0.589924     2B1    -0.562526     2A2    -0.487778  
       7B2    -0.471334     9A1    -0.394818  

    Virtual:                                                              

       3B1     0.029657    10A1     0.048498     8B2     0.054579  
      11A1     0.077705     4B1     0.082706    12A1     0.097308  
       9B2     0.100712     3A2     0.107485    13A1     0.113315  
       5B1     0.118509    10B2     0.136077    14A1     0.179579  
      11B2     0.189537    15A1     0.203857     6B1     0.235655  
      12B2     0.235972    16A1     0.249222     4A2     0.269190  
      13B2     0.279435    17A1     0.300405     7B1     0.307854  
      14B2     0.321071    18A1     0.322955     5A2     0.329747  
      19A1     0.341349     8B1     0.353203    15B2     0.353612  
      20A1     0.365357     6A2     0.372254    16B2     0.401375  
       9B1     0.432429    21A1     0.472912    17B2     0.519296  
      10B1     0.522893    22A1     0.523286     7A2     0.553592  
      18B2     0.555905    23A1     0.566989    24A1     0.578604  
      19B2     0.582546     8A2     0.591772    11B1     0.594357  
      25A1     0.637914    20B2     0.639418    26A1     0.647771  
       9A2     0.667509    12B1     0.677356    21B2     0.763244  
      27A1     0.784138    13B1     0.798904    22B2     0.813336  
      28A1     0.823224    10A2     0.841839    23B2     0.849267  
      14B1     0.865140    29A1     0.865539    15B1     0.898329  
      30A1     0.898646    24B2     0.924951    11A2     0.930768  
      31A1     1.050395    16B1     1.058247    25B2     1.074707  
      12A2     1.076187    32A1     1.079457    26B2     1.084116  
      13A2     1.127198    27B2     1.135152    17B1     1.139903  
      33A1     1.141807    34A1     1.151090    28B2     1.166221  
      18B1     1.216224    35A1     1.227644    29B2     1.228264  
      14A2     1.284069    30B2     1.337068    36A1     1.406586  
      19B1     1.510397    37A1     1.518693    31B2     1.590775  
      38A1     1.592179    20B1     1.601270    15A2     1.616106  
      32B2     1.661790    39A1     1.674187    16A2     1.690158  
      21B1     1.701792    40A1     1.719077    22B1     1.727301  
      41A1     1.747738    17A2     1.754399    42A1     1.802779  
      33B2     1.806084    34B2     1.850800    23B1     1.857306  
      43A1     1.882547    18A2     1.889435    35B2     1.922849  
      24B1     1.926412    44A1     1.948253    19A2     1.977363  
      25B1     1.981635    36B2     1.993702    37B2     2.062964  
      45A1     2.065929    38B2     2.095785    46A1     2.098728  
      26B1     2.106442    20A2     2.122965    21A2     2.148498  
      39B2     2.207220    22A2     2.209964    27B1     2.210228  
      40B2     2.235573    47A1     2.242770    48A1     2.277209  
      41B2     2.287095    49A1     2.291899    28B1     2.301529  
      29B1     2.353507    23A2     2.367818    30B1     2.376389  
      42B2     2.399426    50A1     2.403175    43B2     2.436460  
      24A2     2.479367    51A1     2.486124    44B2     2.489270  
      25A2     2.550801    52A1     2.609245    31B1     2.641219  
      53A1     2.645173    45B2     2.697378    54A1     2.811852  
      46B2     2.821879    55A1     2.846953    32B1     2.894909  
      26A2     2.987046    56A1     2.997932    33B1     3.063448  
      47B2     3.069319    27A2     3.181810    48B2     3.216255  
      57A1     3.221906    58A1     3.270070    34B1     3.285514  
      49B2     3.332182    28A2     3.363714    59A1     3.491941  
      50B2     3.501739    51B2     3.537885    60A1     3.665590  
      35B1     3.798955    29A2     3.818541    61A1     3.877314  
      52B2     3.919597    30A2     4.042255    36B1     4.081327  
      62A1     4.110785    53B2     4.300423    54B2     4.513378  
      63A1     4.533788    37B1     4.613739    64A1     4.656286  
      31A2     4.657303    65A1     4.681212    38B1     4.685031  
      39B1     4.689529    55B2     4.690326    66A1     4.699399  
      32A2     4.706529    67A1     4.716177    56B2     4.718801  
      40B1     4.739881    33A2     4.743631    68A1     4.772992  
      57B2     4.801530    34A2     4.816500    58B2     4.826269  
      41B1     4.828010    59B2     4.857421    35A2     4.870835  
      60B2     4.924841    36A2     4.932922    69A1     4.938626  
      42B1     5.013258    70A1     5.053132    61B2     5.061228  
      43B1     5.129201    37A2     5.152111    71A1     5.165508  
      62B2     5.175630    72A1     5.344836    63B2     5.417901  
      44B1     6.039098    45B1     6.120769    73A1     6.129580  
      38A2     6.166416    74A1     6.239789    64B2     6.287567  
      75A1     6.320560    46B1     6.351965    39A2     6.463100  
      47B1     6.514697    76A1     6.538789    40A2     6.555589  
      65B2     6.587371    66B2     6.639632    77A1     6.701728  
      48B1     6.753827    49B1     6.952256    78A1     6.954888  
      67B2     6.957501    41A2     7.099860    79A1     7.149962  
      68B2     7.307312    50B1     7.329077    42A2     7.343201  
      80A1     7.347414    69B2     7.590243    81A1     7.634861  
      70B2     7.821392    82A1     8.587606    71B2     8.829404  
      43A2    11.460948    51B1    11.464283    83A1    11.471610  
      72B2    11.513913    44A2    11.696897    52B1    11.702063  
      84A1    11.783876    73B2    11.873842    85A1    12.017362  
      74B2    12.029667    86A1    22.896517    87A1    26.092786  
      75B2    26.257534  

    Final Occupation by Irrep:
             A1    A2    B1    B2 
    DOCC [     9,    2,    2,    7 ]

  @DF-RHF Final Energy:  -956.81960181493218

   => Energetics <=

    Nuclear Repulsion Energy =            119.2356184497843543
    One-Electron Energy =               -1557.8078144403689294
    Two-Electron Energy =                 481.7525941756523480
    Total Energy =                       -956.8196018149321844

Computation Completed


Properties will be evaluated at   0.000000,   0.000000,   0.000000 [a0]

Properties computed using the SCF density matrix

  Nuclear Dipole Moment: [e a0]
     X:    -0.0000      Y:    -0.0000      Z:    -0.2590

  Electronic Dipole Moment: [e a0]
     X:     0.0000      Y:     0.0000      Z:     0.6694

  Dipole Moment: [e a0]
     X:    -0.0000      Y:    -0.0000      Z:     0.4104     Total:     0.4104

  Dipole Moment: [D]
     X:    -0.0000      Y:    -0.0000      Z:     1.0432     Total:     1.0432


*** tstop() called on bp1-compute00148.data.bp.acrc.priv at Mon Apr 19 16:08:25 2021
Module time:
	user time   =      22.98 seconds =       0.38 minutes
	system time =       0.90 seconds =       0.02 minutes
	total time  =          1 seconds =       0.02 minutes
Total time:
	user time   =     304.14 seconds =       5.07 minutes
	system time =      20.61 seconds =       0.34 minutes
	total time  =         24 seconds =       0.40 minutes

*** tstart() called on bp1-compute00148.data.bp.acrc.priv
*** at Mon Apr 19 16:08:25 2021


  //>>>>>>>>>>>>>>>>>>>>>>>>>>>>>>>>>>>//
  //               DFMP2               //
  //<<<<<<<<<<<<<<<<<<<<<<<<<<<<<<<<<<<//

   => Loading Basis Set <=

    Name: (AUG-CC-PV(Q+D)Z AUX)
    Role: RIFIT
    Keyword: DF_BASIS_MP2
    atoms 1   entry C          line   184 file /work/zw18965/.conda/envs/p4env/share/psi4/basis/aug-cc-pvqz-ri.gbs 
    atoms 2-3 entry CL         line   914 file /work/zw18965/.conda/envs/p4env/share/psi4/basis/aug-cc-pvqz-ri.gbs 

	 --------------------------------------------------------
	                          DF-MP2                         
	      2nd-Order Density-Fitted Moller-Plesset Theory     
	              RMP2 Wavefunction,  24 Threads             
	                                                         
	        Rob Parrish, Justin Turney, Andy Simmonett,      
	           Ed Hohenstein, and C. David Sherrill          
	 --------------------------------------------------------

   => Auxiliary Basis Set <=

  Basis Set: (AUG-CC-PV(Q+D)Z AUX)
    Blend: AUG-CC-PVQZ-RI
    Number of shells: 124
    Number of basis function: 556
    Number of Cartesian functions: 773
    Spherical Harmonics?: true
    Max angular momentum: 5

	 --------------------------------------------------------
	                 NBF =   258, NAUX =   556
	 --------------------------------------------------------
	   CLASS    FOCC     OCC    AOCC    AVIR     VIR    FVIR
	   PAIRS       0      20      20     238     238       0
	 --------------------------------------------------------

  DFHelper Memory: AOs need 0.282 GiB; user supplied 100.583 GiB. Using in-core AOs.


         ------------------------------------------------------------
                                     CPHF                           
                                  Rob Parrish                       
         ------------------------------------------------------------

  ==> Geometry <==

    Molecular point group: c2v
    Full point group: C2v

    Geometry (in Angstrom), charge = 0, multiplicity = 1:

       Center              X                  Y                   Z               Mass       
    ------------   -----------------  -----------------  -----------------  -----------------
         C           -0.000000000000     0.000000000000    -0.824470462149    12.000000000000
         CL          -0.000000000000     1.383673285360     0.141463685351    34.968852682000
         CL           0.000000000000    -1.383673285360     0.141463685351    34.968852682000

  Nuclear repulsion =  119.235618449784354
  Reference energy  = -956.819601814932184

  ==> Basis Set <==

  Basis Set: AUG-CC-PV(Q+D)Z
    Blend: AUG-CC-PV(Q+D)Z
    Number of shells: 66
    Number of basis function: 258
    Number of Cartesian functions: 335
    Spherical Harmonics?: true
    Max angular momentum: 4

  ==> CGRSolver (by Rob Parrish) <==

   Number of roots    =         1
   Preconditioning    =    JACOBI
   Convergence cutoff =     1E-06
   Maximum iterations =       100

  ==> CPHFRHamiltonian (by Rob Parrish) <== 

  ==> MemDFJK: Density-Fitted J/K Matrices <==

    J tasked:                   Yes
    K tasked:                   Yes
    wK tasked:                   No
    OpenMP threads:              24
    Memory [MiB]:            102996
    Algorithm:                 Core
    Schwarz Cutoff:           1E-12
    Mask sparsity (%):       0.4867
    Fitting Condition:        1E-10

   => Auxiliary Basis Set <=

  Basis Set: (AUG-CC-PV(Q+D)Z AUX)
    Blend: AUG-CC-PVQZ-JKFIT
    Number of shells: 126
    Number of basis function: 510
    Number of Cartesian functions: 692
    Spherical Harmonics?: true
    Max angular momentum: 5

  ==> CPHF Iterations <==

  => Iterations <=

             Iter  Converged  Remaining    Residual
  CGR           1          0          1   1.742E-01
  CGR           2          0          1   4.667E-02
  CGR           3          0          1   1.663E-02
  CGR           4          0          1   3.909E-03
  CGR           5          0          1   1.796E-03
  CGR           6          0          1   4.108E-04
  CGR           7          0          1   1.361E-04
  CGR           8          0          1   3.161E-05
  CGR           9          0          1   5.273E-06
  CGR          10          0          1   1.473E-06
  CGR          11          1          0   2.654E-07

    CGRSolver converged.

  ==> DFCorrGrad: Density-Fitted Correlated Gradients <==

    OpenMP threads:             24
    Integrals threads:          24
    Memory [GiB]:          100.583
    Schwarz Cutoff:          0E+00
    Fitting Condition:       1E-10

   => Auxiliary Basis Set <=

  Basis Set: (AUG-CC-PV(Q+D)Z AUX)
    Blend: AUG-CC-PVQZ-JKFIT
    Number of shells: 126
    Number of basis function: 510
    Number of Cartesian functions: 692
    Spherical Harmonics?: true
    Max angular momentum: 5

	-----------------------------------------------------------
	 ==================> DF-MP2 Energies <==================== 
	-----------------------------------------------------------
	 Reference Energy          =    -956.8196018149321844 [Eh]
	 Singles Energy            =      -0.0000000000000000 [Eh]
	 Same-Spin Energy          =      -0.2270553885976548 [Eh]
	 Opposite-Spin Energy      =      -0.6414157863216964 [Eh]
	 Correlation Energy        =      -0.8684711749193512 [Eh]
	 Total Energy              =    -957.6880729898515483 [Eh]
	-----------------------------------------------------------
	 ================> DF-SCS-MP2 Energies <================== 
	-----------------------------------------------------------
	 SCS Same-Spin Scale       =       0.3333333333333333 [-]
	 SCS Opposite-Spin Scale   =       1.2000000000000000 [-]
	 SCS Same-Spin Energy      =      -0.0756851295325516 [Eh]
	 SCS Opposite-Spin Energy  =      -0.7696989435860356 [Eh]
	 SCS Correlation Energy    =      -0.8453840731185872 [Eh]
	 SCS Total Energy          =    -957.6649858880507509 [Eh]
	-----------------------------------------------------------


  -Total Gradient:
     Atom            X                  Y                   Z
    ------   -----------------  -----------------  -----------------
       1        0.000000000000     0.000000000000     0.004159735188
       2        0.000000000000    -0.001530477067    -0.002079867590
       3       -0.000000000000     0.001530477067    -0.002079867590


*** tstop() called on bp1-compute00148.data.bp.acrc.priv at Mon Apr 19 16:08:35 2021
Module time:
	user time   =     109.23 seconds =       1.82 minutes
	system time =       5.51 seconds =       0.09 minutes
	total time  =         10 seconds =       0.17 minutes
Total time:
	user time   =     413.38 seconds =       6.89 minutes
	system time =      26.12 seconds =       0.44 minutes
	total time  =         34 seconds =       0.57 minutes

			-----------------------------------------
			 OPTKING 2.0: for geometry optimizations 
			  - R.A. King,  Bethel University        
			-----------------------------------------

	Previous internal coordinate definitions found.
	---Fragment 1 Geometry and Gradient---
	 C          -0.0000000000        0.0000000000       -1.5580233720
	 CL         -0.0000000000        2.6147635564        0.2673276220
	 CL          0.0000000000       -2.6147635564        0.2673276220
	             0.0000000000        0.0000000000        0.0041597352
	             0.0000000000       -0.0015304771       -0.0020798676
	            -0.0000000000        0.0015304771       -0.0020798676

	---Fragment 1 Intrafragment Coordinates---
	 - Coordinate -           - BOHR/RAD -       - ANG/DEG -
	 R(1,2)           =         3.188870	       1.687478
	 R(1,3)           =         3.188870	       1.687478
	 B(2,1,3)         =         1.922701	     110.162669

	Current energy   :      -957.6880729899

	Energy change for the previous step:
		Projected    :        -0.0021716435
		Actual       :        -0.0006276185

	Performing BFGS update.
	Previous computed or guess Hessian on step 1.
	Steps to be used in Hessian update: 2 1
	Taking RFO optimization step.
	Going to follow RFO solution 1.
	Using RFO vector 1.
	Norm of target step-size    0.01778
	Projected energy change by RFO approximation:         0.0000026864

	Back-transformation to cartesian coordinates...
	Successfully converged to displaced geometry.

	--- Internal Coordinate Step in ANG or DEG, aJ/ANG or AJ/DEG ---
	 ---------------------------------------------------------------------------
	   Coordinate                Previous        Force       Change         New 
	   ----------                --------       ------       ------       ------
	    1 R(1,2)          =      1.687478     0.020148     0.005117     1.692595
	    2 R(1,3)          =      1.687478     0.020148     0.005117     1.692595
	    3 B(2,1,3)        =    110.162669    -0.000201    -0.650985   109.511684
	 ---------------------------------------------------------------------------
	Successfully symmetrized geometry.

  ==> Convergence Check <==

  Measures of convergence in internal coordinates in au.
  Criteria marked as inactive (o), active & met (*), and active & unmet ( ).
  ---------------------------------------------------------------------------------------------
   Step     Total Energy     Delta E     MAX Force     RMS Force      MAX Disp      RMS Disp   
  ---------------------------------------------------------------------------------------------
    Convergence Criteria    1.00e-06 *    3.00e-04 *             o    1.20e-03 *             o
  ---------------------------------------------------------------------------------------------
      3    -957.68807299   -6.28e-04      2.64e-03      2.51e-03 o    1.14e-02      1.03e-02 o  ~
  ---------------------------------------------------------------------------------------------

	Writing optimization data to binary file.
	Structure for next step:
	Cartesian Geometry (in Angstrom)
	    C    -0.0000000000   0.0000000000  -0.8316690424
	   CL    -0.0000000000   1.3823428666   0.1450629766
	   CL     0.0000000000  -1.3823428666   0.1450629766
			--------------------------
			 OPTKING Finished Execution 
			--------------------------

    Structure for next step:
    Molecular point group: c2v
    Full point group: C2v

    Geometry (in Angstrom), charge = 0, multiplicity = 1:

    C           -0.000000000000     0.000000000000    -0.833686959230
    CL          -0.000000000000     1.382342872005     0.143045063585
    CL           0.000000000000    -1.382342872005     0.143045063585

gradient() will perform analytic gradient computation.
    SCF Algorithm Type (re)set to DF.

*** tstart() called on bp1-compute00148.data.bp.acrc.priv
*** at Mon Apr 19 16:08:35 2021

   => Loading Basis Set <=

    Name: AUG-CC-PV(Q+D)Z
    Role: ORBITAL
    Keyword: BASIS
    atoms 1   entry C          line   319 file /work/zw18965/.conda/envs/p4env/share/psi4/basis/aug-cc-pv_qpd_z.gbs 
    atoms 2-3 entry CL         line  1246 file /work/zw18965/.conda/envs/p4env/share/psi4/basis/aug-cc-pv_qpd_z.gbs 


         ---------------------------------------------------------
                                   SCF
               by Justin Turney, Rob Parrish, Andy Simmonett
                          and Daniel G. A. Smith
                              RHF Reference
                       24 Threads, 137329 MiB Core
         ---------------------------------------------------------

  ==> Geometry <==

    Molecular point group: c2v
    Full point group: C2v

    Geometry (in Angstrom), charge = 0, multiplicity = 1:

       Center              X                  Y                   Z               Mass       
    ------------   -----------------  -----------------  -----------------  -----------------
         C           -0.000000000000     0.000000000000    -0.833686959230    12.000000000000
         CL          -0.000000000000     1.382342872005     0.143045063585    34.968852682000
         CL           0.000000000000    -1.382342872005     0.143045063585    34.968852682000

  Running in c2v symmetry.

  Rotational constants: A =      1.72519  B =      0.12614  C =      0.11755 [cm^-1]
  Rotational constants: A =  51719.88118  B =   3781.58847  C =   3523.93022 [MHz]
  Nuclear repulsion =  119.095395912648897

  Charge       = 0
  Multiplicity = 1
  Electrons    = 40
  Nalpha       = 20
  Nbeta        = 20

  ==> Algorithm <==

  SCF Algorithm Type is DF.
  DIIS enabled.
  MOM disabled.
  Fractional occupation disabled.
  Guess Type is READ.
  Energy threshold   = 1.00e-10
  Density threshold  = 1.00e-10
  Integral threshold = 0.00e+00

  ==> Primary Basis <==

  Basis Set: AUG-CC-PV(Q+D)Z
    Blend: AUG-CC-PV(Q+D)Z
    Number of shells: 66
    Number of basis function: 258
    Number of Cartesian functions: 335
    Spherical Harmonics?: true
    Max angular momentum: 4

   => Loading Basis Set <=

    Name: (AUG-CC-PV(Q+D)Z AUX)
    Role: JKFIT
    Keyword: DF_BASIS_SCF
    atoms 1   entry C          line   178 file /work/zw18965/.conda/envs/p4env/share/psi4/basis/aug-cc-pvqz-jkfit.gbs 
    atoms 2-3 entry CL         line   904 file /work/zw18965/.conda/envs/p4env/share/psi4/basis/aug-cc-pvqz-jkfit.gbs 

   => Loading Basis Set <=

    Name: AUG-CC-PV(Q+D)Z
    Role: ORBITAL
    Keyword: BASIS
    atoms 1   entry C          line   319 file /work/zw18965/.conda/envs/p4env/share/psi4/basis/aug-cc-pv_qpd_z.gbs 
    atoms 2-3 entry CL         line  1246 file /work/zw18965/.conda/envs/p4env/share/psi4/basis/aug-cc-pv_qpd_z.gbs 

  Reading orbitals from file 180, no projection.

  ==> Pre-Iterations <==

   -------------------------------------------------------
    Irrep   Nso     Nmo     Nalpha   Nbeta   Ndocc  Nsocc
   -------------------------------------------------------
     A1        87      87       0       0       0       0
     A2        44      44       0       0       0       0
     B1        52      52       0       0       0       0
     B2        75      75       0       0       0       0
   -------------------------------------------------------
    Total     258     258      20      20      20       0
   -------------------------------------------------------

  ==> Integral Setup <==

  DFHelper Memory: AOs need 0.282 GiB; user supplied 100.583 GiB. Using in-core AOs.

  ==> MemDFJK: Density-Fitted J/K Matrices <==

    J tasked:                   Yes
    K tasked:                   Yes
    wK tasked:                   No
    OpenMP threads:              24
    Memory [MiB]:            102996
    Algorithm:                 Core
    Schwarz Cutoff:           1E-12
    Mask sparsity (%):       0.4867
    Fitting Condition:        1E-10

   => Auxiliary Basis Set <=

  Basis Set: (AUG-CC-PV(Q+D)Z AUX)
    Blend: AUG-CC-PVQZ-JKFIT
    Number of shells: 126
    Number of basis function: 510
    Number of Cartesian functions: 692
    Spherical Harmonics?: true
    Max angular momentum: 5

  Minimum eigenvalue in the overlap matrix is 4.9473828785E-05.
  Using Symmetric Orthogonalization.

  SCF Guess: Orbitals guess was supplied from a previous computation.

  ==> Iterations <==

                           Total Energy        Delta E     RMS |[F,P]|

   @DF-RHF iter   0:  -956.81783612158597   -9.56818e+02   2.03545e-04 
   @DF-RHF iter   1:  -956.81962075250078   -1.78463e-03   2.54178e-05 DIIS
   @DF-RHF iter   2:  -956.81962794719414   -7.19469e-06   1.25805e-05 DIIS
   @DF-RHF iter   3:  -956.81962975314173   -1.80595e-06   4.79351e-06 DIIS
   @DF-RHF iter   4:  -956.81963020176806   -4.48626e-07   1.64989e-06 DIIS
   @DF-RHF iter   5:  -956.81963026225571   -6.04877e-08   3.38551e-07 DIIS
   @DF-RHF iter   6:  -956.81963026516723   -2.91152e-09   1.00884e-07 DIIS
   @DF-RHF iter   7:  -956.81963026542053   -2.53294e-10   2.00959e-08 DIIS
   @DF-RHF iter   8:  -956.81963026543372   -1.31877e-11   6.83459e-09 DIIS
   @DF-RHF iter   9:  -956.81963026543599   -2.27374e-12   2.12713e-09 DIIS
   @DF-RHF iter  10:  -956.81963026543622   -2.27374e-13   6.80567e-10 DIIS
   @DF-RHF iter  11:  -956.81963026543542    7.95808e-13   1.76816e-10 DIIS
   @DF-RHF iter  12:  -956.81963026543576   -3.41061e-13   5.39247e-11 DIIS
  Energy and wave function converged.


  ==> Post-Iterations <==

    Orbital Energies [Eh]
    ---------------------

    Doubly Occupied:                                                      

       1B2  -104.883396     1A1  -104.883396     2A1   -11.400942  
       2B2   -10.609612     3A1   -10.609599     3B2    -8.076379  
       4A1    -8.076378     1A2    -8.074987     1B1    -8.074984  
       5A1    -8.074394     4B2    -8.074392     6A1    -1.237236  
       5B2    -1.132791     7A1    -0.807745     6B2    -0.623329  
       8A1    -0.589365     2B1    -0.561651     2A2    -0.487331  
       7B2    -0.470353     9A1    -0.396957  

    Virtual:                                                              

       3B1     0.028757    10A1     0.048603     8B2     0.054613  
      11A1     0.077405     4B1     0.082736    12A1     0.097466  
       9B2     0.100680     3A2     0.107662    13A1     0.113043  
       5B1     0.118328    10B2     0.136053    14A1     0.178918  
      11B2     0.188860    15A1     0.204042    12B2     0.235100  
       6B1     0.235943    16A1     0.249342     4A2     0.268975  
      13B2     0.279499    17A1     0.300161     7B1     0.307308  
      14B2     0.320372    18A1     0.322585     5A2     0.330266  
[...]
      55Ap     1.050186    27App    1.056916    28App    1.074863  
      56Ap     1.076017    57Ap     1.079006    58Ap     1.082629  
      29App    1.127953    59Ap     1.133338    30App    1.139281  
      60Ap     1.140055    61Ap     1.150801    62Ap     1.166302  
      31App    1.214926    63Ap     1.226533    64Ap     1.227543  
      32App    1.283179    65Ap     1.336356    66Ap     1.405683  
      33App    1.510588    67Ap     1.519710    68Ap     1.590756  
      69Ap     1.591944    34App    1.600406    35App    1.616073  
      70Ap     1.663250    71Ap     1.674958    36App    1.690508  
      37App    1.702109    72Ap     1.718427    38App    1.727738  
      73Ap     1.746518    39App    1.754628    74Ap     1.801153  
      75Ap     1.804544    76Ap     1.849747    40App    1.855225  
      77Ap     1.881132    41App    1.889737    42App    1.921725  
      78Ap     1.923007    79Ap     1.946924    43App    1.977652  
      44App    1.979264    80Ap     1.993964    81Ap     2.062458  
      82Ap     2.066398    83Ap     2.094272    84Ap     2.097652  
      45App    2.107149    46App    2.124631    47App    2.148780  
      85Ap     2.206353    48App    2.207380    49App    2.209225  
      86Ap     2.234642    87Ap     2.243386    88Ap     2.276519  
      89Ap     2.284495    90Ap     2.291632    50App    2.300065  
      51App    2.352390    52App    2.365615    53App    2.375107  
      91Ap     2.396575    92Ap     2.402744    93Ap     2.434769  
      54App    2.474696    94Ap     2.485573    95Ap     2.486847  
      55App    2.551477    96Ap     2.603379    56App    2.637161  
      97Ap     2.639590    98Ap     2.699394    99Ap     2.804806  
     100Ap     2.816499   101Ap     2.849136    57App    2.888801  
      58App    2.980371   102Ap     2.991886    59App    3.059674  
     103Ap     3.066079    60App    3.173491   104Ap     3.209819  
     105Ap     3.217452   106Ap     3.267122    61App    3.281182  
     107Ap     3.319958    62App    3.363011   108Ap     3.489489  
     109Ap     3.502328   110Ap     3.536746   111Ap     3.657039  
      63App    3.797478    64App    3.816817   112Ap     3.873352  
     113Ap     3.919786    65App    4.042006    66App    4.077127  
     114Ap     4.106167   115Ap     4.298468   116Ap     4.512586  
     117Ap     4.534531    67App    4.614877   118Ap     4.656775  
      68App    4.659042   119Ap     4.679724    69App    4.685175  
      70App    4.689350   120Ap     4.691267   121Ap     4.700582  
      71App    4.706818   122Ap     4.715949   123Ap     4.719400  
      72App    4.738303    73App    4.744160   124Ap     4.773029  
     125Ap     4.795483    74App    4.816795   126Ap     4.825586  
      75App    4.827632   127Ap     4.858712    76App    4.869083  
     128Ap     4.922248    77App    4.932662   129Ap     4.934041  
      78App    5.011641   130Ap     5.048296   131Ap     5.058174  
      79App    5.124569    80App    5.146479   132Ap     5.166365  
     133Ap     5.176132   134Ap     5.342375   135Ap     5.407177  
      81App    6.035029    82App    6.118370   136Ap     6.127687  
      83App    6.162682   137Ap     6.232699   138Ap     6.281006  
     139Ap     6.318884    84App    6.350126    85App    6.455382  
      86App    6.510759   140Ap     6.533841    87App    6.546087  
     141Ap     6.581551   142Ap     6.637640   143Ap     6.695935  
      88App    6.750718    89App    6.939003   144Ap     6.947745  
     145Ap     6.949677    90App    7.087760   146Ap     7.140374  
     147Ap     7.298161    91App    7.318762    92App    7.332303  
     148Ap     7.333425   149Ap     7.593236   150Ap     7.630940  
     151Ap     7.797830   152Ap     8.552587   153Ap     8.798942  
      93App   11.460749    94App   11.462897   154Ap    11.469991  
     155Ap    11.514099    95App   11.694526    96App   11.697888  
     156Ap    11.780376   157Ap    11.869245   158Ap    12.015776  
     159Ap    12.029182   160Ap    22.866014   161Ap    26.081897  
     162Ap    26.234550  

    Final Occupation by Irrep:
             Ap   App 
    DOCC [    16,    4 ]

  @DF-RHF Final Energy:  -956.81964850183431

   => Energetics <=

    Nuclear Repulsion Energy =            119.0157310843653988
    One-Electron Energy =               -1557.3816121929542078
    Two-Electron Energy =                 481.5462326067545291
    Total Energy =                       -956.8196485018343083

Computation Completed


Properties will be evaluated at   0.000000,   0.000000,   0.000000 [a0]

Properties computed using the SCF density matrix

  Nuclear Dipole Moment: [e a0]
     X:     0.0000      Y:    -0.0002      Z:    -0.2619

  Electronic Dipole Moment: [e a0]
     X:     0.0000      Y:    -0.0029      Z:     0.6626

  Dipole Moment: [e a0]
     X:     0.0000      Y:    -0.0031      Z:     0.4007     Total:     0.4007

  Dipole Moment: [D]
     X:     0.0000      Y:    -0.0078      Z:     1.0184     Total:     1.0185


*** tstop() called on bp1-compute00148.data.bp.acrc.priv at Mon Apr 19 16:10:04 2021
Module time:
	user time   =      37.94 seconds =       0.63 minutes
	system time =       1.43 seconds =       0.02 minutes
	total time  =          2 seconds =       0.03 minutes
Total time:
	user time   =    1598.28 seconds =      26.64 minutes
	system time =      81.54 seconds =       1.36 minutes
	total time  =        123 seconds =       2.05 minutes

*** tstart() called on bp1-compute00148.data.bp.acrc.priv
*** at Mon Apr 19 16:10:04 2021


  //>>>>>>>>>>>>>>>>>>>>>>>>>>>>>>>>>>>//
  //               DFMP2               //
  //<<<<<<<<<<<<<<<<<<<<<<<<<<<<<<<<<<<//

   => Loading Basis Set <=

    Name: (AUG-CC-PV(Q+D)Z AUX)
    Role: RIFIT
    Keyword: DF_BASIS_MP2
    atoms 1   entry C          line   184 file /work/zw18965/.conda/envs/p4env/share/psi4/basis/aug-cc-pvqz-ri.gbs 
    atoms 2-3 entry CL         line   914 file /work/zw18965/.conda/envs/p4env/share/psi4/basis/aug-cc-pvqz-ri.gbs 

	 --------------------------------------------------------
	                          DF-MP2                         
	      2nd-Order Density-Fitted Moller-Plesset Theory     
	              RMP2 Wavefunction,  24 Threads             
	                                                         
	        Rob Parrish, Justin Turney, Andy Simmonett,      
	           Ed Hohenstein, and C. David Sherrill          
	 --------------------------------------------------------

   => Auxiliary Basis Set <=

  Basis Set: (AUG-CC-PV(Q+D)Z AUX)
    Blend: AUG-CC-PVQZ-RI
    Number of shells: 124
    Number of basis function: 556
    Number of Cartesian functions: 773
    Spherical Harmonics?: true
    Max angular momentum: 5

	 --------------------------------------------------------
	                 NBF =   258, NAUX =   556
	 --------------------------------------------------------
	   CLASS    FOCC     OCC    AOCC    AVIR     VIR    FVIR
	   PAIRS       0      20      20     238     238       0
	 --------------------------------------------------------

  DFHelper Memory: AOs need 0.282 GiB; user supplied 100.583 GiB. Using in-core AOs.


         ------------------------------------------------------------
                                     CPHF                           
                                  Rob Parrish                       
         ------------------------------------------------------------

  ==> Geometry <==

    Molecular point group: cs
    Full point group: Cs

    Geometry (in Angstrom), charge = 0, multiplicity = 1:

       Center              X                  Y                   Z               Mass       
    ------------   -----------------  -----------------  -----------------  -----------------
         C            0.000000000000    -0.000681225867    -0.833774419984    12.000000000000
         CL           0.000000000000     1.383554497621     0.143142602218    34.968852682000
         CL           0.000000000000    -1.383320726428     0.142977538205    34.968852682000

  Nuclear repulsion =  119.015731084365399
  Reference energy  = -956.819648501834308

  ==> Basis Set <==

  Basis Set: AUG-CC-PV(Q+D)Z
    Blend: AUG-CC-PV(Q+D)Z
    Number of shells: 66
    Number of basis function: 258
    Number of Cartesian functions: 335
    Spherical Harmonics?: true
    Max angular momentum: 4

  ==> CGRSolver (by Rob Parrish) <==

   Number of roots    =         1
   Preconditioning    =    JACOBI
   Convergence cutoff =     1E-06
   Maximum iterations =       100

  ==> CPHFRHamiltonian (by Rob Parrish) <== 

  ==> MemDFJK: Density-Fitted J/K Matrices <==

    J tasked:                   Yes
    K tasked:                   Yes
    wK tasked:                   No
    OpenMP threads:              24
    Memory [MiB]:            102996
    Algorithm:                 Core
    Schwarz Cutoff:           1E-12
    Mask sparsity (%):       0.4867
    Fitting Condition:        1E-10

   => Auxiliary Basis Set <=

  Basis Set: (AUG-CC-PV(Q+D)Z AUX)
    Blend: AUG-CC-PVQZ-JKFIT
    Number of shells: 126
    Number of basis function: 510
    Number of Cartesian functions: 692
    Spherical Harmonics?: true
    Max angular momentum: 5

  ==> CPHF Iterations <==

  => Iterations <=

             Iter  Converged  Remaining    Residual
  CGR           1          0          1   1.750E-01
  CGR           2          0          1   4.705E-02
  CGR           3          0          1   1.676E-02
  CGR           4          0          1   3.930E-03
  CGR           5          0          1   1.792E-03
  CGR           6          0          1   4.101E-04
  CGR           7          0          1   1.369E-04
  CGR           8          0          1   3.176E-05
  CGR           9          0          1   5.285E-06
  CGR          10          0          1   1.462E-06
  CGR          11          1          0   2.686E-07

    CGRSolver converged.

  ==> DFCorrGrad: Density-Fitted Correlated Gradients <==

    OpenMP threads:             24
    Integrals threads:          24
    Memory [GiB]:          100.583
    Schwarz Cutoff:          0E+00
    Fitting Condition:       1E-10

   => Auxiliary Basis Set <=

  Basis Set: (AUG-CC-PV(Q+D)Z AUX)
    Blend: AUG-CC-PVQZ-JKFIT
    Number of shells: 126
    Number of basis function: 510
    Number of Cartesian functions: 692
    Spherical Harmonics?: true
    Max angular momentum: 5

	-----------------------------------------------------------
	 ==================> DF-MP2 Energies <==================== 
	-----------------------------------------------------------
	 Reference Energy          =    -956.8196485018343083 [Eh]
	 Singles Energy            =      -0.0000000000000000 [Eh]
	 Same-Spin Energy          =      -0.2269739740155708 [Eh]
	 Opposite-Spin Energy      =      -0.6414924169675587 [Eh]
	 Correlation Energy        =      -0.8684663909831295 [Eh]
	 Total Energy              =    -957.6881148928174525 [Eh]
	-----------------------------------------------------------
	 ================> DF-SCS-MP2 Energies <================== 
	-----------------------------------------------------------
	 SCS Same-Spin Scale       =       0.3333333333333333 [-]
	 SCS Opposite-Spin Scale   =       1.2000000000000000 [-]
	 SCS Same-Spin Energy      =      -0.0756579913385236 [Eh]
	 SCS Opposite-Spin Energy  =      -0.7697909003610703 [Eh]
	 SCS Correlation Energy    =      -0.8454488916995939 [Eh]
	 SCS Total Energy          =    -957.6650973935338698 [Eh]
	-----------------------------------------------------------


  -Total Gradient:
     Atom            X                  Y                   Z
    ------   -----------------  -----------------  -----------------
       1        0.000000000000    -0.000384970782     0.000013498557
       2        0.000000000000     0.000156845632     0.000129165119
       3        0.000000000000     0.000228125126    -0.000142663672


*** tstop() called on bp1-compute00148.data.bp.acrc.priv at Mon Apr 19 16:10:13 2021
Module time:
	user time   =     108.11 seconds =       1.80 minutes
	system time =       5.45 seconds =       0.09 minutes
	total time  =          9 seconds =       0.15 minutes
Total time:
	user time   =    1706.40 seconds =      28.44 minutes
	system time =      86.99 seconds =       1.45 minutes
	total time  =        132 seconds =       2.20 minutes

         ----------------------------------------------------------
                                   FINDIF
                     R. A. King and Jonathon Misiewicz
         ---------------------------------------------------------

  Computing second-derivative from gradients using projected, 
  symmetry-adapted, cartesian coordinates.

  6 gradients passed in, including the reference geometry.
  Generating complete list of displacements from unique ones.

    Operation 2 takes plus displacements of irrep B2 to minus ones.

-------------------------------------------------------------


  ==> Harmonic Vibrational Analysis <==

  non-mass-weighted Hessian:       Symmetric? True   Hermitian? True   Lin Dep Dim?  6 (0)
  projection of translations (True) and rotations (True) removed 6 degrees of freedom (6)
  total projector:                 Symmetric? True   Hermitian? True   Lin Dep Dim?  6 (6)
  mass-weighted Hessian:           Symmetric? True   Hermitian? True   Lin Dep Dim?  6 (0)
  pre-proj  low-frequency mode:    0.0000i [cm^-1]
  pre-proj  low-frequency mode:    0.0000i [cm^-1]
  pre-proj  low-frequency mode:    0.0000i [cm^-1]
  pre-proj  low-frequency mode:    0.0000  [cm^-1]
  pre-proj  low-frequency mode:    0.0000  [cm^-1]
  pre-proj  low-frequency mode:    0.0000  [cm^-1]
  pre-proj  all modes:['0.0000i' '0.0000i' '0.0000i' '0.0000' '0.0000' '0.0000' '352.7146'
 '762.8974' '811.4892']
  projected mass-weighted Hessian: Symmetric? True   Hermitian? True   Lin Dep Dim?  6 (6)
  post-proj low-frequency mode:    0.0000i [cm^-1] (TR)
  post-proj low-frequency mode:    0.0000i [cm^-1] (TR)
  post-proj low-frequency mode:    0.0000i [cm^-1] (TR)
  post-proj low-frequency mode:    0.0000  [cm^-1] (TR)
  post-proj low-frequency mode:    0.0000  [cm^-1] (TR)
  post-proj low-frequency mode:    0.0000  [cm^-1] (TR)
  post-proj  all modes:['0.0000i' '0.0000i' '0.0000i' '0.0000' '0.0000' '0.0000' '352.7146'
 '762.8974' '811.4892']

  Vibration                       7                   8                   9           
  Freq [cm^-1]                 352.7146            762.8974            811.4892       
  Irrep                           A1                  A1                  B2          
  Reduced mass [u]             29.0920             14.3802             13.8624        
  Force const [mDyne/A]         2.1324              4.9311              5.3784        
  Turning point v=0 [a0]        0.1083              0.1048              0.1035        
  RMS dev v=0 [a0 u^1/2]        0.4131              0.2809              0.2724        
  Char temp [K]                507.4779           1097.6395           1167.5523       
  ----------------------------------------------------------------------------------
      1   C               -0.00  0.00  0.51    0.00 -0.00  0.95    0.00  0.96  0.00   
      2   CL               0.00  0.60 -0.09    0.00 -0.16 -0.16   -0.00 -0.16 -0.12   
      3   CL               0.00 -0.60 -0.09   -0.00  0.16 -0.16   -0.00 -0.16  0.12   

  ==> Thermochemistry Components <==

  Entropy, S
    Electronic S            0.000 [cal/(mol K)]        0.000 [J/(mol K)]       0.00000000 [mEh/K] (multiplicity = 1)
    Translational S        39.124 [cal/(mol K)]      163.696 [J/(mol K)]       0.06234835 [mEh/K] (mol. weight = 81.9377 [u], P = 101325.00 [Pa])
    Rotational S           22.286 [cal/(mol K)]       93.243 [J/(mol K)]       0.03551432 [mEh/K] (symmetry no. = 2)
    Vibrational S           1.592 [cal/(mol K)]        6.661 [J/(mol K)]       0.00253686 [mEh/K]
  Total S                  63.002 [cal/(mol K)]      263.599 [J/(mol K)]       0.10039953 [mEh/K]
  Correction S              0.000 [cal/(mol K)]        0.000 [J/(mol K)]       0.00000000 [mEh/K]

  Constant volume heat capacity, Cv
    Electronic Cv           0.000 [cal/(mol K)]        0.000 [J/(mol K)]       0.00000000 [mEh/K]
    Translational Cv        2.981 [cal/(mol K)]       12.472 [J/(mol K)]       0.00475022 [mEh/K]
    Rotational Cv           2.981 [cal/(mol K)]       12.472 [J/(mol K)]       0.00475022 [mEh/K]
    Vibrational Cv          2.916 [cal/(mol K)]       12.198 [J/(mol K)]       0.00464615 [mEh/K]
  Total Cv                  8.877 [cal/(mol K)]       37.142 [J/(mol K)]       0.01414658 [mEh/K]
  Correction Cv             0.000 [cal/(mol K)]        0.000 [J/(mol K)]       0.00000000 [mEh/K]

  Constant pressure heat capacity, Cp
    Electronic Cp           0.000 [cal/(mol K)]        0.000 [J/(mol K)]       0.00000000 [mEh/K]
    Translational Cp        4.968 [cal/(mol K)]       20.786 [J/(mol K)]       0.00791703 [mEh/K]
    Rotational Cp           2.981 [cal/(mol K)]       12.472 [J/(mol K)]       0.00475022 [mEh/K]
    Vibrational Cp          2.916 [cal/(mol K)]       12.198 [J/(mol K)]       0.00464615 [mEh/K]
  Total Cp                 10.864 [cal/(mol K)]       45.456 [J/(mol K)]       0.01731339 [mEh/K]
  Correction Cp             0.000 [cal/(mol K)]        0.000 [J/(mol K)]       0.00000000 [mEh/K]

  ==> Thermochemistry Energy Analysis <==

  Raw electronic energy, E0
  Total E0, Electronic energy at well bottom at 0 [K]                 -957.68811520 [Eh]

  Zero-point energy, ZPE_vib = Sum_i nu_i / 2
    Electronic ZPE          0.000 [kcal/mol]        0.000 [kJ/mol]       0.00000000 [Eh]
    Translational ZPE       0.000 [kcal/mol]        0.000 [kJ/mol]       0.00000000 [Eh]
    Rotational ZPE          0.000 [kcal/mol]        0.000 [kJ/mol]       0.00000000 [Eh]
    Vibrational ZPE         2.755 [kcal/mol]       11.527 [kJ/mol]       0.00439026 [Eh]         963.551 [cm^-1]
  Correction ZPE            2.755 [kcal/mol]       11.527 [kJ/mol]       0.00439026 [Eh]         963.551 [cm^-1]
  Total ZPE, Electronic energy at 0 [K]                               -957.68372494 [Eh]

  Thermal Energy, E (includes ZPE)
    Electronic E            0.000 [kcal/mol]        0.000 [kJ/mol]       0.00000000 [Eh]
    Translational E         0.889 [kcal/mol]        3.718 [kJ/mol]       0.00141628 [Eh]
    Rotational E            0.889 [kcal/mol]        3.718 [kJ/mol]       0.00141628 [Eh]
    Vibrational E           3.083 [kcal/mol]       12.900 [kJ/mol]       0.00491351 [Eh]
  Correction E              4.861 [kcal/mol]       20.337 [kJ/mol]       0.00774606 [Eh]
  Total E, Electronic energy at  298.15 [K]                           -957.68036914 [Eh]

  Enthalpy, H_trans = E_trans + k_B * T
    Electronic H            0.000 [kcal/mol]        0.000 [kJ/mol]       0.00000000 [Eh]
    Translational H         1.481 [kcal/mol]        6.197 [kJ/mol]       0.00236046 [Eh]
    Rotational H            0.889 [kcal/mol]        3.718 [kJ/mol]       0.00141628 [Eh]
    Vibrational H           3.083 [kcal/mol]       12.900 [kJ/mol]       0.00491351 [Eh]
  Correction H              5.453 [kcal/mol]       22.816 [kJ/mol]       0.00869025 [Eh]
  Total H, Enthalpy at  298.15 [K]                                    -957.67942495 [Eh]

  Gibbs free energy, G = H - T * S
    Electronic G            0.000 [kcal/mol]        0.000 [kJ/mol]       0.00000000 [Eh]
    Translational G       -10.184 [kcal/mol]      -42.608 [kJ/mol]      -0.01622870 [Eh]
    Rotational G           -5.756 [kcal/mol]      -24.082 [kJ/mol]      -0.00917232 [Eh]
    Vibrational G           2.609 [kcal/mol]       10.915 [kJ/mol]       0.00415715 [Eh]
  Correction G            -13.331 [kcal/mol]      -55.776 [kJ/mol]      -0.02124387 [Eh]
  Total G, Free enthalpy at  298.15 [K]                               -957.70935908 [Eh]

    Psi4 stopped on: Monday, 19 April 2021 04:10PM
    Psi4 wall time for execution: 0:02:12.02

*** Psi4 exiting successfully. Buy a developer a beer!
