
    -----------------------------------------------------------------------
          Psi4: An Open-Source Ab Initio Electronic Structure Package
                               Psi4 1.3.2 release

                         Git: Rev {HEAD} ecbda83 


    R. M. Parrish, L. A. Burns, D. G. A. Smith, A. C. Simmonett,
    A. E. DePrince III, E. G. Hohenstein, U. Bozkaya, A. Yu. Sokolov,
    R. Di Remigio, R. M. Richard, J. F. Gonthier, A. M. James,
    H. R. McAlexander, A. Kumar, M. Saitow, X. Wang, B. P. Pritchard,
    P. Verma, H. F. Schaefer III, K. Patkowski, R. A. King, E. F. Valeev,
    F. A. Evangelista, J. M. Turney, T. D. Crawford, and C. D. Sherrill,
    J. Chem. Theory Comput. 13(7) pp 3185--3197 (2017).
    (doi: 10.1021/acs.jctc.7b00174)


                         Additional Contributions by
    P. Kraus, H. Kruse, M. H. Lechner, M. C. Schieber, R. A. Shaw,
    A. Alenaizan, R. Galvelis, Z. L. Glick, S. Lehtola, and J. P. Misiewicz

    -----------------------------------------------------------------------


    Psi4 started on: Monday, 19 April 2021 04:10PM

    Process ID: 204314
    Host:       bp1-compute00148.data.bp.acrc.priv
    PSIDATADIR: /work/zw18965/.conda/envs/p4env/share/psi4
    Memory:     500.0 MiB
    Threads:    24
    
  ==> Input File <==

--------------------------------------------------------------------------
memory 144 GB

molecule {
0 1
Cl   -1.005301993365   0.000000000000   0.000000000000
Cl    1.005301993365   0.000000000000   0.000000000000}

set basis aug-cc-pV(Q+d)Z
 
optimize("MP2")
frequencies("MP2")--------------------------------------------------------------------------

  Memory set to 134.110 GiB by Python driver.
gradient() will perform analytic gradient computation.
    SCF Algorithm Type (re)set to DF.

*** tstart() called on bp1-compute00148.data.bp.acrc.priv
*** at Mon Apr 19 16:10:18 2021

   => Loading Basis Set <=

    Name: AUG-CC-PV(Q+D)Z
    Role: ORBITAL
    Keyword: BASIS
    atoms 1-2 entry CL         line  1246 file /work/zw18965/.conda/envs/p4env/share/psi4/basis/aug-cc-pv_qpd_z.gbs 


         ---------------------------------------------------------
                                   SCF
               by Justin Turney, Rob Parrish, Andy Simmonett
                          and Daniel G. A. Smith
                              RHF Reference
                       24 Threads, 137329 MiB Core
         ---------------------------------------------------------

  ==> Geometry <==

    Molecular point group: d2h
    Full point group: D_inf_h

    Geometry (in Angstrom), charge = 0, multiplicity = 1:

       Center              X                  Y                   Z               Mass       
    ------------   -----------------  -----------------  -----------------  -----------------
         CL          -1.005301993365    -0.000000000000     0.000000000000    34.968852682000
         CL           1.005301993365     0.000000000000     0.000000000000    34.968852682000

  Running in d2h symmetry.

  Rotational constants: A = ************  B =      0.23850  C =      0.23850 [cm^-1]
  Rotational constants: A = ************  B =   7150.11016  C =   7150.11016 [MHz]
  Nuclear repulsion =   76.062822362326827

  Charge       = 0
  Multiplicity = 1
  Electrons    = 34
  Nalpha       = 17
  Nbeta        = 17

  ==> Algorithm <==

  SCF Algorithm Type is DF.
  DIIS enabled.
  MOM disabled.
  Fractional occupation disabled.
  Guess Type is SAD.
  Energy threshold   = 1.00e-10
  Density threshold  = 1.00e-10
  Integral threshold = 0.00e+00

  ==> Primary Basis <==

  Basis Set: AUG-CC-PV(Q+D)Z
    Blend: AUG-CC-PV(Q+D)Z
    Number of shells: 46
    Number of basis function: 178
    Number of Cartesian functions: 230
    Spherical Harmonics?: true
    Max angular momentum: 4

   => Loading Basis Set <=

    Name: (AUG-CC-PV(Q+D)Z AUX)
    Role: JKFIT
    Keyword: DF_BASIS_SCF
    atoms 1-2 entry CL         line   904 file /work/zw18965/.conda/envs/p4env/share/psi4/basis/aug-cc-pvqz-jkfit.gbs 

  ==> Pre-Iterations <==

   -------------------------------------------------------
    Irrep   Nso     Nmo     Nalpha   Nbeta   Ndocc  Nsocc
   -------------------------------------------------------
     Ag        35      35       0       0       0       0
     B1g       21      21       0       0       0       0
     B2g       21      21       0       0       0       0
     B3g       12      12       0       0       0       0
     Au        12      12       0       0       0       0
     B1u       21      21       0       0       0       0
     B2u       21      21       0       0       0       0
     B3u       35      35       0       0       0       0
   -------------------------------------------------------
    Total     178     178      17      17      17       0
   -------------------------------------------------------

  ==> Integral Setup <==

  DFHelper Memory: AOs need 0.101 GiB; user supplied 100.583 GiB. Using in-core AOs.

  ==> MemDFJK: Density-Fitted J/K Matrices <==

    J tasked:                   Yes
    K tasked:                   Yes
    wK tasked:                   No
    OpenMP threads:              24
    Memory [MiB]:            102996
    Algorithm:                 Core
    Schwarz Cutoff:           1E-12
    Mask sparsity (%):       0.1704
    Fitting Condition:        1E-10

   => Auxiliary Basis Set <=

  Basis Set: (AUG-CC-PV(Q+D)Z AUX)
    Blend: AUG-CC-PVQZ-JKFIT
    Number of shells: 92
    Number of basis function: 368
    Number of Cartesian functions: 494
    Spherical Harmonics?: true
    Max angular momentum: 5

  Minimum eigenvalue in the overlap matrix is 1.0888610151E-04.
  Using Symmetric Orthogonalization.

  SCF Guess: Superposition of Atomic Densities via on-the-fly atomic UHF.

  ==> Iterations <==

                           Total Energy        Delta E     RMS |[F,P]|

   @DF-RHF iter SAD:  -918.79299594982160   -9.18793e+02   0.00000e+00 
   @DF-RHF iter   1:  -918.99210890235167   -1.99113e-01   3.01445e-03 DIIS
   @DF-RHF iter   2:  -919.00603005982293   -1.39212e-02   1.28579e-03 DIIS
   @DF-RHF iter   3:  -919.00829824520781   -2.26819e-03   2.28870e-04 DIIS
   @DF-RHF iter   4:  -919.00853238270076   -2.34137e-04   6.94685e-05 DIIS
   @DF-RHF iter   5:  -919.00856014133035   -2.77586e-05   1.16141e-05 DIIS
   @DF-RHF iter   6:  -919.00856077278024   -6.31450e-07   1.48798e-06 DIIS
   @DF-RHF iter   7:  -919.00856077912647   -6.34623e-09   1.77483e-07 DIIS
   @DF-RHF iter   8:  -919.00856077925960   -1.33127e-10   2.82671e-08 DIIS
   @DF-RHF iter   9:  -919.00856077926119   -1.59162e-12   2.76002e-09 DIIS
   @DF-RHF iter  10:  -919.00856077926062    5.68434e-13   3.34730e-10 DIIS
   @DF-RHF iter  11:  -919.00856077926107   -4.54747e-13   4.15326e-11 DIIS
  Energy and wave function converged.


  ==> Post-Iterations <==

    Orbital Energies [Eh]
    ---------------------

    Doubly Occupied:                                                      

       1Ag  -104.899193     1B3u -104.899191     2Ag   -10.620730  
       2B3u  -10.620573     3Ag    -8.087953     3B3u   -8.087713  
       1B2u   -8.085026     1B1u   -8.085026     1B2g   -8.085021  
       1B1g   -8.085021     4Ag    -1.212244     4B3u   -1.017348  
       5Ag    -0.594017     2B1u   -0.567095     2B2u   -0.567095  
       2B1g   -0.446164     2B2g   -0.446164  

    Virtual:                                                              

       5B3u    0.018851     6B3u    0.077986     6Ag     0.086403  
       3B1u    0.094256     3B2u    0.094256     3B2g    0.117687  
       3B1g    0.117687     7Ag     0.122686     7B3u    0.213540  
       1B3g    0.224432     8Ag     0.224432     4B1u    0.277074  
       4B2u    0.277074     9Ag     0.311240     1Au     0.316330  
       8B3u    0.316330     9B3u    0.338753     4B2g    0.362089  
       4B1g    0.362089     5B1u    0.459947     5B2u    0.459947  
      10Ag     0.511178     5B2g    0.541514     5B1g    0.541514  
      10B3u    0.545542     6B1u    0.546569     6B2u    0.546569  
      11Ag     0.581900     2B3g    0.587103    12Ag     0.587103  
       2Au     0.671037    11B3u    0.671037    13Ag     0.710260  
       7B1u    0.755954     7B2u    0.755954     6B2g    0.774209  
       6B1g    0.774209    12B3u    0.815606     3B3g    0.823600  
      14Ag     0.823600     7B2g    0.897667     7B1g    0.897667  
      13B3u    1.024648     8B1u    1.039614     8B2u    1.039614  
       3Au     1.077348    14B3u    1.077348    15Ag     1.130128  
       8B1g    1.168898     8B2g    1.168898    15B3u    1.235062  
       9B2u    1.534167     9B1u    1.534167    16Ag     1.562783  
       4B3g    1.562783    17Ag     1.566302    16B3u    1.584082  
       9B1g    1.629803     9B2g    1.629803    17B3u    1.631494  
       4Au     1.631494    10B1u    1.734870    10B2u    1.734870  
      11B2u    1.736672    11B1u    1.736672    18Ag     1.756621  
      19Ag     1.786792     5B3g    1.786792     6B3g    1.806038  
      20Ag     1.806038    18B3u    1.924125     5Au     1.924125  
      10B1g    1.934811    10B2g    1.934811    12B1u    1.976787  
      12B2u    1.976787    13B1u    2.008571    13B2u    2.008571  
      11B2g    2.083216    11B1g    2.083216    21Ag     2.137514  
       7B3g    2.137514    22Ag     2.151941    12B2g    2.168031  
      12B1g    2.168031     6Au     2.206532    19B3u    2.206532  
      20B3u    2.250220    13B1g    2.291309    13B2g    2.291309  
      21B3u    2.429205    14B2u    2.470007    14B1u    2.470007  
      23Ag     2.584980     7Au     2.586820    22B3u    2.586820  
      23B3u    2.808859    24Ag     3.013619    14B1g    3.110118  
      14B2g    3.110118    24B3u    3.382207    25Ag     3.708740  
       8B3g    3.708740    25B3u    3.777744     8Au     3.777744  
      15B2u    3.777745    15B1u    3.777745    26Ag     3.863214  
      15B1g    3.956395    15B2g    3.956395    27Ag     4.441073  
      16B2u    4.542288    16B1u    4.542288    26B3u    4.568358  
      17B2u    4.649995    17B1u    4.649995     9B3g    4.655308  
      28Ag     4.655308    18B2u    4.656792    18B1u    4.656792  
      10B3g    4.657527    29Ag     4.657527    30Ag     4.672563  
      11B3g    4.672563    16B1g    4.698772    16B2g    4.698772  
      27B3u    4.727391     9Au     4.727391    28B3u    4.736970  
      10Au     4.783305    29B3u    4.783305    17B2g    4.818416  
      17B1g    4.818416    18B1g    4.855151    18B2g    4.855151  
      19B1u    4.879934    19B2u    4.879934    31Ag     5.033021  
      11Au     5.042869    30B3u    5.042869    19B1g    5.347871  
      19B2g    5.347871    31B3u    5.859358    20B2u    6.076654  
      20B1u    6.076654    20B1g    6.660944    20B2g    6.660944  
      32Ag     7.224886    32B3u    7.315489    33Ag    11.385337  
      12B3g   11.385337    21B1u   11.408433    21B2u   11.408433  
      33B3u   11.440222    12Au    11.440222    34Ag    11.554253  
      21B1g   11.643237    21B2g   11.643237    34B3u   12.093091  
      35Ag    23.265322    35B3u   25.973666  

    Final Occupation by Irrep:
             Ag   B1g   B2g   B3g    Au   B1u   B2u   B3u 
    DOCC [     5,    2,    2,    0,    0,    2,    2,    4 ]

  @DF-RHF Final Energy:  -919.00856077926107

   => Energetics <=

    Nuclear Repulsion Energy =             76.0628223623268269
    One-Electron Energy =               -1421.3316181696661715
    Two-Electron Energy =                 426.2602350280782275
    Total Energy =                       -919.0085607792610745

Computation Completed


Properties will be evaluated at   0.000000,   0.000000,   0.000000 [a0]

Properties computed using the SCF density matrix

  Nuclear Dipole Moment: [e a0]
     X:     0.0000      Y:    -0.0000      Z:     0.0000

  Electronic Dipole Moment: [e a0]
     X:     0.0000      Y:     0.0000      Z:     0.0000

  Dipole Moment: [e a0]
     X:     0.0000      Y:    -0.0000      Z:     0.0000     Total:     0.0000

  Dipole Moment: [D]
     X:     0.0000      Y:    -0.0000      Z:     0.0000     Total:     0.0000


*** tstop() called on bp1-compute00148.data.bp.acrc.priv at Mon Apr 19 16:10:20 2021
Module time:
	user time   =      24.05 seconds =       0.40 minutes
	system time =       1.14 seconds =       0.02 minutes
	total time  =          2 seconds =       0.03 minutes
Total time:
	user time   =      24.05 seconds =       0.40 minutes
	system time =       1.14 seconds =       0.02 minutes
	total time  =          2 seconds =       0.03 minutes

*** tstart() called on bp1-compute00148.data.bp.acrc.priv
*** at Mon Apr 19 16:10:20 2021


  //>>>>>>>>>>>>>>>>>>>>>>>>>>>>>>>>>>>//
  //               DFMP2               //
  //<<<<<<<<<<<<<<<<<<<<<<<<<<<<<<<<<<<//

   => Loading Basis Set <=

    Name: (AUG-CC-PV(Q+D)Z AUX)
    Role: RIFIT
    Keyword: DF_BASIS_MP2
    atoms 1-2 entry CL         line   914 file /work/zw18965/.conda/envs/p4env/share/psi4/basis/aug-cc-pvqz-ri.gbs 

	 --------------------------------------------------------
	                          DF-MP2                         
	      2nd-Order Density-Fitted Moller-Plesset Theory     
	              RMP2 Wavefunction,  24 Threads             
	                                                         
	        Rob Parrish, Justin Turney, Andy Simmonett,      
	           Ed Hohenstein, and C. David Sherrill          
	 --------------------------------------------------------

   => Auxiliary Basis Set <=

  Basis Set: (AUG-CC-PV(Q+D)Z AUX)
    Blend: AUG-CC-PVQZ-RI
    Number of shells: 88
    Number of basis function: 388
    Number of Cartesian functions: 536
    Spherical Harmonics?: true
    Max angular momentum: 5

	 --------------------------------------------------------
	                 NBF =   178, NAUX =   388
	 --------------------------------------------------------
	   CLASS    FOCC     OCC    AOCC    AVIR     VIR    FVIR
	   PAIRS       0      17      17     161     161       0
	 --------------------------------------------------------

  DFHelper Memory: AOs need 0.101 GiB; user supplied 100.583 GiB. Using in-core AOs.


         ------------------------------------------------------------
                                     CPHF                           
                                  Rob Parrish                       
         ------------------------------------------------------------

  ==> Geometry <==

    Molecular point group: d2h
    Full point group: D_inf_h

    Geometry (in Angstrom), charge = 0, multiplicity = 1:

       Center              X                  Y                   Z               Mass       
    ------------   -----------------  -----------------  -----------------  -----------------
         CL          -1.005301993365    -0.000000000000     0.000000000000    34.968852682000
         CL           1.005301993365     0.000000000000     0.000000000000    34.968852682000

  Nuclear repulsion =   76.062822362326827
  Reference energy  = -919.008560779261074

  ==> Basis Set <==

  Basis Set: AUG-CC-PV(Q+D)Z
    Blend: AUG-CC-PV(Q+D)Z
    Number of shells: 46
    Number of basis function: 178
    Number of Cartesian functions: 230
    Spherical Harmonics?: true
    Max angular momentum: 4

  ==> CGRSolver (by Rob Parrish) <==

   Number of roots    =         1
   Preconditioning    =    JACOBI
   Convergence cutoff =     1E-06
   Maximum iterations =       100

  ==> CPHFRHamiltonian (by Rob Parrish) <== 

  ==> MemDFJK: Density-Fitted J/K Matrices <==

    J tasked:                   Yes
    K tasked:                   Yes
    wK tasked:                   No
    OpenMP threads:              24
    Memory [MiB]:            102996
    Algorithm:                 Core
    Schwarz Cutoff:           1E-12
    Mask sparsity (%):       0.1704
    Fitting Condition:        1E-10

   => Auxiliary Basis Set <=

  Basis Set: (AUG-CC-PV(Q+D)Z AUX)
    Blend: AUG-CC-PVQZ-JKFIT
    Number of shells: 92
    Number of basis function: 368
    Number of Cartesian functions: 494
    Spherical Harmonics?: true
    Max angular momentum: 5

  ==> CPHF Iterations <==

  => Iterations <=

             Iter  Converged  Remaining    Residual
  CGR           1          0          1   6.224E-02
  CGR           2          0          1   1.198E-02
  CGR           3          0          1   3.113E-03
  CGR           4          0          1   3.878E-04
  CGR           5          0          1   1.190E-04
  CGR           6          0          1   1.682E-05
  CGR           7          0          1   1.587E-06
  CGR           8          1          0   1.528E-07

    CGRSolver converged.

Problem determining natural orbital and density matrix symmetries.
Future calls to oeprop using this density will not work. Try disabling symmetry.

  ==> DFCorrGrad: Density-Fitted Correlated Gradients <==

    OpenMP threads:             24
    Integrals threads:          24
    Memory [GiB]:          100.583
    Schwarz Cutoff:          0E+00
    Fitting Condition:       1E-10

   => Auxiliary Basis Set <=

  Basis Set: (AUG-CC-PV(Q+D)Z AUX)
    Blend: AUG-CC-PVQZ-JKFIT
    Number of shells: 92
    Number of basis function: 368
    Number of Cartesian functions: 494
    Spherical Harmonics?: true
    Max angular momentum: 5

	-----------------------------------------------------------
	 ==================> DF-MP2 Energies <==================== 
	-----------------------------------------------------------
	 Reference Energy          =    -919.0085607792610745 [Eh]
	 Singles Energy            =      -0.0000000000000000 [Eh]
	 Same-Spin Energy          =      -0.1849905566763718 [Eh]
	 Opposite-Spin Energy      =      -0.5095616764026417 [Eh]
	 Correlation Energy        =      -0.6945522330790135 [Eh]
	 Total Energy              =    -919.7031130123400544 [Eh]
	-----------------------------------------------------------
	 ================> DF-SCS-MP2 Energies <================== 
	-----------------------------------------------------------
	 SCS Same-Spin Scale       =       0.3333333333333333 [-]
	 SCS Opposite-Spin Scale   =       1.2000000000000000 [-]
	 SCS Same-Spin Energy      =      -0.0616635188921239 [Eh]
	 SCS Opposite-Spin Energy  =      -0.6114740116831701 [Eh]
	 SCS Correlation Energy    =      -0.6731375305752940 [Eh]
	 SCS Total Energy          =    -919.6816983098364062 [Eh]
	-----------------------------------------------------------


  -Total Gradient:
     Atom            X                  Y                   Z
    ------   -----------------  -----------------  -----------------
       1       -0.014179686498    -0.000000000000     0.000000000000
       2        0.014179686498     0.000000000000     0.000000000000


*** tstop() called on bp1-compute00148.data.bp.acrc.priv at Mon Apr 19 16:10:27 2021
Module time:
	user time   =      81.77 seconds =       1.36 minutes
	system time =       4.74 seconds =       0.08 minutes
	total time  =          7 seconds =       0.12 minutes
Total time:
	user time   =     105.84 seconds =       1.76 minutes
	system time =       5.88 seconds =       0.10 minutes
	total time  =          9 seconds =       0.15 minutes

			-----------------------------------------
			 OPTKING 2.0: for geometry optimizations 
			  - R.A. King,  Bethel University        
			-----------------------------------------

	Internal coordinates to be generated automatically.
	Detected frag 1 with atoms:  1 2
	---Fragment 1 Bond Connectivity---
	 1 : 2
	 2 : 1

	---Fragment 1 Geometry and Gradient---
	 CL         -1.8997454408       -0.0000000000        0.0000000000
	 CL          1.8997454408        0.0000000000        0.0000000000
	            -0.0141796865       -0.0000000000        0.0000000000
	             0.0141796865        0.0000000000        0.0000000000

	Previous optimization step data not found.  Starting new optimization.

	---Fragment 1 Intrafragment Coordinates---
	 - Coordinate -           - BOHR/RAD -       - ANG/DEG -
	 R(1,2)           =         3.799491	       2.010604

	Current energy   :      -919.7031130123

	Generating empirical Hessian (Schlegel '84) for each fragment.
	Taking RFO optimization step.
	Going to follow RFO solution 1.
	Using RFO vector 1.
	Norm of target step-size    0.04237
	Projected energy change by RFO approximation:         0.0002963908

	Back-transformation to cartesian coordinates...
	Successfully converged to displaced geometry.

	--- Internal Coordinate Step in ANG or DEG, aJ/ANG or AJ/DEG ---
	 ---------------------------------------------------------------------------
	   Coordinate                Previous        Force       Change         New 
	   ----------                --------       ------       ------       ------
	    1 R(1,2)          =      2.010604    -0.116822    -0.022423     1.988181
	 ---------------------------------------------------------------------------
	Successfully symmetrized geometry.

  ==> Convergence Check <==

  Measures of convergence in internal coordinates in au.
  Criteria marked as inactive (o), active & met (*), and active & unmet ( ).
  --------------------------------------------------------------------------------------------- ~
   Step     Total Energy     Delta E     MAX Force     RMS Force      MAX Disp      RMS Disp    ~
  --------------------------------------------------------------------------------------------- ~
    Convergence Criteria    1.00e-06 *    3.00e-04 *             o    1.20e-03 *             o  ~
  --------------------------------------------------------------------------------------------- ~
      1    -919.70311301   -9.20e+02      1.42e-02      1.42e-02 o    4.24e-02      4.24e-02 o  ~
  ---------------------------------------------------------------------------------------------

	Writing optimization data to binary file.
	Structure for next step:
	Cartesian Geometry (in Angstrom)
	   CL    -0.9940903582  -0.0000000000   0.0000000000
	   CL     0.9940903582   0.0000000000   0.0000000000
			--------------------------
			 OPTKING Finished Execution 
			--------------------------

    Structure for next step:
    Molecular point group: d2h
    Full point group: D_inf_h

    Geometry (in Angstrom), charge = 0, multiplicity = 1:

    CL          -0.994090362126    -0.000000000000     0.000000000000
    CL           0.994090362126     0.000000000000     0.000000000000

gradient() will perform analytic gradient computation.
    SCF Algorithm Type (re)set to DF.

*** tstart() called on bp1-compute00148.data.bp.acrc.priv
*** at Mon Apr 19 16:10:27 2021

   => Loading Basis Set <=

    Name: AUG-CC-PV(Q+D)Z
    Role: ORBITAL
    Keyword: BASIS
    atoms 1-2 entry CL         line  1246 file /work/zw18965/.conda/envs/p4env/share/psi4/basis/aug-cc-pv_qpd_z.gbs 


         ---------------------------------------------------------
                                   SCF
               by Justin Turney, Rob Parrish, Andy Simmonett
                          and Daniel G. A. Smith
                              RHF Reference
                       24 Threads, 137329 MiB Core
         ---------------------------------------------------------

  ==> Geometry <==

    Molecular point group: d2h
    Full point group: D_inf_h

    Geometry (in Angstrom), charge = 0, multiplicity = 1:

       Center              X                  Y                   Z               Mass       
    ------------   -----------------  -----------------  -----------------  -----------------
         CL          -0.994090362126    -0.000000000000     0.000000000000    34.968852682000
         CL           0.994090362126     0.000000000000     0.000000000000    34.968852682000

  Running in d2h symmetry.

  Rotational constants: A = ************  B =      0.24391  C =      0.24391 [cm^-1]
  Rotational constants: A = ************  B =   7312.30156  C =   7312.30156 [MHz]
  Nuclear repulsion =   76.920680307455925

  Charge       = 0
  Multiplicity = 1
  Electrons    = 34
  Nalpha       = 17
  Nbeta        = 17

  ==> Algorithm <==

  SCF Algorithm Type is DF.
  DIIS enabled.
  MOM disabled.
  Fractional occupation disabled.
  Guess Type is READ.
  Energy threshold   = 1.00e-10
  Density threshold  = 1.00e-10
  Integral threshold = 0.00e+00

  ==> Primary Basis <==

  Basis Set: AUG-CC-PV(Q+D)Z
    Blend: AUG-CC-PV(Q+D)Z
    Number of shells: 46
    Number of basis function: 178
    Number of Cartesian functions: 230
    Spherical Harmonics?: true
    Max angular momentum: 4

   => Loading Basis Set <=

    Name: (AUG-CC-PV(Q+D)Z AUX)
    Role: JKFIT
    Keyword: DF_BASIS_SCF
    atoms 1-2 entry CL         line   904 file /work/zw18965/.conda/envs/p4env/share/psi4/basis/aug-cc-pvqz-jkfit.gbs 

   => Loading Basis Set <=

    Name: AUG-CC-PV(Q+D)Z
    Role: ORBITAL
    Keyword: BASIS
    atoms 1-2 entry CL         line  1246 file /work/zw18965/.conda/envs/p4env/share/psi4/basis/aug-cc-pv_qpd_z.gbs 

  Reading orbitals from file 180, no projection.

  ==> Pre-Iterations <==

   -------------------------------------------------------
    Irrep   Nso     Nmo     Nalpha   Nbeta   Ndocc  Nsocc
   -------------------------------------------------------
     Ag        35      35       0       0       0       0
     B1g       21      21       0       0       0       0
     B2g       21      21       0       0       0       0
     B3g       12      12       0       0       0       0
     Au        12      12       0       0       0       0
     B1u       21      21       0       0       0       0
     B2u       21      21       0       0       0       0
     B3u       35      35       0       0       0       0
   -------------------------------------------------------
    Total     178     178      17      17      17       0
   -------------------------------------------------------

  ==> Integral Setup <==

  DFHelper Memory: AOs need 0.101 GiB; user supplied 100.583 GiB. Using in-core AOs.

  ==> MemDFJK: Density-Fitted J/K Matrices <==

    J tasked:                   Yes
    K tasked:                   Yes
    wK tasked:                   No
    OpenMP threads:              24
    Memory [MiB]:            102996
    Algorithm:                 Core
    Schwarz Cutoff:           1E-12
    Mask sparsity (%):       0.1704
    Fitting Condition:        1E-10

   => Auxiliary Basis Set <=

  Basis Set: (AUG-CC-PV(Q+D)Z AUX)
    Blend: AUG-CC-PVQZ-JKFIT
    Number of shells: 92
    Number of basis function: 368
    Number of Cartesian functions: 494
    Spherical Harmonics?: true
    Max angular momentum: 5

  Minimum eigenvalue in the overlap matrix is 1.0342740055E-04.
  Using Symmetric Orthogonalization.

  SCF Guess: Orbitals guess was supplied from a previous computation.

  ==> Iterations <==

                           Total Energy        Delta E     RMS |[F,P]|

   @DF-RHF iter   0:  -919.01648880953769   -9.19016e+02   8.35131e-04 
   @DF-RHF iter   1:  -919.00903637734984    7.45243e-03   9.98911e-05 DIIS
   @DF-RHF iter   2:  -919.00905291183221   -1.65345e-05   5.10543e-05 DIIS
   @DF-RHF iter   3:  -919.00905626772442   -3.35589e-06   6.04327e-06 DIIS
   @DF-RHF iter   4:  -919.00905644360648   -1.75882e-07   1.38917e-06 DIIS
   @DF-RHF iter   5:  -919.00905644889713   -5.29064e-09   3.57905e-07 DIIS
   @DF-RHF iter   6:  -919.00905644911518   -2.18051e-10   2.88182e-08 DIIS
   @DF-RHF iter   7:  -919.00905644911927   -4.09273e-12   5.22503e-09 DIIS
   @DF-RHF iter   8:  -919.00905644911950   -2.27374e-13   8.29937e-10 DIIS
   @DF-RHF iter   9:  -919.00905644911973   -2.27374e-13   1.05399e-10 DIIS
   @DF-RHF iter  10:  -919.00905644911938    3.41061e-13   1.22158e-11 DIIS
  Energy and wave function converged.


  ==> Post-Iterations <==

    Orbital Energies [Eh]
    ---------------------

    Doubly Occupied:                                                      

       1Ag  -104.897998     1B3u -104.897996     2Ag   -10.619898  
       2B3u  -10.619729     3Ag    -8.087180     3B3u   -8.086909  
       1B2u   -8.084199     1B1u   -8.084199     1B1g   -8.084192  
       1B2g   -8.084192     4Ag    -1.218809     4B3u   -1.014778  
       5Ag    -0.598109     2B1u   -0.570099     2B2u   -0.570099  
       2B2g   -0.443793     2B1g   -0.443793  

    Virtual:                                                              

       5B3u    0.023788     6B3u    0.080551     6Ag     0.086411  
       3B2u    0.094108     3B1u    0.094108     3B2g    0.117663  
       3B1g    0.117663     7Ag     0.122400     7B3u    0.213921  
       8Ag     0.224151     1B3g    0.224151     4B1u    0.277889  
       4B2u    0.277889     9Ag     0.310142     8B3u    0.316992  
       1Au     0.316992     9B3u    0.340869     4B2g    0.361934  
       4B1g    0.361934     5B2u    0.459223     5B1u    0.459223  
      10Ag     0.509199     5B2g    0.541173     5B1g    0.541173  
      10B3u    0.544311     6B1u    0.545916     6B2u    0.545916  
      11Ag     0.580547    12Ag     0.585465     2B3g    0.585465  
      11B3u    0.672200     2Au     0.672200    13Ag     0.715032  
       7B1u    0.755247     7B2u    0.755247     6B2g    0.778437  
       6B1g    0.778437    12B3u    0.822262     3B3g    0.826600  
      14Ag     0.826600     7B1g    0.899336     7B2g    0.899336  
      13B3u    1.029017     8B1u    1.042975     8B2u    1.042975  
       3Au     1.080039    14B3u    1.080039    15Ag     1.128849  
       8B2g    1.169598     8B1g    1.169598    15B3u    1.235897  
       9B1u    1.531679     9B2u    1.531679    16Ag     1.562303  
       4B3g    1.562303    17Ag     1.562848    16B3u    1.586785  
       9B2g    1.622384     9B1g    1.622384    17B3u    1.633294  
       4Au     1.633294    10B2u    1.736670    10B1u    1.736670  
      11B2u    1.736986    11B1u    1.736986    18Ag     1.757999  
       5B3g    1.784337    19Ag     1.784337    20Ag     1.809452  
       6B3g    1.809452    18B3u    1.926814     5Au     1.926814  
      10B2g    1.946977    10B1g    1.946977    12B1u    1.986775  
      12B2u    1.986775    13B1u    2.007634    13B2u    2.007634  
      11B2g    2.085807    11B1g    2.085807    21Ag     2.143237  
       7B3g    2.143237    22Ag     2.157171    12B1g    2.174946  
      12B2g    2.174946     6Au     2.209562    19B3u    2.209562  
      20B3u    2.255973    13B2g    2.295178    13B1g    2.295178  
      21B3u    2.443765    14B2u    2.478534    14B1u    2.478534  
       7Au     2.601465    22B3u    2.601465    23Ag     2.616689  
      23B3u    2.794614    24Ag     3.017137    14B2g    3.118841  
      14B1g    3.118841    24B3u    3.387009    25Ag     3.708089  
       8B3g    3.708089    25B3u    3.779247     8Au     3.779247  
      15B1u    3.779803    15B2u    3.779803    26Ag     3.851355  
      15B2g    3.967875    15B1g    3.967875    27Ag     4.429437  
      16B2u    4.518686    16B1u    4.518686    26B3u    4.607494  
      28Ag     4.641800     9B3g    4.641800    17B1u    4.649324  
      17B2u    4.649324    18B2u    4.654957    18B1u    4.654957  
      29Ag     4.659942    10B3g    4.659942    30Ag     4.671791  
      11B3g    4.671791    16B1g    4.699462    16B2g    4.699462  
      27B3u    4.728242     9Au     4.728242    28B3u    4.742144  
      10Au     4.787840    29B3u    4.787840    17B1g    4.823681  
      17B2g    4.823681    18B1g    4.861662    18B2g    4.861662  
      19B1u    4.896042    19B2u    4.896042    31Ag     5.047577  
      11Au     5.061276    30B3u    5.061276    19B2g    5.374299  
      19B1g    5.374299    31B3u    5.915665    20B2u    6.079609  
      20B1u    6.079609    20B1g    6.690747    20B2g    6.690747  
      32Ag     7.267941    32B3u    7.290657    33Ag    11.385369  
      12B3g   11.385369    21B1u   11.411631    21B2u   11.411631  
      33B3u   11.442537    12Au    11.442537    34Ag    11.568292  
      21B2g   11.654824    21B1g   11.654824    34B3u   12.113732  
      35Ag    23.267250    35B3u   26.173258  

    Final Occupation by Irrep:
             Ag   B1g   B2g   B3g    Au   B1u   B2u   B3u 
    DOCC [     5,    2,    2,    0,    0,    2,    2,    4 ]

  @DF-RHF Final Energy:  -919.00905644911938

   => Energetics <=

    Nuclear Repulsion Energy =             76.9206803074559247
    One-Electron Energy =               -1423.0475264450003579
    Two-Electron Energy =                 427.1177896884249776
    Total Energy =                       -919.0090564491193845

Computation Completed


Properties will be evaluated at   0.000000,   0.000000,   0.000000 [a0]

Properties computed using the SCF density matrix

  Nuclear Dipole Moment: [e a0]
     X:     0.0000      Y:     0.0000      Z:     0.0000

  Electronic Dipole Moment: [e a0]
     X:     0.0000      Y:     0.0000      Z:     0.0000

  Dipole Moment: [e a0]
     X:     0.0000      Y:     0.0000      Z:     0.0000     Total:     0.0000

  Dipole Moment: [D]
     X:     0.0000      Y:     0.0000      Z:     0.0000     Total:     0.0000


*** tstop() called on bp1-compute00148.data.bp.acrc.priv at Mon Apr 19 16:10:28 2021
Module time:
	user time   =      18.43 seconds =       0.31 minutes
	system time =       0.74 seconds =       0.01 minutes
	total time  =          1 seconds =       0.02 minutes
Total time:
	user time   =     124.76 seconds =       2.08 minutes
	system time =       6.65 seconds =       0.11 minutes
	total time  =         10 seconds =       0.17 minutes

*** tstart() called on bp1-compute00148.data.bp.acrc.priv
*** at Mon Apr 19 16:10:28 2021


  //>>>>>>>>>>>>>>>>>>>>>>>>>>>>>>>>>>>//
  //               DFMP2               //
  //<<<<<<<<<<<<<<<<<<<<<<<<<<<<<<<<<<<//

   => Loading Basis Set <=

    Name: (AUG-CC-PV(Q+D)Z AUX)
    Role: RIFIT
    Keyword: DF_BASIS_MP2
    atoms 1-2 entry CL         line   914 file /work/zw18965/.conda/envs/p4env/share/psi4/basis/aug-cc-pvqz-ri.gbs 

	 --------------------------------------------------------
	                          DF-MP2                         
	      2nd-Order Density-Fitted Moller-Plesset Theory     
	              RMP2 Wavefunction,  24 Threads             
	                                                         
	        Rob Parrish, Justin Turney, Andy Simmonett,      
	           Ed Hohenstein, and C. David Sherrill          
	 --------------------------------------------------------

   => Auxiliary Basis Set <=

  Basis Set: (AUG-CC-PV(Q+D)Z AUX)
    Blend: AUG-CC-PVQZ-RI
    Number of shells: 88
    Number of basis function: 388
    Number of Cartesian functions: 536
    Spherical Harmonics?: true
    Max angular momentum: 5

	 --------------------------------------------------------
	                 NBF =   178, NAUX =   388
	 --------------------------------------------------------
	   CLASS    FOCC     OCC    AOCC    AVIR     VIR    FVIR
	   PAIRS       0      17      17     161     161       0
	 --------------------------------------------------------

  DFHelper Memory: AOs need 0.101 GiB; user supplied 100.583 GiB. Using in-core AOs.


         ------------------------------------------------------------
                                     CPHF                           
                                  Rob Parrish                       
         ------------------------------------------------------------

  ==> Geometry <==

    Molecular point group: d2h
    Full point group: D_inf_h

    Geometry (in Angstrom), charge = 0, multiplicity = 1:

       Center              X                  Y                   Z               Mass       
    ------------   -----------------  -----------------  -----------------  -----------------
         CL          -0.994090362126    -0.000000000000     0.000000000000    34.968852682000
         CL           0.994090362126     0.000000000000     0.000000000000    34.968852682000

  Nuclear repulsion =   76.920680307455925
  Reference energy  = -919.009056449119385

  ==> Basis Set <==

  Basis Set: AUG-CC-PV(Q+D)Z
    Blend: AUG-CC-PV(Q+D)Z
    Number of shells: 46
    Number of basis function: 178
    Number of Cartesian functions: 230
    Spherical Harmonics?: true
    Max angular momentum: 4

  ==> CGRSolver (by Rob Parrish) <==

   Number of roots    =         1
   Preconditioning    =    JACOBI
   Convergence cutoff =     1E-06
   Maximum iterations =       100

  ==> CPHFRHamiltonian (by Rob Parrish) <== 

  ==> MemDFJK: Density-Fitted J/K Matrices <==

    J tasked:                   Yes
    K tasked:                   Yes
    wK tasked:                   No
    OpenMP threads:              24
    Memory [MiB]:            102996
    Algorithm:                 Core
    Schwarz Cutoff:           1E-12
    Mask sparsity (%):       0.1704
    Fitting Condition:        1E-10

   => Auxiliary Basis Set <=

  Basis Set: (AUG-CC-PV(Q+D)Z AUX)
    Blend: AUG-CC-PVQZ-JKFIT
    Number of shells: 92
    Number of basis function: 368
    Number of Cartesian functions: 494
    Spherical Harmonics?: true
    Max angular momentum: 5

  ==> CPHF Iterations <==

  => Iterations <=

             Iter  Converged  Remaining    Residual
  CGR           1          0          1   6.308E-02
  CGR           2          0          1   1.208E-02
  CGR           3          0          1   3.139E-03
  CGR           4          0          1   3.621E-04
  CGR           5          0          1   1.144E-04
  CGR           6          0          1   1.644E-05
  CGR           7          0          1   1.528E-06
  CGR           8          1          0   1.485E-07

    CGRSolver converged.

Problem determining natural orbital and density matrix symmetries.
Future calls to oeprop using this density will not work. Try disabling symmetry.

  ==> DFCorrGrad: Density-Fitted Correlated Gradients <==

    OpenMP threads:             24
    Integrals threads:          24
    Memory [GiB]:          100.583
    Schwarz Cutoff:          0E+00
    Fitting Condition:       1E-10

   => Auxiliary Basis Set <=

  Basis Set: (AUG-CC-PV(Q+D)Z AUX)
    Blend: AUG-CC-PVQZ-JKFIT
    Number of shells: 92
    Number of basis function: 368
    Number of Cartesian functions: 494
    Spherical Harmonics?: true
    Max angular momentum: 5

	-----------------------------------------------------------
	 ==================> DF-MP2 Energies <==================== 
	-----------------------------------------------------------
	 Reference Energy          =    -919.0090564491193845 [Eh]
	 Singles Energy            =      -0.0000000000000000 [Eh]
	 Same-Spin Energy          =      -0.1852138456295478 [Eh]
	 Opposite-Spin Energy      =      -0.5092655501725367 [Eh]
	 Correlation Energy        =      -0.6944793958020845 [Eh]
	 Total Energy              =    -919.7035358449214755 [Eh]
	-----------------------------------------------------------
	 ================> DF-SCS-MP2 Energies <================== 
	-----------------------------------------------------------
	 SCS Same-Spin Scale       =       0.3333333333333333 [-]
	 SCS Opposite-Spin Scale   =       1.2000000000000000 [-]
	 SCS Same-Spin Energy      =      -0.0617379485431826 [Eh]
	 SCS Opposite-Spin Energy  =      -0.6111186602070441 [Eh]
	 SCS Correlation Energy    =      -0.6728566087502267 [Eh]
	 SCS Total Energy          =    -919.6819130578695649 [Eh]
	-----------------------------------------------------------


  -Total Gradient:
     Atom            X                  Y                   Z
    ------   -----------------  -----------------  -----------------
       1       -0.005621218608    -0.000000000000     0.000000000000
       2        0.005621218608     0.000000000000     0.000000000000


*** tstop() called on bp1-compute00148.data.bp.acrc.priv at Mon Apr 19 16:10:36 2021
Module time:
	user time   =      77.14 seconds =       1.29 minutes
	system time =       4.21 seconds =       0.07 minutes
	total time  =          8 seconds =       0.13 minutes
Total time:
	user time   =     201.91 seconds =       3.37 minutes
	system time =      10.86 seconds =       0.18 minutes
	total time  =         18 seconds =       0.30 minutes

			-----------------------------------------
			 OPTKING 2.0: for geometry optimizations 
			  - R.A. King,  Bethel University        
			-----------------------------------------

	Previous internal coordinate definitions found.
	---Fragment 1 Geometry and Gradient---
	 CL         -1.8785585284       -0.0000000000        0.0000000000
	 CL          1.8785585284        0.0000000000        0.0000000000
	            -0.0056212186       -0.0000000000        0.0000000000
	             0.0056212186        0.0000000000        0.0000000000

	---Fragment 1 Intrafragment Coordinates---
	 - Coordinate -           - BOHR/RAD -       - ANG/DEG -
	 R(1,2)           =         3.757117	       1.988181

	Current energy   :      -919.7035358449

	Energy change for the previous step:
		Projected    :         0.0002963908
		Actual       :        -0.0004228326

	Performing BFGS update.
	Previous computed or guess Hessian on step 1.
	Steps to be used in Hessian update: 1
	Taking RFO optimization step.
	Going to follow RFO solution 1.
	Using RFO vector 1.
	Norm of target step-size    0.02781
	Projected energy change by RFO approximation:         0.0002301870

	Back-transformation to cartesian coordinates...
	Successfully converged to displaced geometry.

	--- Internal Coordinate Step in ANG or DEG, aJ/ANG or AJ/DEG ---
	 ---------------------------------------------------------------------------
	   Coordinate                Previous        Force       Change         New 
	   ----------                --------       ------       ------       ------
	    1 R(1,2)          =      1.988181    -0.046312    -0.014716     1.973464
	 ---------------------------------------------------------------------------
	Successfully symmetrized geometry.

  ==> Convergence Check <==

  Measures of convergence in internal coordinates in au.
  Criteria marked as inactive (o), active & met (*), and active & unmet ( ).
  ---------------------------------------------------------------------------------------------
   Step     Total Energy     Delta E     MAX Force     RMS Force      MAX Disp      RMS Disp   
  ---------------------------------------------------------------------------------------------
    Convergence Criteria    1.00e-06 *    3.00e-04 *             o    1.20e-03 *             o
  ---------------------------------------------------------------------------------------------
      2    -919.70353584   -4.23e-04      5.62e-03      5.62e-03 o    2.78e-02      2.78e-02 o  ~
  ---------------------------------------------------------------------------------------------

	Writing optimization data to binary file.
	Structure for next step:
	Cartesian Geometry (in Angstrom)
	   CL    -0.9867322317  -0.0000000000   0.0000000000
	   CL     0.9867322317   0.0000000000   0.0000000000
			--------------------------
			 OPTKING Finished Execution 
			--------------------------

    Structure for next step:
    Molecular point group: d2h
    Full point group: D_inf_h

    Geometry (in Angstrom), charge = 0, multiplicity = 1:

    CL          -0.986732235615    -0.000000000000     0.000000000000
    CL           0.986732235615     0.000000000000     0.000000000000

gradient() will perform analytic gradient computation.
    SCF Algorithm Type (re)set to DF.

*** tstart() called on bp1-compute00148.data.bp.acrc.priv
*** at Mon Apr 19 16:10:36 2021

   => Loading Basis Set <=

    Name: AUG-CC-PV(Q+D)Z
    Role: ORBITAL
    Keyword: BASIS
    atoms 1-2 entry CL         line  1246 file /work/zw18965/.conda/envs/p4env/share/psi4/basis/aug-cc-pv_qpd_z.gbs 


         ---------------------------------------------------------
                                   SCF
               by Justin Turney, Rob Parrish, Andy Simmonett
                          and Daniel G. A. Smith
                              RHF Reference
                       24 Threads, 137329 MiB Core
         ---------------------------------------------------------

  ==> Geometry <==

    Molecular point group: d2h
    Full point group: D_inf_h

    Geometry (in Angstrom), charge = 0, multiplicity = 1:

       Center              X                  Y                   Z               Mass       
    ------------   -----------------  -----------------  -----------------  -----------------
         CL          -0.986732235615    -0.000000000000     0.000000000000    34.968852682000
         CL           0.986732235615     0.000000000000     0.000000000000    34.968852682000

  Running in d2h symmetry.

  Rotational constants: A = ************  B =      0.24756  C =      0.24756 [cm^-1]
  Rotational constants: A = ************  B =   7421.76480  C =   7421.76480 [MHz]
  Nuclear repulsion =   77.494282827569322

  Charge       = 0
  Multiplicity = 1
  Electrons    = 34
  Nalpha       = 17
  Nbeta        = 17

  ==> Algorithm <==

  SCF Algorithm Type is DF.
  DIIS enabled.
  MOM disabled.
  Fractional occupation disabled.
  Guess Type is READ.
  Energy threshold   = 1.00e-10
  Density threshold  = 1.00e-10
  Integral threshold = 0.00e+00

  ==> Primary Basis <==

  Basis Set: AUG-CC-PV(Q+D)Z
    Blend: AUG-CC-PV(Q+D)Z
    Number of shells: 46
    Number of basis function: 178
    Number of Cartesian functions: 230
    Spherical Harmonics?: true
    Max angular momentum: 4

   => Loading Basis Set <=

    Name: (AUG-CC-PV(Q+D)Z AUX)
    Role: JKFIT
    Keyword: DF_BASIS_SCF
    atoms 1-2 entry CL         line   904 file /work/zw18965/.conda/envs/p4env/share/psi4/basis/aug-cc-pvqz-jkfit.gbs 

   => Loading Basis Set <=

    Name: AUG-CC-PV(Q+D)Z
    Role: ORBITAL
    Keyword: BASIS
    atoms 1-2 entry CL         line  1246 file /work/zw18965/.conda/envs/p4env/share/psi4/basis/aug-cc-pv_qpd_z.gbs 

  Reading orbitals from file 180, no projection.

  ==> Pre-Iterations <==

   -------------------------------------------------------
    Irrep   Nso     Nmo     Nalpha   Nbeta   Ndocc  Nsocc
   -------------------------------------------------------
     Ag        35      35       0       0       0       0
     B1g       21      21       0       0       0       0
     B2g       21      21       0       0       0       0
     B3g       12      12       0       0       0       0
     Au        12      12       0       0       0       0
     B1u       21      21       0       0       0       0
     B2u       21      21       0       0       0       0
     B3u       35      35       0       0       0       0
   -------------------------------------------------------
    Total     178     178      17      17      17       0
   -------------------------------------------------------

  ==> Integral Setup <==

  DFHelper Memory: AOs need 0.101 GiB; user supplied 100.583 GiB. Using in-core AOs.

  ==> MemDFJK: Density-Fitted J/K Matrices <==

    J tasked:                   Yes
    K tasked:                   Yes
    wK tasked:                   No
    OpenMP threads:              24
    Memory [MiB]:            102996
    Algorithm:                 Core
    Schwarz Cutoff:           1E-12
    Mask sparsity (%):       0.1641
    Fitting Condition:        1E-10

   => Auxiliary Basis Set <=

  Basis Set: (AUG-CC-PV(Q+D)Z AUX)
    Blend: AUG-CC-PVQZ-JKFIT
    Number of shells: 92
    Number of basis function: 368
    Number of Cartesian functions: 494
    Spherical Harmonics?: true
    Max angular momentum: 5

  Minimum eigenvalue in the overlap matrix is 9.9967152699E-05.
  Using Symmetric Orthogonalization.

  SCF Guess: Orbitals guess was supplied from a previous computation.

  ==> Iterations <==

                           Total Energy        Delta E     RMS |[F,P]|

   @DF-RHF iter   0:  -919.01399735859229   -9.19014e+02   5.68529e-04 
   @DF-RHF iter   1:  -919.00914627247766    4.85109e-03   6.56444e-05 DIIS
   @DF-RHF iter   2:  -919.00915345478052   -7.18230e-06   3.33747e-05 DIIS
   @DF-RHF iter   3:  -919.00915487953603   -1.42476e-06   4.03364e-06 DIIS
   @DF-RHF iter   4:  -919.00915495674633   -7.72103e-08   9.16844e-07 DIIS
   @DF-RHF iter   5:  -919.00915495909180   -2.34547e-09   2.46842e-07 DIIS
   @DF-RHF iter   6:  -919.00915495919628   -1.04478e-10   1.93412e-08 DIIS
   @DF-RHF iter   7:  -919.00915495919855   -2.27374e-12   3.54505e-09 DIIS
   @DF-RHF iter   8:  -919.00915495919878   -2.27374e-13   5.57123e-10 DIIS
   @DF-RHF iter   9:  -919.00915495919901   -2.27374e-13   6.73420e-11 DIIS
  Energy and wave function converged.


  ==> Post-Iterations <==

    Orbital Energies [Eh]
    ---------------------

    Doubly Occupied:                                                      

       1Ag  -104.897191     1B3u -104.897189     2Ag   -10.619345  
       2B3u  -10.619168     3Ag    -8.086668     3B3u   -8.086374  
       1B2u   -8.083648     1B1u   -8.083648     1B1g   -8.083640  
       1B2g   -8.083640     4Ag    -1.223297     4B3u   -1.013054  
       5Ag    -0.600789     2B1u   -0.572153     2B2u   -0.572153  
       2B2g   -0.442195     2B1g   -0.442195  

    Virtual:                                                              

       5B3u    0.026816     6B3u    0.082506     6Ag     0.086418  
       3B1u    0.094004     3B2u    0.094004     3B1g    0.117647  
       3B2g    0.117647     7Ag     0.122209     7B3u    0.214206  
       1B3g    0.223962     8Ag     0.223962     4B2u    0.278420  
       4B1u    0.278420     9Ag     0.309399     1Au     0.317425  
       8B3u    0.317425     9B3u    0.342300     4B2g    0.361828  
       4B1g    0.361828     5B1u    0.458685     5B2u    0.458685  
      10Ag     0.507913     5B2g    0.540934     5B1g    0.540934  
      10B3u    0.543535     6B1u    0.545539     6B2u    0.545539  
      11Ag     0.579663    12Ag     0.584364     2B3g    0.584364  
       2Au     0.672981    11B3u    0.672981    13Ag     0.718145  
       7B1u    0.754788     7B2u    0.754788     6B2g    0.781262  
       6B1g    0.781262    12B3u    0.826733    14Ag     0.828590  
       3B3g    0.828590     7B2g    0.900436     7B1g    0.900436  
      13B3u    1.031856     8B1u    1.045087     8B2u    1.045087  
       3Au     1.081777    14B3u    1.081777    15Ag     1.127913  
       8B2g    1.170119     8B1g    1.170119    15B3u    1.236504  
       9B2u    1.530028     9B1u    1.530028    16Ag     1.560649  
      17Ag     1.561906     4B3g    1.561906    16B3u    1.588888  
       9B2g    1.617455     9B1g    1.617455    17B3u    1.634512  
       4Au     1.634512    10B2u    1.737112    10B1u    1.737112  
      11B1u    1.737925    11B2u    1.737925    18Ag     1.758992  
       5B3g    1.782711    19Ag     1.782711    20Ag     1.811749  
       6B3g    1.811749     5Au     1.928609    18B3u    1.928609  
      10B1g    1.955114    10B2g    1.955114    12B1u    1.993339  
      12B2u    1.993339    13B2u    2.007016    13B1u    2.007016  
      11B1g    2.087452    11B2g    2.087452    21Ag     2.147051  
       7B3g    2.147051    22Ag     2.160632    12B2g    2.179596  
      12B1g    2.179596    19B3u    2.211485     6Au     2.211485  
      20B3u    2.259598    13B1g    2.297814    13B2g    2.297814  
      21B3u    2.453444    14B1u    2.484431    14B2u    2.484431  
       7Au     2.611234    22B3u    2.611234    23Ag     2.636970  
      23B3u    2.785428    24Ag     3.019944    14B1g    3.123438  
      14B2g    3.123438    24B3u    3.390132     8B3g    3.707640  
      25Ag     3.707640     8Au     3.780257    25B3u    3.780257  
      15B1u    3.781291    15B2u    3.781291    26Ag     3.844862  
      15B1g    3.976551    15B2g    3.976551    27Ag     4.421863  
      16B2u    4.503538    16B1u    4.503538     9B3g    4.630949  
      28Ag     4.630949    26B3u    4.631788    17B2u    4.648750  
      17B1u    4.648750    18B2u    4.653584    18B1u    4.653584  
      29Ag     4.663155    10B3g    4.663155    11B3g    4.671250  
      30Ag     4.671250    16B1g    4.699937    16B2g    4.699937  
       9Au     4.728814    27B3u    4.728814    28B3u    4.746647  
      29B3u    4.790972    10Au     4.790972    17B1g    4.827375  
      17B2g    4.827375    18B1g    4.865902    18B2g    4.865902  
      19B1u    4.907018    19B2u    4.907018    31Ag     5.057486  
      11Au     5.073901    30B3u    5.073901    19B1g    5.392076  
      19B2g    5.392076    31B3u    5.951360    20B1u    6.081618  
      20B2u    6.081618    20B2g    6.710393    20B1g    6.710393  
      32B3u    7.277807    32Ag     7.294762    12B3g   11.385398  
      33Ag    11.385398    21B1u   11.414121    21B2u   11.414121  
      12Au    11.444103    33B3u   11.444103    34Ag    11.579217  
      21B1g   11.662995    21B2g   11.662995    34B3u   12.125368  
      35Ag    23.271198    35B3u   26.304999  

    Final Occupation by Irrep:
             Ag   B1g   B2g   B3g    Au   B1u   B2u   B3u 
    DOCC [     5,    2,    2,    0,    0,    2,    2,    4 ]

  @DF-RHF Final Energy:  -919.00915495919901

   => Energetics <=

    Nuclear Repulsion Energy =             77.4942828275693216
    One-Electron Energy =               -1424.1941882666701531
    Two-Electron Energy =                 427.6907504799019080
    Total Energy =                       -919.0091549591988951

Computation Completed


Properties will be evaluated at   0.000000,   0.000000,   0.000000 [a0]

Properties computed using the SCF density matrix

  Nuclear Dipole Moment: [e a0]
     X:     0.0000      Y:     0.0000      Z:     0.0000

  Electronic Dipole Moment: [e a0]
     X:     0.0000      Y:     0.0000      Z:     0.0000

  Dipole Moment: [e a0]
     X:     0.0000      Y:     0.0000      Z:     0.0000     Total:     0.0000

  Dipole Moment: [D]
     X:     0.0000      Y:     0.0000      Z:     0.0000     Total:     0.0000


*** tstop() called on bp1-compute00148.data.bp.acrc.priv at Mon Apr 19 16:10:37 2021
Module time:
	user time   =      16.94 seconds =       0.28 minutes
	system time =       0.64 seconds =       0.01 minutes
	total time  =          1 seconds =       0.02 minutes
Total time:
	user time   =     219.43 seconds =       3.66 minutes
	system time =      11.52 seconds =       0.19 minutes
	total time  =         19 seconds =       0.32 minutes

*** tstart() called on bp1-compute00148.data.bp.acrc.priv
*** at Mon Apr 19 16:10:37 2021


  //>>>>>>>>>>>>>>>>>>>>>>>>>>>>>>>>>>>//
  //               DFMP2               //
  //<<<<<<<<<<<<<<<<<<<<<<<<<<<<<<<<<<<//

   => Loading Basis Set <=

    Name: (AUG-CC-PV(Q+D)Z AUX)
    Role: RIFIT
    Keyword: DF_BASIS_MP2
    atoms 1-2 entry CL         line   914 file /work/zw18965/.conda/envs/p4env/share/psi4/basis/aug-cc-pvqz-ri.gbs 

	 --------------------------------------------------------
	                          DF-MP2                         
	      2nd-Order Density-Fitted Moller-Plesset Theory     
	              RMP2 Wavefunction,  24 Threads             
	                                                         
	        Rob Parrish, Justin Turney, Andy Simmonett,      
	           Ed Hohenstein, and C. David Sherrill          
	 --------------------------------------------------------

   => Auxiliary Basis Set <=

  Basis Set: (AUG-CC-PV(Q+D)Z AUX)
    Blend: AUG-CC-PVQZ-RI
    Number of shells: 88
    Number of basis function: 388
    Number of Cartesian functions: 536
    Spherical Harmonics?: true
    Max angular momentum: 5

	 --------------------------------------------------------
	                 NBF =   178, NAUX =   388
	 --------------------------------------------------------
	   CLASS    FOCC     OCC    AOCC    AVIR     VIR    FVIR
	   PAIRS       0      17      17     161     161       0
	 --------------------------------------------------------

  DFHelper Memory: AOs need 0.101 GiB; user supplied 100.583 GiB. Using in-core AOs.


         ------------------------------------------------------------
                                     CPHF                           
                                  Rob Parrish                       
         ------------------------------------------------------------

  ==> Geometry <==

    Molecular point group: d2h
    Full point group: D_inf_h

    Geometry (in Angstrom), charge = 0, multiplicity = 1:

       Center              X                  Y                   Z               Mass       
    ------------   -----------------  -----------------  -----------------  -----------------
         CL          -0.986732235615    -0.000000000000     0.000000000000    34.968852682000
         CL           0.986732235615     0.000000000000     0.000000000000    34.968852682000

  Nuclear repulsion =   77.494282827569322
  Reference energy  = -919.009154959199009

  ==> Basis Set <==

  Basis Set: AUG-CC-PV(Q+D)Z
    Blend: AUG-CC-PV(Q+D)Z
    Number of shells: 46
    Number of basis function: 178
    Number of Cartesian functions: 230
    Spherical Harmonics?: true
    Max angular momentum: 4

  ==> CGRSolver (by Rob Parrish) <==

   Number of roots    =         1
   Preconditioning    =    JACOBI
   Convergence cutoff =     1E-06
   Maximum iterations =       100

  ==> CPHFRHamiltonian (by Rob Parrish) <== 

  ==> MemDFJK: Density-Fitted J/K Matrices <==

    J tasked:                   Yes
    K tasked:                   Yes
    wK tasked:                   No
    OpenMP threads:              24
    Memory [MiB]:            102996
    Algorithm:                 Core
    Schwarz Cutoff:           1E-12
    Mask sparsity (%):       0.1641
    Fitting Condition:        1E-10

   => Auxiliary Basis Set <=

  Basis Set: (AUG-CC-PV(Q+D)Z AUX)
    Blend: AUG-CC-PVQZ-JKFIT
    Number of shells: 92
    Number of basis function: 368
    Number of Cartesian functions: 494
    Spherical Harmonics?: true
    Max angular momentum: 5

  ==> CPHF Iterations <==

  => Iterations <=

             Iter  Converged  Remaining    Residual
  CGR           1          0          1   6.362E-02
  CGR           2          0          1   1.215E-02
  CGR           3          0          1   3.156E-03
  CGR           4          0          1   3.460E-04
  CGR           5          0          1   1.110E-04
  CGR           6          0          1   1.617E-05
  CGR           7          0          1   1.488E-06
  CGR           8          1          0   1.456E-07

    CGRSolver converged.

Problem determining natural orbital and density matrix symmetries.
Future calls to oeprop using this density will not work. Try disabling symmetry.

  ==> DFCorrGrad: Density-Fitted Correlated Gradients <==

    OpenMP threads:             24
    Integrals threads:          24
    Memory [GiB]:          100.583
    Schwarz Cutoff:          0E+00
    Fitting Condition:       1E-10

   => Auxiliary Basis Set <=

  Basis Set: (AUG-CC-PV(Q+D)Z AUX)
    Blend: AUG-CC-PVQZ-JKFIT
    Number of shells: 92
    Number of basis function: 368
    Number of Cartesian functions: 494
    Spherical Harmonics?: true
    Max angular momentum: 5

	-----------------------------------------------------------
	 ==================> DF-MP2 Energies <==================== 
	-----------------------------------------------------------
	 Reference Energy          =    -919.0091549591990088 [Eh]
	 Singles Energy            =      -0.0000000000000000 [Eh]
	 Same-Spin Energy          =      -0.1853667470291552 [Eh]
	 Opposite-Spin Energy      =      -0.5090860258553231 [Eh]
	 Correlation Energy        =      -0.6944527728844784 [Eh]
	 Total Energy              =    -919.7036077320834693 [Eh]
	-----------------------------------------------------------
	 ================> DF-SCS-MP2 Energies <================== 
	-----------------------------------------------------------
	 SCS Same-Spin Scale       =       0.3333333333333333 [-]
	 SCS Opposite-Spin Scale   =       1.2000000000000000 [-]
	 SCS Same-Spin Energy      =      -0.0617889156763851 [Eh]
	 SCS Opposite-Spin Energy  =      -0.6109032310263878 [Eh]
	 SCS Correlation Energy    =      -0.6726921467027729 [Eh]
	 SCS Total Energy          =    -919.6818471059017384 [Eh]
	-----------------------------------------------------------


  -Total Gradient:
     Atom            X                  Y                   Z
    ------   -----------------  -----------------  -----------------
       1        0.000523861616     0.000000000000     0.000000000000
       2       -0.000523861616    -0.000000000000     0.000000000000


*** tstop() called on bp1-compute00148.data.bp.acrc.priv at Mon Apr 19 16:10:44 2021
Module time:
	user time   =      76.32 seconds =       1.27 minutes
	system time =       4.21 seconds =       0.07 minutes
	total time  =          7 seconds =       0.12 minutes
Total time:
	user time   =     295.76 seconds =       4.93 minutes
	system time =      15.73 seconds =       0.26 minutes
	total time  =         26 seconds =       0.43 minutes

			-----------------------------------------
			 OPTKING 2.0: for geometry optimizations 
			  - R.A. King,  Bethel University        
			-----------------------------------------

	Previous internal coordinate definitions found.
	---Fragment 1 Geometry and Gradient---
	 CL         -1.8646536845       -0.0000000000        0.0000000000
	 CL          1.8646536845        0.0000000000        0.0000000000
	             0.0005238616        0.0000000000        0.0000000000
	            -0.0005238616       -0.0000000000        0.0000000000

	---Fragment 1 Intrafragment Coordinates---
	 - Coordinate -           - BOHR/RAD -       - ANG/DEG -
	 R(1,2)           =         3.729307	       1.973464

	Current energy   :      -919.7036077321

	Energy change for the previous step:
		Projected    :         0.0002301870
		Actual       :        -0.0000718872

	Performing BFGS update.
	Previous computed or guess Hessian on step 1.
	Steps to be used in Hessian update: 2 1
	Taking RFO optimization step.
	Going to follow RFO solution 1.
	Using RFO vector 1.
	Norm of target step-size    0.00250
	Projected energy change by RFO approximation:         0.0000018163

	Back-transformation to cartesian coordinates...
	Successfully converged to displaced geometry.

	--- Internal Coordinate Step in ANG or DEG, aJ/ANG or AJ/DEG ---
	 ---------------------------------------------------------------------------
	   Coordinate                Previous        Force       Change         New 
	   ----------                --------       ------       ------       ------
	    1 R(1,2)          =      1.973464     0.004316     0.001323     1.974788
	 ---------------------------------------------------------------------------
	Successfully symmetrized geometry.

  ==> Convergence Check <==

  Measures of convergence in internal coordinates in au.
  Criteria marked as inactive (o), active & met (*), and active & unmet ( ).
  ---------------------------------------------------------------------------------------------
   Step     Total Energy     Delta E     MAX Force     RMS Force      MAX Disp      RMS Disp   
  ---------------------------------------------------------------------------------------------
    Convergence Criteria    1.00e-06 *    3.00e-04 *             o    1.20e-03 *             o
  ---------------------------------------------------------------------------------------------
      3    -919.70360773   -7.19e-05      5.24e-04      5.24e-04 o    2.50e-03      2.50e-03 o  ~
  ---------------------------------------------------------------------------------------------

	Writing optimization data to binary file.
	Structure for next step:
	Cartesian Geometry (in Angstrom)
	   CL    -0.9873938355  -0.0000000000   0.0000000000
	   CL     0.9873938355   0.0000000000   0.0000000000
			--------------------------
			 OPTKING Finished Execution 
			--------------------------

    Structure for next step:
    Molecular point group: d2h
    Full point group: D_inf_h

    Geometry (in Angstrom), charge = 0, multiplicity = 1:

    CL          -0.987393839359    -0.000000000000     0.000000000000
    CL           0.987393839359     0.000000000000     0.000000000000

gradient() will perform analytic gradient computation.
    SCF Algorithm Type (re)set to DF.

*** tstart() called on bp1-compute00148.data.bp.acrc.priv
*** at Mon Apr 19 16:10:44 2021

   => Loading Basis Set <=

    Name: AUG-CC-PV(Q+D)Z
    Role: ORBITAL
    Keyword: BASIS
    atoms 1-2 entry CL         line  1246 file /work/zw18965/.conda/envs/p4env/share/psi4/basis/aug-cc-pv_qpd_z.gbs 


         ---------------------------------------------------------
                                   SCF
               by Justin Turney, Rob Parrish, Andy Simmonett
                          and Daniel G. A. Smith
                              RHF Reference
                       24 Threads, 137329 MiB Core
         ---------------------------------------------------------

  ==> Geometry <==

    Molecular point group: d2h
    Full point group: D_inf_h

    Geometry (in Angstrom), charge = 0, multiplicity = 1:

       Center              X                  Y                   Z               Mass       
    ------------   -----------------  -----------------  -----------------  -----------------
         CL          -0.987393839359    -0.000000000000     0.000000000000    34.968852682000
         CL           0.987393839359     0.000000000000     0.000000000000    34.968852682000

  Running in d2h symmetry.

  Rotational constants: A = ************  B =      0.24723  C =      0.24723 [cm^-1]
  Rotational constants: A = ************  B =   7411.82222  C =   7411.82222 [MHz]
  Nuclear repulsion =   77.442357743947341

  Charge       = 0
  Multiplicity = 1
  Electrons    = 34
  Nalpha       = 17
  Nbeta        = 17

  ==> Algorithm <==

  SCF Algorithm Type is DF.
  DIIS enabled.
  MOM disabled.
  Fractional occupation disabled.
  Guess Type is READ.
  Energy threshold   = 1.00e-10
  Density threshold  = 1.00e-10
  Integral threshold = 0.00e+00

  ==> Primary Basis <==

  Basis Set: AUG-CC-PV(Q+D)Z
    Blend: AUG-CC-PV(Q+D)Z
    Number of shells: 46
    Number of basis function: 178
    Number of Cartesian functions: 230
    Spherical Harmonics?: true
    Max angular momentum: 4

   => Loading Basis Set <=

    Name: (AUG-CC-PV(Q+D)Z AUX)
    Role: JKFIT
    Keyword: DF_BASIS_SCF
    atoms 1-2 entry CL         line   904 file /work/zw18965/.conda/envs/p4env/share/psi4/basis/aug-cc-pvqz-jkfit.gbs 

   => Loading Basis Set <=

    Name: AUG-CC-PV(Q+D)Z
    Role: ORBITAL
    Keyword: BASIS
    atoms 1-2 entry CL         line  1246 file /work/zw18965/.conda/envs/p4env/share/psi4/basis/aug-cc-pv_qpd_z.gbs 

  Reading orbitals from file 180, no projection.

  ==> Pre-Iterations <==

   -------------------------------------------------------
    Irrep   Nso     Nmo     Nalpha   Nbeta   Ndocc  Nsocc
   -------------------------------------------------------
     Ag        35      35       0       0       0       0
     B1g       21      21       0       0       0       0
     B2g       21      21       0       0       0       0
     B3g       12      12       0       0       0       0
     Au        12      12       0       0       0       0
     B1u       21      21       0       0       0       0
     B2u       21      21       0       0       0       0
     B3u       35      35       0       0       0       0
   -------------------------------------------------------
    Total     178     178      17      17      17       0
   -------------------------------------------------------

  ==> Integral Setup <==

  DFHelper Memory: AOs need 0.101 GiB; user supplied 100.583 GiB. Using in-core AOs.

  ==> MemDFJK: Density-Fitted J/K Matrices <==

    J tasked:                   Yes
    K tasked:                   Yes
    wK tasked:                   No
    OpenMP threads:              24
    Memory [MiB]:            102996
    Algorithm:                 Core
    Schwarz Cutoff:           1E-12
    Mask sparsity (%):       0.1641
    Fitting Condition:        1E-10

   => Auxiliary Basis Set <=

  Basis Set: (AUG-CC-PV(Q+D)Z AUX)
    Blend: AUG-CC-PVQZ-JKFIT
    Number of shells: 92
    Number of basis function: 368
    Number of Cartesian functions: 494
    Spherical Harmonics?: true
    Max angular momentum: 5

  Minimum eigenvalue in the overlap matrix is 1.0027436467E-04.
  Using Symmetric Orthogonalization.

  SCF Guess: Orbitals guess was supplied from a previous computation.

  ==> Iterations <==

                           Total Energy        Delta E     RMS |[F,P]|

   @DF-RHF iter   0:  -919.00873262791561   -9.19009e+02   5.17011e-05 
   @DF-RHF iter   1:  -919.00915379223534   -4.21164e-04   5.90005e-06 DIIS
   @DF-RHF iter   2:  -919.00915385038331   -5.81480e-08   2.98929e-06 DIIS
   @DF-RHF iter   3:  -919.00915386179702   -1.14137e-08   3.64356e-07 DIIS
   @DF-RHF iter   4:  -919.00915386242502   -6.28006e-10   8.27695e-08 DIIS
   @DF-RHF iter   5:  -919.00915386244424   -1.92131e-11   2.26276e-08 DIIS
   @DF-RHF iter   6:  -919.00915386244492   -6.82121e-13   1.75402e-09 DIIS
   @DF-RHF iter   7:  -919.00915386244503   -1.13687e-13   3.20170e-10 DIIS
   @DF-RHF iter   8:  -919.00915386244480    2.27374e-13   5.02474e-11 DIIS
  Energy and wave function converged.


  ==> Post-Iterations <==

    Orbital Energies [Eh]
    ---------------------

    Doubly Occupied:                                                      

       1Ag  -104.897264     1B3u -104.897262     2Ag   -10.619395  
       2B3u  -10.619218     3Ag    -8.086714     3B3u   -8.086422  
       1B1u   -8.083697     1B2u   -8.083697     1B2g   -8.083690  
       1B1g   -8.083690     4Ag    -1.222888     4B3u   -1.013210  
       5Ag    -0.600548     2B2u   -0.571966     2B1u   -0.571966  
       2B2g   -0.442340     2B1g   -0.442340  

    Virtual:                                                              

       5B3u    0.026551     6B3u    0.082321     6Ag     0.086418  
       3B2u    0.094014     3B1u    0.094014     3B2g    0.117649  
       3B1g    0.117649     7Ag     0.122226     7B3u    0.214179  
       8Ag     0.223979     1B3g    0.223979     4B2u    0.278373  
       4B1u    0.278373     9Ag     0.309467     8B3u    0.317386  
       1Au     0.317386     9B3u    0.342170     4B1g    0.361837  
       4B2g    0.361837     5B2u    0.458735     5B1u    0.458735  
      10Ag     0.508028     5B2g    0.540956     5B1g    0.540956  
      10B3u    0.543604     6B2u    0.545571     6B1u    0.545571  
      11Ag     0.579742    12Ag     0.584464     2B3g    0.584464  
       2Au     0.672910    11B3u    0.672910    13Ag     0.717866  
       7B1u    0.754829     7B2u    0.754829     6B1g    0.781007  
       6B2g    0.781007    12B3u    0.826328    14Ag     0.828411  
       3B3g    0.828411     7B1g    0.900337     7B2g    0.900337  
      13B3u    1.031601     8B2u    1.044900     8B1u    1.044900  
      14B3u    1.081622     3Au     1.081622    15Ag     1.128000  
       8B2g    1.170070     8B1g    1.170070    15B3u    1.236447  
       9B1u    1.530177     9B2u    1.530177    16Ag     1.560844  
      17Ag     1.561944     4B3g    1.561944    16B3u    1.588688  
       9B1g    1.617899     9B2g    1.617899    17B3u    1.634401  
       4Au     1.634401    10B2u    1.737103    10B1u    1.737103  
      11B1u    1.737810    11B2u    1.737810    18Ag     1.758900  
      19Ag     1.782858     5B3g    1.782858    20Ag     1.811541  
       6B3g    1.811541    18B3u    1.928447     5Au     1.928447  
      10B1g    1.954377    10B2g    1.954377    12B2u    1.992749  
      12B1u    1.992749    13B1u    2.007072    13B2u    2.007072  
      11B2g    2.087305    11B1g    2.087305    21Ag     2.146706  
       7B3g    2.146706    22Ag     2.160320    12B1g    2.179174  
      12B2g    2.179174    19B3u    2.211315     6Au     2.211315  
      20B3u    2.259277    13B1g    2.297574    13B2g    2.297574  
      21B3u    2.452571    14B2u    2.483890    14B1u    2.483890  
      22B3u    2.610350     7Au     2.610350    23Ag     2.635170  
      23B3u    2.786247    24Ag     3.019672    14B1g    3.123062  
      14B2g    3.123062    24B3u    3.389852    25Ag     3.707681  
       8B3g    3.707681    25B3u    3.780165     8Au     3.780165  
      15B1u    3.781153    15B2u    3.781153    26Ag     3.845402  
      15B1g    3.975733    15B2g    3.975733    27Ag     4.422542  
      16B1u    4.504887    16B2u    4.504887    26B3u    4.629665  
      28Ag     4.631941     9B3g    4.631941    17B2u    4.648809  
      17B1u    4.648809    18B1u    4.653710    18B2u    4.653710  
      29Ag     4.662859    10B3g    4.662859    30Ag     4.671300  
      11B3g    4.671300    16B1g    4.699894    16B2g    4.699894  
       9Au     4.728762    27B3u    4.728762    28B3u    4.746191  
      29B3u    4.790685    10Au     4.790685    17B1g    4.827035  
      17B2g    4.827035    18B1g    4.865523    18B2g    4.865523  
      19B2u    4.906019    19B1u    4.906019    31Ag     5.056583  
      30B3u    5.072748    11Au     5.072748    19B1g    5.390463  
      19B2g    5.390463    31B3u    5.948209    20B2u    6.081435  
      20B1u    6.081435    20B1g    6.708625    20B2g    6.708625  
      32B3u    7.278827    32Ag     7.292400    12B3g   11.385395  
      33Ag    11.385395    21B2u   11.413884    21B1u   11.413884  
      33B3u   11.443960    12Au    11.443960    34Ag    11.578179  
      21B1g   11.662241    21B2g   11.662241    34B3u   12.124386  
      35Ag    23.270747    35B3u   26.293151  

    Final Occupation by Irrep:
             Ag   B1g   B2g   B3g    Au   B1u   B2u   B3u 
    DOCC [     5,    2,    2,    0,    0,    2,    2,    4 ]

  @DF-RHF Final Energy:  -919.00915386244480

   => Energetics <=

    Nuclear Repulsion Energy =             77.4423577439473405
    One-Electron Energy =               -1424.0904098877481374
    Two-Electron Energy =                 427.6388982813560347
    Total Energy =                       -919.0091538624449186

Computation Completed


Properties will be evaluated at   0.000000,   0.000000,   0.000000 [a0]

Properties computed using the SCF density matrix

  Nuclear Dipole Moment: [e a0]
     X:     0.0000      Y:     0.0000      Z:     0.0000

  Electronic Dipole Moment: [e a0]
     X:     0.0000      Y:     0.0000      Z:     0.0000

  Dipole Moment: [e a0]
     X:     0.0000      Y:     0.0000      Z:     0.0000     Total:     0.0000

  Dipole Moment: [D]
     X:     0.0000      Y:     0.0000      Z:     0.0000     Total:     0.0000


*** tstop() called on bp1-compute00148.data.bp.acrc.priv at Mon Apr 19 16:10:45 2021
Module time:
	user time   =      16.94 seconds =       0.28 minutes
	system time =       0.64 seconds =       0.01 minutes
	total time  =          1 seconds =       0.02 minutes
Total time:
	user time   =     313.43 seconds =       5.22 minutes
	system time =      16.41 seconds =       0.27 minutes
	total time  =         27 seconds =       0.45 minutes

*** tstart() called on bp1-compute00148.data.bp.acrc.priv
*** at Mon Apr 19 16:10:45 2021


  //>>>>>>>>>>>>>>>>>>>>>>>>>>>>>>>>>>>//
  //               DFMP2               //
  //<<<<<<<<<<<<<<<<<<<<<<<<<<<<<<<<<<<//

   => Loading Basis Set <=

    Name: (AUG-CC-PV(Q+D)Z AUX)
    Role: RIFIT
    Keyword: DF_BASIS_MP2
    atoms 1-2 entry CL         line   914 file /work/zw18965/.conda/envs/p4env/share/psi4/basis/aug-cc-pvqz-ri.gbs 

	 --------------------------------------------------------
	                          DF-MP2                         
	      2nd-Order Density-Fitted Moller-Plesset Theory     
	              RMP2 Wavefunction,  24 Threads             
	                                                         
	        Rob Parrish, Justin Turney, Andy Simmonett,      
	           Ed Hohenstein, and C. David Sherrill          
	 --------------------------------------------------------

   => Auxiliary Basis Set <=

  Basis Set: (AUG-CC-PV(Q+D)Z AUX)
    Blend: AUG-CC-PVQZ-RI
    Number of shells: 88
    Number of basis function: 388
    Number of Cartesian functions: 536
    Spherical Harmonics?: true
    Max angular momentum: 5

	 --------------------------------------------------------
	                 NBF =   178, NAUX =   388
	 --------------------------------------------------------
	   CLASS    FOCC     OCC    AOCC    AVIR     VIR    FVIR
	   PAIRS       0      17      17     161     161       0
	 --------------------------------------------------------

  DFHelper Memory: AOs need 0.101 GiB; user supplied 100.583 GiB. Using in-core AOs.


         ------------------------------------------------------------
                                     CPHF                           
                                  Rob Parrish                       
         ------------------------------------------------------------

  ==> Geometry <==

    Molecular point group: d2h
    Full point group: D_inf_h

    Geometry (in Angstrom), charge = 0, multiplicity = 1:

       Center              X                  Y                   Z               Mass       
    ------------   -----------------  -----------------  -----------------  -----------------
         CL          -0.987393839359    -0.000000000000     0.000000000000    34.968852682000
         CL           0.987393839359     0.000000000000     0.000000000000    34.968852682000

  Nuclear repulsion =   77.442357743947341
  Reference energy  = -919.009153862444805

  ==> Basis Set <==

  Basis Set: AUG-CC-PV(Q+D)Z
    Blend: AUG-CC-PV(Q+D)Z
    Number of shells: 46
    Number of basis function: 178
    Number of Cartesian functions: 230
    Spherical Harmonics?: true
    Max angular momentum: 4

  ==> CGRSolver (by Rob Parrish) <==

   Number of roots    =         1
   Preconditioning    =    JACOBI
   Convergence cutoff =     1E-06
   Maximum iterations =       100

  ==> CPHFRHamiltonian (by Rob Parrish) <== 

  ==> MemDFJK: Density-Fitted J/K Matrices <==

    J tasked:                   Yes
    K tasked:                   Yes
    wK tasked:                   No
    OpenMP threads:              24
    Memory [MiB]:            102996
    Algorithm:                 Core
    Schwarz Cutoff:           1E-12
    Mask sparsity (%):       0.1641
    Fitting Condition:        1E-10

   => Auxiliary Basis Set <=

  Basis Set: (AUG-CC-PV(Q+D)Z AUX)
    Blend: AUG-CC-PVQZ-JKFIT
    Number of shells: 92
    Number of basis function: 368
    Number of Cartesian functions: 494
    Spherical Harmonics?: true
    Max angular momentum: 5

  ==> CPHF Iterations <==

  => Iterations <=

             Iter  Converged  Remaining    Residual
  CGR           1          0          1   6.357E-02
  CGR           2          0          1   1.214E-02
  CGR           3          0          1   3.155E-03
  CGR           4          0          1   3.474E-04
  CGR           5          0          1   1.113E-04
  CGR           6          0          1   1.620E-05
  CGR           7          0          1   1.492E-06
  CGR           8          1          0   1.459E-07

    CGRSolver converged.

Problem determining natural orbital and density matrix symmetries.
Future calls to oeprop using this density will not work. Try disabling symmetry.

  ==> DFCorrGrad: Density-Fitted Correlated Gradients <==

    OpenMP threads:             24
    Integrals threads:          24
    Memory [GiB]:          100.583
    Schwarz Cutoff:          0E+00
    Fitting Condition:       1E-10

   => Auxiliary Basis Set <=

  Basis Set: (AUG-CC-PV(Q+D)Z AUX)
    Blend: AUG-CC-PVQZ-JKFIT
    Number of shells: 92
    Number of basis function: 368
    Number of Cartesian functions: 494
    Spherical Harmonics?: true
    Max angular momentum: 5

	-----------------------------------------------------------
	 ==================> DF-MP2 Energies <==================== 
	-----------------------------------------------------------
	 Reference Energy          =    -919.0091538624448049 [Eh]
	 Singles Energy            =      -0.0000000000000000 [Eh]
	 Same-Spin Energy          =      -0.1853527869584625 [Eh]
	 Opposite-Spin Energy      =      -0.5091016784408897 [Eh]
	 Correlation Energy        =      -0.6944544653993523 [Eh]
[...]
   @DF-RHF iter   3:  -919.00887712361464   -2.39806e-03   2.31532e-04 DIIS
   @DF-RHF iter   4:  -919.00912461133908   -2.47488e-04   7.17330e-05 DIIS
   @DF-RHF iter   5:  -919.00915392425463   -2.93129e-05   1.19368e-05 DIIS
   @DF-RHF iter   6:  -919.00915457607584   -6.51821e-07   1.42316e-06 DIIS
   @DF-RHF iter   7:  -919.00915458211898   -6.04314e-09   1.69962e-07 DIIS
   @DF-RHF iter   8:  -919.00915458224677   -1.27784e-10   2.69147e-08 DIIS
   @DF-RHF iter   9:  -919.00915458224790   -1.13687e-12   2.56080e-09 DIIS
   @DF-RHF iter  10:  -919.00915458224824   -3.41061e-13   3.09854e-10 DIIS
   @DF-RHF iter  11:  -919.00915458224858   -3.41061e-13   3.97767e-11 DIIS
  Energy and wave function converged.


  ==> Post-Iterations <==

    Orbital Energies [Eh]
    ---------------------

    Doubly Occupied:                                                      

       1Ag  -104.897229     1B3u -104.897227     2Ag   -10.619371  
       2B3u  -10.619194     3Ag    -8.086692     3B3u   -8.086399  
       1B1u   -8.083674     1B2u   -8.083674     1B2g   -8.083666  
       1B1g   -8.083666     4Ag    -1.223083     4B3u   -1.013136  
       5Ag    -0.600663     2B2u   -0.572055     2B1u   -0.572055  
       2B1g   -0.442270     2B2g   -0.442270  

    Virtual:                                                              

       5B3u    0.026678     6B3u    0.082409     6Ag     0.086418  
       3B1u    0.094009     3B2u    0.094009     3B1g    0.117648  
       3B2g    0.117648     7Ag     0.122218     7B3u    0.214192  
       8Ag     0.223971     1B3g    0.223971     4B1u    0.278395  
       4B2u    0.278395     9Ag     0.309435     8B3u    0.317405  
       1Au     0.317405     9B3u    0.342232     4B2g    0.361833  
       4B1g    0.361833     5B1u    0.458711     5B2u    0.458711  
      10Ag     0.507973     5B2g    0.540946     5B1g    0.540946  
      10B3u    0.543571     6B1u    0.545556     6B2u    0.545556  
      11Ag     0.579704     2B3g    0.584416    12Ag     0.584416  
       2Au     0.672944    11B3u    0.672944    13Ag     0.718000  
       7B1u    0.754809     7B2u    0.754809     6B2g    0.781129  
       6B1g    0.781129    12B3u    0.826521    14Ag     0.828497  
       3B3g    0.828497     7B1g    0.900385     7B2g    0.900385  
      13B3u    1.031723     8B2u    1.044990     8B1u    1.044990  
       3Au     1.081696    14B3u    1.081696    15Ag     1.127958  
       8B2g    1.170093     8B1g    1.170093    15B3u    1.236474  
       9B1u    1.530106     9B2u    1.530106    16Ag     1.560751  
       4B3g    1.561926    17Ag     1.561926    16B3u    1.588783  
       9B2g    1.617687     9B1g    1.617687     4Au     1.634454  
      17B3u    1.634454    10B1u    1.737107    10B2u    1.737107  
      11B1u    1.737865    11B2u    1.737865    18Ag     1.758944  
      19Ag     1.782788     5B3g    1.782788     6B3g    1.811640  
      20Ag     1.811640    18B3u    1.928525     5Au     1.928525  
      10B1g    1.954730    10B2g    1.954730    12B2u    1.993031  
      12B1u    1.993031    13B1u    2.007045    13B2u    2.007045  
      11B2g    2.087375    11B1g    2.087375    21Ag     2.146871  
       7B3g    2.146871    22Ag     2.160469    12B2g    2.179376  
      12B1g    2.179376     6Au     2.211396    19B3u    2.211396  
      20B3u    2.259431    13B2g    2.297689    13B1g    2.297689  
      21B3u    2.452988    14B2u    2.484149    14B1u    2.484149  
      22B3u    2.610773     7Au     2.610773    23Ag     2.636032  
      23B3u    2.785855    24Ag     3.019802    14B2g    3.123243  
      14B1g    3.123243    24B3u    3.389986    25Ag     3.707661  
       8B3g    3.707661    25B3u    3.780209     8Au     3.780209  
      15B1u    3.781219    15B2u    3.781219    26Ag     3.845143  
      15B2g    3.976123    15B1g    3.976123    27Ag     4.422217  
      16B1u    4.504241    16B2u    4.504241    26B3u    4.630682  
      28Ag     4.631467     9B3g    4.631467    17B2u    4.648781  
      17B1u    4.648781    18B2u    4.653650    18B1u    4.653650  
      10B3g    4.663000    29Ag     4.663000    30Ag     4.671276  
      11B3g    4.671276    16B1g    4.699915    16B2g    4.699915  
      27B3u    4.728786     9Au     4.728786    28B3u    4.746408  
      10Au     4.790822    29B3u    4.790822    17B1g    4.827198  
      17B2g    4.827198    18B1g    4.865704    18B2g    4.865704  
      19B2u    4.906496    19B1u    4.906496    31Ag     5.057014  
      11Au     5.073299    30B3u    5.073299    19B2g    5.391234  
      19B1g    5.391234    31B3u    5.949718    20B2u    6.081523  
      20B1u    6.081523    20B1g    6.709471    20B2g    6.709471  
      32B3u    7.278336    32Ag     7.293531    12B3g   11.385397  
      33Ag    11.385397    21B1u   11.413997    21B2u   11.413997  
      33B3u   11.444028    12Au    11.444028    34Ag    11.578674  
      21B2g   11.662601    21B1g   11.662601    34B3u   12.124857  
      35Ag    23.270960    35B3u   26.298817  

    Final Occupation by Irrep:
             Ag   B1g   B2g   B3g    Au   B1u   B2u   B3u 
    DOCC [     5,    2,    2,    0,    0,    2,    2,    4 ]

  @DF-RHF Final Energy:  -919.00915458224858

   => Energetics <=

    Nuclear Repulsion Energy =             77.4671800874724283
    One-Electron Energy =               -1424.1400208321015270
    Two-Electron Energy =                 427.6636861623806567
    Total Energy =                       -919.0091545822485841

Computation Completed


Properties will be evaluated at   0.000000,   0.000000,   0.000000 [a0]

Properties computed using the SCF density matrix

  Nuclear Dipole Moment: [e a0]
     X:     0.0000      Y:    -0.0000      Z:     0.0000

  Electronic Dipole Moment: [e a0]
     X:     0.0000      Y:     0.0000      Z:     0.0000

  Dipole Moment: [e a0]
     X:     0.0000      Y:    -0.0000      Z:     0.0000     Total:     0.0000

  Dipole Moment: [D]
     X:     0.0000      Y:    -0.0000      Z:     0.0000     Total:     0.0000


*** tstop() called on bp1-compute00148.data.bp.acrc.priv at Mon Apr 19 16:11:19 2021
Module time:
	user time   =      25.24 seconds =       0.42 minutes
	system time =       1.01 seconds =       0.02 minutes
	total time  =          1 seconds =       0.02 minutes
Total time:
	user time   =     720.42 seconds =      12.01 minutes
	system time =      36.91 seconds =       0.62 minutes
	total time  =         61 seconds =       1.02 minutes

*** tstart() called on bp1-compute00148.data.bp.acrc.priv
*** at Mon Apr 19 16:11:19 2021


  //>>>>>>>>>>>>>>>>>>>>>>>>>>>>>>>>>>>//
  //               DFMP2               //
  //<<<<<<<<<<<<<<<<<<<<<<<<<<<<<<<<<<<//

   => Loading Basis Set <=

    Name: (AUG-CC-PV(Q+D)Z AUX)
    Role: RIFIT
    Keyword: DF_BASIS_MP2
    atoms 1-2 entry CL         line   914 file /work/zw18965/.conda/envs/p4env/share/psi4/basis/aug-cc-pvqz-ri.gbs 

	 --------------------------------------------------------
	                          DF-MP2                         
	      2nd-Order Density-Fitted Moller-Plesset Theory     
	              RMP2 Wavefunction,  24 Threads             
	                                                         
	        Rob Parrish, Justin Turney, Andy Simmonett,      
	           Ed Hohenstein, and C. David Sherrill          
	 --------------------------------------------------------

   => Auxiliary Basis Set <=

  Basis Set: (AUG-CC-PV(Q+D)Z AUX)
    Blend: AUG-CC-PVQZ-RI
    Number of shells: 88
    Number of basis function: 388
    Number of Cartesian functions: 536
    Spherical Harmonics?: true
    Max angular momentum: 5

	 --------------------------------------------------------
	                 NBF =   178, NAUX =   388
	 --------------------------------------------------------
	   CLASS    FOCC     OCC    AOCC    AVIR     VIR    FVIR
	   PAIRS       0      17      17     161     161       0
	 --------------------------------------------------------

  DFHelper Memory: AOs need 0.101 GiB; user supplied 100.583 GiB. Using in-core AOs.


         ------------------------------------------------------------
                                     CPHF                           
                                  Rob Parrish                       
         ------------------------------------------------------------

  ==> Geometry <==

    Molecular point group: d2h
    Full point group: D_inf_h

    Geometry (in Angstrom), charge = 0, multiplicity = 1:

       Center              X                  Y                   Z               Mass       
    ------------   -----------------  -----------------  -----------------  -----------------
         CL          -0.987077454678    -0.000000000000     0.000000000000    34.968852682000
         CL           0.987077454678     0.000000000000     0.000000000000    34.968852682000

  Nuclear repulsion =   77.467180087472428
  Reference energy  = -919.009154582248584

  ==> Basis Set <==

  Basis Set: AUG-CC-PV(Q+D)Z
    Blend: AUG-CC-PV(Q+D)Z
    Number of shells: 46
    Number of basis function: 178
    Number of Cartesian functions: 230
    Spherical Harmonics?: true
    Max angular momentum: 4

  ==> CGRSolver (by Rob Parrish) <==

   Number of roots    =         1
   Preconditioning    =    JACOBI
   Convergence cutoff =     1E-06
   Maximum iterations =       100

  ==> CPHFRHamiltonian (by Rob Parrish) <== 

  ==> MemDFJK: Density-Fitted J/K Matrices <==

    J tasked:                   Yes
    K tasked:                   Yes
    wK tasked:                   No
    OpenMP threads:              24
    Memory [MiB]:            102996
    Algorithm:                 Core
    Schwarz Cutoff:           1E-12
    Mask sparsity (%):       0.1641
    Fitting Condition:        1E-10

   => Auxiliary Basis Set <=

  Basis Set: (AUG-CC-PV(Q+D)Z AUX)
    Blend: AUG-CC-PVQZ-JKFIT
    Number of shells: 92
    Number of basis function: 368
    Number of Cartesian functions: 494
    Spherical Harmonics?: true
    Max angular momentum: 5

  ==> CPHF Iterations <==

  => Iterations <=

             Iter  Converged  Remaining    Residual
  CGR           1          0          1   6.360E-02
  CGR           2          0          1   1.214E-02
  CGR           3          0          1   3.155E-03
  CGR           4          0          1   3.467E-04
  CGR           5          0          1   1.112E-04
  CGR           6          0          1   1.619E-05
  CGR           7          0          1   1.490E-06
  CGR           8          1          0   1.458E-07

    CGRSolver converged.

Problem determining natural orbital and density matrix symmetries.
Future calls to oeprop using this density will not work. Try disabling symmetry.

  ==> DFCorrGrad: Density-Fitted Correlated Gradients <==

    OpenMP threads:             24
    Integrals threads:          24
    Memory [GiB]:          100.583
    Schwarz Cutoff:          0E+00
    Fitting Condition:       1E-10

   => Auxiliary Basis Set <=

  Basis Set: (AUG-CC-PV(Q+D)Z AUX)
    Blend: AUG-CC-PVQZ-JKFIT
    Number of shells: 92
    Number of basis function: 368
    Number of Cartesian functions: 494
    Spherical Harmonics?: true
    Max angular momentum: 5

	-----------------------------------------------------------
	 ==================> DF-MP2 Energies <==================== 
	-----------------------------------------------------------
	 Reference Energy          =    -919.0091545822485841 [Eh]
	 Singles Energy            =      -0.0000000000000000 [Eh]
	 Same-Spin Energy          =      -0.1853594574996232 [Eh]
	 Opposite-Spin Energy      =      -0.5090941810847882 [Eh]
	 Correlation Energy        =      -0.6944536385844114 [Eh]
	 Total Energy              =    -919.7036082208329617 [Eh]
	-----------------------------------------------------------
	 ================> DF-SCS-MP2 Energies <================== 
	-----------------------------------------------------------
	 SCS Same-Spin Scale       =       0.3333333333333333 [-]
	 SCS Opposite-Spin Scale   =       1.2000000000000000 [-]
	 SCS Same-Spin Energy      =      -0.0617864858332077 [Eh]
	 SCS Opposite-Spin Energy  =      -0.6109130173017459 [Eh]
	 SCS Correlation Energy    =      -0.6726995031349536 [Eh]
	 SCS Total Energy          =    -919.6818540853835202 [Eh]
	-----------------------------------------------------------


  -Total Gradient:
     Atom            X                  Y                   Z
    ------   -----------------  -----------------  -----------------
       1        0.000225727759     0.000000000000     0.000000000000
       2       -0.000225727759    -0.000000000000     0.000000000000


*** tstop() called on bp1-compute00148.data.bp.acrc.priv at Mon Apr 19 16:11:27 2021
Module time:
	user time   =      76.36 seconds =       1.27 minutes
	system time =       4.13 seconds =       0.07 minutes
	total time  =          8 seconds =       0.13 minutes
Total time:
	user time   =     796.79 seconds =      13.28 minutes
	system time =      41.04 seconds =       0.68 minutes
	total time  =         69 seconds =       1.15 minutes

         ----------------------------------------------------------
                                   FINDIF
                     R. A. King and Jonathon Misiewicz
         ---------------------------------------------------------

  Computing second-derivative from gradients using projected, 
  symmetry-adapted, cartesian coordinates.

  3 gradients passed in, including the reference geometry.
  Generating complete list of displacements from unique ones.


-------------------------------------------------------------


  ==> Harmonic Vibrational Analysis <==

  non-mass-weighted Hessian:       Symmetric? True   Hermitian? True   Lin Dep Dim?  5 (0)
  projection of translations (True) and rotations (True) removed 5 degrees of freedom (5)
  total projector:                 Symmetric? True   Hermitian? True   Lin Dep Dim?  5 (5)
  mass-weighted Hessian:           Symmetric? True   Hermitian? True   Lin Dep Dim?  5 (0)
  pre-proj  low-frequency mode:    0.0000  [cm^-1]
  pre-proj  low-frequency mode:    0.0000  [cm^-1]
  pre-proj  low-frequency mode:    0.0000  [cm^-1]
  pre-proj  low-frequency mode:    0.0000  [cm^-1]
  pre-proj  low-frequency mode:    0.0000  [cm^-1]
  pre-proj  all modes:['0.0000' '0.0000' '0.0000' '0.0000' '0.0000' '586.2790']
  projected mass-weighted Hessian: Symmetric? True   Hermitian? True   Lin Dep Dim?  5 (5)
  post-proj low-frequency mode:    0.0000i [cm^-1] (TR)
  post-proj low-frequency mode:    0.0000i [cm^-1] (TR)
  post-proj low-frequency mode:    0.0000  [cm^-1] (TR)
  post-proj low-frequency mode:    0.0000  [cm^-1] (TR)
  post-proj low-frequency mode:    0.0000  [cm^-1] (TR)
  post-proj  all modes:['0.0000i' '0.0000i' '0.0000' '0.0000' '0.0000' '586.2790']

  Vibration                       6           
  Freq [cm^-1]                 586.2790       
  Irrep                           Ag          
  Reduced mass [u]             34.9689        
  Force const [mDyne/A]         7.0817        
  Turning point v=0 [a0]        0.0766        
  RMS dev v=0 [a0 u^1/2]        0.3204        
  Char temp [K]                843.5249       
  ----------------------------------------------------------------------------------
      1   CL               0.71  0.00 -0.00   
      2   CL              -0.71 -0.00 -0.00   

  ==> Thermochemistry Components <==

  Entropy, S
    Electronic S            0.000 [cal/(mol K)]        0.000 [J/(mol K)]       0.00000000 [mEh/K] (multiplicity = 1)
    Translational S        38.652 [cal/(mol K)]      161.721 [J/(mol K)]       0.06159614 [mEh/K] (mol. weight = 69.9377 [u], P = 101325.00 [Pa])
    Rotational S           13.986 [cal/(mol K)]       58.518 [J/(mol K)]       0.02228828 [mEh/K] (symmetry no. = 2)
    Vibrational S           0.474 [cal/(mol K)]        1.983 [J/(mol K)]       0.00075515 [mEh/K]
  Total S                  53.112 [cal/(mol K)]      222.221 [J/(mol K)]       0.08463957 [mEh/K]
  Correction S              0.000 [cal/(mol K)]        0.000 [J/(mol K)]       0.00000000 [mEh/K]

  Constant volume heat capacity, Cv
    Electronic Cv           0.000 [cal/(mol K)]        0.000 [J/(mol K)]       0.00000000 [mEh/K]
    Translational Cv        2.981 [cal/(mol K)]       12.472 [J/(mol K)]       0.00475022 [mEh/K]
    Rotational Cv           1.987 [cal/(mol K)]        8.314 [J/(mol K)]       0.00316681 [mEh/K]
    Vibrational Cv          1.061 [cal/(mol K)]        4.439 [J/(mol K)]       0.00169091 [mEh/K]
  Total Cv                  6.029 [cal/(mol K)]       25.226 [J/(mol K)]       0.00960794 [mEh/K]
  Correction Cv             0.000 [cal/(mol K)]        0.000 [J/(mol K)]       0.00000000 [mEh/K]

  Constant pressure heat capacity, Cp
    Electronic Cp           0.000 [cal/(mol K)]        0.000 [J/(mol K)]       0.00000000 [mEh/K]
    Translational Cp        4.968 [cal/(mol K)]       20.786 [J/(mol K)]       0.00791703 [mEh/K]
    Rotational Cp           1.987 [cal/(mol K)]        8.314 [J/(mol K)]       0.00316681 [mEh/K]
    Vibrational Cp          1.061 [cal/(mol K)]        4.439 [J/(mol K)]       0.00169091 [mEh/K]
  Total Cp                  8.016 [cal/(mol K)]       33.540 [J/(mol K)]       0.01277475 [mEh/K]
  Correction Cp             0.000 [cal/(mol K)]        0.000 [J/(mol K)]       0.00000000 [mEh/K]

  ==> Thermochemistry Energy Analysis <==

  Raw electronic energy, E0
  Total E0, Electronic energy at well bottom at 0 [K]                 -919.70360833 [Eh]

  Zero-point energy, ZPE_vib = Sum_i nu_i / 2
    Electronic ZPE          0.000 [kcal/mol]        0.000 [kJ/mol]       0.00000000 [Eh]
    Translational ZPE       0.000 [kcal/mol]        0.000 [kJ/mol]       0.00000000 [Eh]
    Rotational ZPE          0.000 [kcal/mol]        0.000 [kJ/mol]       0.00000000 [Eh]
    Vibrational ZPE         0.838 [kcal/mol]        3.507 [kJ/mol]       0.00133564 [Eh]         293.139 [cm^-1]
  Correction ZPE            0.838 [kcal/mol]        3.507 [kJ/mol]       0.00133564 [Eh]         293.139 [cm^-1]
  Total ZPE, Electronic energy at 0 [K]                               -919.70227269 [Eh]

  Thermal Energy, E (includes ZPE)
    Electronic E            0.000 [kcal/mol]        0.000 [kJ/mol]       0.00000000 [Eh]
    Translational E         0.889 [kcal/mol]        3.718 [kJ/mol]       0.00141628 [Eh]
    Rotational E            0.592 [kcal/mol]        2.479 [kJ/mol]       0.00094418 [Eh]
    Vibrational E           0.943 [kcal/mol]        3.947 [kJ/mol]       0.00150331 [Eh]
  Correction E              2.425 [kcal/mol]       10.144 [kJ/mol]       0.00386377 [Eh]
  Total E, Electronic energy at  298.15 [K]                           -919.69974456 [Eh]

  Enthalpy, H_trans = E_trans + k_B * T
    Electronic H            0.000 [kcal/mol]        0.000 [kJ/mol]       0.00000000 [Eh]
    Translational H         1.481 [kcal/mol]        6.197 [kJ/mol]       0.00236046 [Eh]
    Rotational H            0.592 [kcal/mol]        2.479 [kJ/mol]       0.00094418 [Eh]
    Vibrational H           0.943 [kcal/mol]        3.947 [kJ/mol]       0.00150331 [Eh]
  Correction H              3.017 [kcal/mol]       12.623 [kJ/mol]       0.00480796 [Eh]
  Total H, Enthalpy at  298.15 [K]                                    -919.69880037 [Eh]

  Gibbs free energy, G = H - T * S
    Electronic G            0.000 [kcal/mol]        0.000 [kJ/mol]       0.00000000 [Eh]
    Translational G       -10.043 [kcal/mol]      -42.020 [kJ/mol]      -0.01600443 [Eh]
    Rotational G           -3.577 [kcal/mol]      -14.968 [kJ/mol]      -0.00570107 [Eh]
    Vibrational G           0.802 [kcal/mol]        3.356 [kJ/mol]       0.00127816 [Eh]
  Correction G            -12.818 [kcal/mol]      -53.632 [kJ/mol]      -0.02042733 [Eh]
  Total G, Free enthalpy at  298.15 [K]                               -919.72403566 [Eh]

    Psi4 stopped on: Monday, 19 April 2021 04:11PM
    Psi4 wall time for execution: 0:01:08.39

*** Psi4 exiting successfully. Buy a developer a beer!
