
    -----------------------------------------------------------------------
          Psi4: An Open-Source Ab Initio Electronic Structure Package
                               Psi4 1.3.2 release

                         Git: Rev {HEAD} ecbda83 


    R. M. Parrish, L. A. Burns, D. G. A. Smith, A. C. Simmonett,
    A. E. DePrince III, E. G. Hohenstein, U. Bozkaya, A. Yu. Sokolov,
    R. Di Remigio, R. M. Richard, J. F. Gonthier, A. M. James,
    H. R. McAlexander, A. Kumar, M. Saitow, X. Wang, B. P. Pritchard,
    P. Verma, H. F. Schaefer III, K. Patkowski, R. A. King, E. F. Valeev,
    F. A. Evangelista, J. M. Turney, T. D. Crawford, and C. D. Sherrill,
    J. Chem. Theory Comput. 13(7) pp 3185--3197 (2017).
    (doi: 10.1021/acs.jctc.7b00174)


                         Additional Contributions by
    P. Kraus, H. Kruse, M. H. Lechner, M. C. Schieber, R. A. Shaw,
    A. Alenaizan, R. Galvelis, Z. L. Glick, S. Lehtola, and J. P. Misiewicz

    -----------------------------------------------------------------------


    Psi4 started on: Monday, 19 April 2021 04:11PM

    Process ID: 256774
    Host:       bp1-compute00147.data.bp.acrc.priv
    PSIDATADIR: /work/zw18965/.conda/envs/p4env/share/psi4
    Memory:     500.0 MiB
    Threads:    24
    
  ==> Input File <==

--------------------------------------------------------------------------
memory 144 GB

molecule {
0 1
O     0.562242499669   0.000000000000   0.000000000000
C    -0.562242499669   0.000000000000   0.000000000000}

set basis aug-cc-pV(Q+d)Z
 
optimize("MP2")
frequencies("MP2")--------------------------------------------------------------------------

  Memory set to 134.110 GiB by Python driver.
gradient() will perform analytic gradient computation.
    SCF Algorithm Type (re)set to DF.

*** tstart() called on bp1-compute00147.data.bp.acrc.priv
*** at Mon Apr 19 16:11:34 2021

   => Loading Basis Set <=

    Name: AUG-CC-PV(Q+D)Z
    Role: ORBITAL
    Keyword: BASIS
    atoms 1 entry O          line   439 file /work/zw18965/.conda/envs/p4env/share/psi4/basis/aug-cc-pv_qpd_z.gbs 
    atoms 2 entry C          line   319 file /work/zw18965/.conda/envs/p4env/share/psi4/basis/aug-cc-pv_qpd_z.gbs 


         ---------------------------------------------------------
                                   SCF
               by Justin Turney, Rob Parrish, Andy Simmonett
                          and Daniel G. A. Smith
                              RHF Reference
                       24 Threads, 137329 MiB Core
         ---------------------------------------------------------

  ==> Geometry <==

    Molecular point group: c2v
    Full point group: C_inf_v

    Geometry (in Angstrom), charge = 0, multiplicity = 1:

       Center              X                  Y                   Z               Mass       
    ------------   -----------------  -----------------  -----------------  -----------------
         O            0.000000000000     0.000000000000     0.482009685524    15.994914619570
         C            0.000000000000     0.000000000000    -0.642475313814    12.000000000000

  Running in c2v symmetry.

  Rotational constants: A = ************  B =      1.94449  C =      1.94449 [cm^-1]
  Rotational constants: A = ************  B =  58294.26646  C =  58294.26646 [MHz]
  Nuclear repulsion =   22.588568213105230

  Charge       = 0
  Multiplicity = 1
  Electrons    = 14
  Nalpha       = 7
  Nbeta        = 7

  ==> Algorithm <==

  SCF Algorithm Type is DF.
  DIIS enabled.
  MOM disabled.
  Fractional occupation disabled.
  Guess Type is SAD.
  Energy threshold   = 1.00e-10
  Density threshold  = 1.00e-10
  Integral threshold = 0.00e+00

  ==> Primary Basis <==

  Basis Set: AUG-CC-PV(Q+D)Z
    Blend: AUG-CC-PV(Q+D)Z
    Number of shells: 40
    Number of basis function: 160
    Number of Cartesian functions: 210
    Spherical Harmonics?: true
    Max angular momentum: 4

   => Loading Basis Set <=

    Name: (AUG-CC-PV(Q+D)Z AUX)
    Role: JKFIT
    Keyword: DF_BASIS_SCF
    atoms 1 entry O          line   318 file /work/zw18965/.conda/envs/p4env/share/psi4/basis/aug-cc-pvqz-jkfit.gbs 
    atoms 2 entry C          line   178 file /work/zw18965/.conda/envs/p4env/share/psi4/basis/aug-cc-pvqz-jkfit.gbs 

  ==> Pre-Iterations <==

   -------------------------------------------------------
    Irrep   Nso     Nmo     Nalpha   Nbeta   Ndocc  Nsocc
   -------------------------------------------------------
     A1        62      62       0       0       0       0
     A2        22      22       0       0       0       0
     B1        38      38       0       0       0       0
     B2        38      38       0       0       0       0
   -------------------------------------------------------
    Total     160     160       7       7       7       0
   -------------------------------------------------------

  ==> Integral Setup <==

  DFHelper Memory: AOs need 0.066 GiB; user supplied 100.583 GiB. Using in-core AOs.

  ==> MemDFJK: Density-Fitted J/K Matrices <==

    J tasked:                   Yes
    K tasked:                   Yes
    wK tasked:                   No
    OpenMP threads:              24
    Memory [MiB]:            102996
    Algorithm:                 Core
    Schwarz Cutoff:           1E-12
    Mask sparsity (%):       0.0000
    Fitting Condition:        1E-10

   => Auxiliary Basis Set <=

  Basis Set: (AUG-CC-PV(Q+D)Z AUX)
    Blend: AUG-CC-PVQZ-JKFIT
    Number of shells: 68
    Number of basis function: 284
    Number of Cartesian functions: 396
    Spherical Harmonics?: true
    Max angular momentum: 5

  Minimum eigenvalue in the overlap matrix is 9.7874285316E-05.
  Using Symmetric Orthogonalization.

  SCF Guess: Superposition of Atomic Densities via on-the-fly atomic UHF.

  ==> Iterations <==

                           Total Energy        Delta E     RMS |[F,P]|

   @DF-RHF iter SAD:  -111.88861140625568   -1.11889e+02   0.00000e+00 
   @DF-RHF iter   1:  -112.76306802766487   -8.74457e-01   3.33577e-03 DIIS
   @DF-RHF iter   2:  -112.77224612755745   -9.17810e-03   2.70707e-03 DIIS
   @DF-RHF iter   3:  -112.78936007202229   -1.71139e-02   1.92473e-04 DIIS
   @DF-RHF iter   4:  -112.78948907546454   -1.29003e-04   2.17040e-05 DIIS
   @DF-RHF iter   5:  -112.78949153561550   -2.46015e-06   3.87090e-06 DIIS
   @DF-RHF iter   6:  -112.78949165655339   -1.20938e-07   5.90055e-07 DIIS
   @DF-RHF iter   7:  -112.78949165926706   -2.71366e-09   6.07985e-08 DIIS
   @DF-RHF iter   8:  -112.78949165929390   -2.68443e-11   1.06779e-08 DIIS
   @DF-RHF iter   9:  -112.78949165929453   -6.25278e-13   2.37593e-09 DIIS
   @DF-RHF iter  10:  -112.78949165929467   -1.42109e-13   4.49708e-10 DIIS
   @DF-RHF iter  11:  -112.78949165929471   -4.26326e-14   1.31451e-10 DIIS
   @DF-RHF iter  12:  -112.78949165929478   -7.10543e-14   1.95139e-11 DIIS
  Energy and wave function converged.


  ==> Post-Iterations <==

    Orbital Energies [Eh]
    ---------------------

    Doubly Occupied:                                                      

       1A1   -20.665198     2A1   -11.358722     3A1    -1.524417  
       4A1    -0.804954     1B1    -0.642017     1B2    -0.642017  
       5A1    -0.554482  

    Virtual:                                                              

       6A1     0.060076     2B1     0.062896     2B2     0.062896  
       7A1     0.074783     3B1     0.142052     3B2     0.142052  
       8A1     0.156515     4B1     0.166994     4B2     0.166994  
       1A2     0.227931     9A1     0.227931    10A1     0.228139  
      11A1     0.302150     5B1     0.321196     5B2     0.321196  
      12A1     0.392768     6B1     0.396263     6B2     0.396263  
      13A1     0.509581     2A2     0.534387    14A1     0.534387  
       7B2     0.623398     7B1     0.623398    15A1     0.647636  
       8B2     0.748893     8B1     0.748893     3A2     0.768791  
      16A1     0.768791    17A1     0.783248     9B1     0.824672  
       9B2     0.824672    18A1     0.874361    10B1     0.881359  
      10B2     0.881359     4A2     0.891502    19A1     0.891502  
      20A1     0.915468    11B1     1.080175    11B2     1.080175  
      21A1     1.201258    12B2     1.448041    12B1     1.448041  
      22A1     1.490303     5A2     1.517237    23A1     1.517237  
      13B1     1.553591    13B2     1.553591    24A1     1.669351  
       6A2     1.770052    25A1     1.770052    26A1     1.783400  
      14B1     1.816467    14B2     1.816467    15B1     1.971796  
      15B2     1.971796     7A2     2.106282    27A1     2.106282  
      28A1     2.175438    29A1     2.201444     8A2     2.201444  
      16B2     2.252446    16B1     2.252446    30A1     2.319685  
      17B1     2.328226    17B2     2.328226    18B1     2.364944  
      18B2     2.364944     9A2     2.365487    31A1     2.365487  
      32A1     2.504641    19B1     2.614018    19B2     2.614018  
      20B1     2.836665    20B2     2.836665    33A1     2.984497  
      10A2     3.014221    34A1     3.014221    35A1     3.517964  
      11A2     3.725015    36A1     3.725015    21B1     3.783245  
      21B2     3.783245    37A1     4.012205    22B2     4.083187  
      22B1     4.083187    12A2     4.181290    38A1     4.181290  
      23B1     4.213432    23B2     4.213432    24B1     4.289051  
      24B2     4.289051    39A1     4.333581    40A1     4.394734  
      13A2     4.394734    41A1     4.574450    25B1     4.783785  
      25B2     4.783785    42A1     5.153669    14A2     5.159205  
      43A1     5.159205    26B1     5.183895    26B2     5.183895  
      15A2     5.903371    44A1     5.903371    45A1     5.958880  
      27B2     6.142577    27B1     6.142577    28B1     6.257398  
      28B2     6.257398    16A2     6.310710    46A1     6.310710  
      29B2     6.354609    29B1     6.354609    47A1     6.419452  
      30B2     6.446748    30B1     6.446748    48A1     6.601739  
      17A2     6.601739    49A1     7.276246    18A2     7.370971  
      50A1     7.370971    31B1     7.520773    31B2     7.520773  
      51A1     8.289718    52A1     8.566805    32B2     8.664287  
      32B1     8.664287    53A1    10.605429    19A2    10.605429  
      33B1    10.889372    33B2    10.889372    20A2    11.145421  
      54A1    11.145421    34B1    11.146015    34B2    11.146015  
      55A1    11.381894    35B1    11.403274    35B2    11.403274  
      36B1    11.860964    36B2    11.860964    56A1    12.079154  
      21A2    12.304362    57A1    12.304362    37B1    12.768804  
      37B2    12.768804    22A2    12.924868    58A1    12.924868  
      59A1    13.866254    38B2    14.256357    38B1    14.256357  
      60A1    14.565976    61A1    25.171532    62A1    43.306107  

    Final Occupation by Irrep:
             A1    A2    B1    B2 
    DOCC [     5,    0,    1,    1 ]

  @DF-RHF Final Energy:  -112.78949165929478

   => Energetics <=

    Nuclear Repulsion Energy =             22.5885682131052299
    One-Electron Energy =                -198.3725060401833389
    Two-Electron Energy =                  62.9944461677833303
    Total Energy =                       -112.7894916592947823

Computation Completed


Properties will be evaluated at   0.000000,   0.000000,   0.000000 [a0]

Properties computed using the SCF density matrix

  Nuclear Dipole Moment: [e a0]
     X:     0.0000      Y:     0.0000      Z:     0.0023

  Electronic Dipole Moment: [e a0]
     X:     0.0000      Y:     0.0000      Z:    -0.0994

  Dipole Moment: [e a0]
     X:     0.0000      Y:     0.0000      Z:    -0.0971     Total:     0.0971

  Dipole Moment: [D]
     X:     0.0000      Y:     0.0000      Z:    -0.2469     Total:     0.2469


*** tstop() called on bp1-compute00147.data.bp.acrc.priv at Mon Apr 19 16:11:36 2021
Module time:
	user time   =      27.49 seconds =       0.46 minutes
	system time =       1.37 seconds =       0.02 minutes
	total time  =          2 seconds =       0.03 minutes
Total time:
	user time   =      27.49 seconds =       0.46 minutes
	system time =       1.37 seconds =       0.02 minutes
	total time  =          2 seconds =       0.03 minutes

*** tstart() called on bp1-compute00147.data.bp.acrc.priv
*** at Mon Apr 19 16:11:36 2021


  //>>>>>>>>>>>>>>>>>>>>>>>>>>>>>>>>>>>//
  //               DFMP2               //
  //<<<<<<<<<<<<<<<<<<<<<<<<<<<<<<<<<<<//

   => Loading Basis Set <=

    Name: (AUG-CC-PV(Q+D)Z AUX)
    Role: RIFIT
    Keyword: DF_BASIS_MP2
    atoms 1 entry O          line   332 file /work/zw18965/.conda/envs/p4env/share/psi4/basis/aug-cc-pvqz-ri.gbs 
    atoms 2 entry C          line   184 file /work/zw18965/.conda/envs/p4env/share/psi4/basis/aug-cc-pvqz-ri.gbs 

	 --------------------------------------------------------
	                          DF-MP2                         
	      2nd-Order Density-Fitted Moller-Plesset Theory     
	              RMP2 Wavefunction,  24 Threads             
	                                                         
	        Rob Parrish, Justin Turney, Andy Simmonett,      
	           Ed Hohenstein, and C. David Sherrill          
	 --------------------------------------------------------

   => Auxiliary Basis Set <=

  Basis Set: (AUG-CC-PV(Q+D)Z AUX)
    Blend: AUG-CC-PVQZ-RI
    Number of shells: 72
    Number of basis function: 336
    Number of Cartesian functions: 474
    Spherical Harmonics?: true
    Max angular momentum: 5

	 --------------------------------------------------------
	                 NBF =   160, NAUX =   336
	 --------------------------------------------------------
	   CLASS    FOCC     OCC    AOCC    AVIR     VIR    FVIR
	   PAIRS       0       7       7     153     153       0
	 --------------------------------------------------------

  DFHelper Memory: AOs need 0.066 GiB; user supplied 100.583 GiB. Using in-core AOs.


         ------------------------------------------------------------
                                     CPHF                           
                                  Rob Parrish                       
         ------------------------------------------------------------

  ==> Geometry <==

    Molecular point group: c2v
    Full point group: C_inf_v

    Geometry (in Angstrom), charge = 0, multiplicity = 1:

       Center              X                  Y                   Z               Mass       
    ------------   -----------------  -----------------  -----------------  -----------------
         O            0.000000000000     0.000000000000     0.482009685524    15.994914619570
         C            0.000000000000     0.000000000000    -0.642475313814    12.000000000000

  Nuclear repulsion =   22.588568213105230
  Reference energy  = -112.789491659294782

  ==> Basis Set <==

  Basis Set: AUG-CC-PV(Q+D)Z
    Blend: AUG-CC-PV(Q+D)Z
    Number of shells: 40
    Number of basis function: 160
    Number of Cartesian functions: 210
    Spherical Harmonics?: true
    Max angular momentum: 4

  ==> CGRSolver (by Rob Parrish) <==

   Number of roots    =         1
   Preconditioning    =    JACOBI
   Convergence cutoff =     1E-06
   Maximum iterations =       100

  ==> CPHFRHamiltonian (by Rob Parrish) <== 

  ==> MemDFJK: Density-Fitted J/K Matrices <==

    J tasked:                   Yes
    K tasked:                   Yes
    wK tasked:                   No
    OpenMP threads:              24
    Memory [MiB]:            102996
    Algorithm:                 Core
    Schwarz Cutoff:           1E-12
    Mask sparsity (%):       0.0000
    Fitting Condition:        1E-10

   => Auxiliary Basis Set <=

  Basis Set: (AUG-CC-PV(Q+D)Z AUX)
    Blend: AUG-CC-PVQZ-JKFIT
    Number of shells: 68
    Number of basis function: 284
    Number of Cartesian functions: 396
    Spherical Harmonics?: true
    Max angular momentum: 5

  ==> CPHF Iterations <==

  => Iterations <=

             Iter  Converged  Remaining    Residual
  CGR           1          0          1   1.078E-01
  CGR           2          0          1   3.694E-02
  CGR           3          0          1   7.650E-03
  CGR           4          0          1   2.225E-03
  CGR           5          0          1   3.056E-04
  CGR           6          0          1   3.206E-05
  CGR           7          0          1   3.838E-06
  CGR           8          1          0   4.590E-07

    CGRSolver converged.

Problem determining natural orbital and density matrix symmetries.
Future calls to oeprop using this density will not work. Try disabling symmetry.

  ==> DFCorrGrad: Density-Fitted Correlated Gradients <==

    OpenMP threads:             24
    Integrals threads:          24
    Memory [GiB]:          100.583
    Schwarz Cutoff:          0E+00
    Fitting Condition:       1E-10

   => Auxiliary Basis Set <=

  Basis Set: (AUG-CC-PV(Q+D)Z AUX)
    Blend: AUG-CC-PVQZ-JKFIT
    Number of shells: 68
    Number of basis function: 284
    Number of Cartesian functions: 396
    Spherical Harmonics?: true
    Max angular momentum: 5

	-----------------------------------------------------------
	 ==================> DF-MP2 Energies <==================== 
	-----------------------------------------------------------
	 Reference Energy          =    -112.7894916592947823 [Eh]
	 Singles Energy            =      -0.0000000000000000 [Eh]
	 Same-Spin Energy          =      -0.1024909541562923 [Eh]
	 Opposite-Spin Energy      =      -0.3376453934277460 [Eh]
	 Correlation Energy        =      -0.4401363475840382 [Eh]
	 Total Energy              =    -113.2296280068788263 [Eh]
	-----------------------------------------------------------
	 ================> DF-SCS-MP2 Energies <================== 
	-----------------------------------------------------------
	 SCS Same-Spin Scale       =       0.3333333333333333 [-]
	 SCS Opposite-Spin Scale   =       1.2000000000000000 [-]
	 SCS Same-Spin Energy      =      -0.0341636513854308 [Eh]
	 SCS Opposite-Spin Energy  =      -0.4051744721132952 [Eh]
	 SCS Correlation Energy    =      -0.4393381234987259 [Eh]
	 SCS Total Energy          =    -113.2288297827935111 [Eh]
	-----------------------------------------------------------


  -Total Gradient:
     Atom            X                  Y                   Z
    ------   -----------------  -----------------  -----------------
       1        0.000000000000    -0.000000000000    -0.018637568733
       2       -0.000000000000     0.000000000000     0.018637568734


*** tstop() called on bp1-compute00147.data.bp.acrc.priv at Mon Apr 19 16:11:43 2021
Module time:
	user time   =      70.22 seconds =       1.17 minutes
	system time =       9.06 seconds =       0.15 minutes
	total time  =          7 seconds =       0.12 minutes
Total time:
	user time   =      97.72 seconds =       1.63 minutes
	system time =      10.43 seconds =       0.17 minutes
	total time  =          9 seconds =       0.15 minutes

			-----------------------------------------
			 OPTKING 2.0: for geometry optimizations 
			  - R.A. King,  Bethel University        
			-----------------------------------------

	Internal coordinates to be generated automatically.
	Detected frag 1 with atoms:  1 2
	---Fragment 1 Bond Connectivity---
	 1 : 2
	 2 : 1

	---Fragment 1 Geometry and Gradient---
	 O           0.0000000000        0.0000000000        0.9108662955
	 C           0.0000000000        0.0000000000       -1.2141023855
	             0.0000000000       -0.0000000000       -0.0186375687
	            -0.0000000000        0.0000000000        0.0186375687

	Previous optimization step data not found.  Starting new optimization.

	---Fragment 1 Intrafragment Coordinates---
	 - Coordinate -           - BOHR/RAD -       - ANG/DEG -
	 R(1,2)           =         2.124969	       1.124485

	Current energy   :      -113.2296280069

	Generating empirical Hessian (Schlegel '84) for each fragment.
	Taking RFO optimization step.
	Going to follow RFO solution 1.
	Using RFO vector 1.
	Norm of target step-size    0.01209
	Projected energy change by RFO approximation:        -0.0001522057

	Back-transformation to cartesian coordinates...
	Successfully converged to displaced geometry.

	--- Internal Coordinate Step in ANG or DEG, aJ/ANG or AJ/DEG ---
	 ---------------------------------------------------------------------------
	   Coordinate                Previous        Force       Change         New 
	   ----------                --------       ------       ------       ------
	    1 R(1,2)          =      1.124485     0.153550     0.006396     1.130881
	 ---------------------------------------------------------------------------
	Successfully symmetrized geometry.

  ==> Convergence Check <==

  Measures of convergence in internal coordinates in au.
  Criteria marked as inactive (o), active & met (*), and active & unmet ( ).
  --------------------------------------------------------------------------------------------- ~
   Step     Total Energy     Delta E     MAX Force     RMS Force      MAX Disp      RMS Disp    ~
  --------------------------------------------------------------------------------------------- ~
    Convergence Criteria    1.00e-06 *    3.00e-04 *             o    1.20e-03 *             o  ~
  --------------------------------------------------------------------------------------------- ~
      1    -113.22962801   -1.13e+02      1.86e-02      1.86e-02 o    1.21e-02      1.21e-02 o  ~
  ---------------------------------------------------------------------------------------------

	Writing optimization data to binary file.
	Structure for next step:
	Cartesian Geometry (in Angstrom)
	    O     0.0000000000   0.0000000000   0.4852079058
	    C     0.0000000000   0.0000000000  -0.6456735334
			--------------------------
			 OPTKING Finished Execution 
			--------------------------

    Structure for next step:
    Molecular point group: c2v
    Full point group: C_inf_v

    Geometry (in Angstrom), charge = 0, multiplicity = 1:

    O            0.000000000000     0.000000000000     0.484751516758
    C            0.000000000000     0.000000000000    -0.646129926854

gradient() will perform analytic gradient computation.
    SCF Algorithm Type (re)set to DF.

*** tstart() called on bp1-compute00147.data.bp.acrc.priv
*** at Mon Apr 19 16:11:43 2021

   => Loading Basis Set <=

    Name: AUG-CC-PV(Q+D)Z
    Role: ORBITAL
    Keyword: BASIS
    atoms 1 entry O          line   439 file /work/zw18965/.conda/envs/p4env/share/psi4/basis/aug-cc-pv_qpd_z.gbs 
    atoms 2 entry C          line   319 file /work/zw18965/.conda/envs/p4env/share/psi4/basis/aug-cc-pv_qpd_z.gbs 


         ---------------------------------------------------------
                                   SCF
               by Justin Turney, Rob Parrish, Andy Simmonett
                          and Daniel G. A. Smith
                              RHF Reference
                       24 Threads, 137329 MiB Core
         ---------------------------------------------------------

  ==> Geometry <==

    Molecular point group: c2v
    Full point group: C_inf_v

    Geometry (in Angstrom), charge = 0, multiplicity = 1:

       Center              X                  Y                   Z               Mass       
    ------------   -----------------  -----------------  -----------------  -----------------
         O            0.000000000000     0.000000000000     0.484751516758    15.994914619570
         C            0.000000000000     0.000000000000    -0.646129926854    12.000000000000

  Running in c2v symmetry.

  Rotational constants: A = ************  B =      1.92255  C =      1.92255 [cm^-1]
  Rotational constants: A = ************  B =  57636.68824  C =  57636.68824 [MHz]
  Nuclear repulsion =   22.460803699297827

  Charge       = 0
  Multiplicity = 1
  Electrons    = 14
  Nalpha       = 7
  Nbeta        = 7

  ==> Algorithm <==

  SCF Algorithm Type is DF.
  DIIS enabled.
  MOM disabled.
  Fractional occupation disabled.
  Guess Type is READ.
  Energy threshold   = 1.00e-10
  Density threshold  = 1.00e-10
  Integral threshold = 0.00e+00

  ==> Primary Basis <==

  Basis Set: AUG-CC-PV(Q+D)Z
    Blend: AUG-CC-PV(Q+D)Z
    Number of shells: 40
    Number of basis function: 160
    Number of Cartesian functions: 210
    Spherical Harmonics?: true
    Max angular momentum: 4

   => Loading Basis Set <=

    Name: (AUG-CC-PV(Q+D)Z AUX)
    Role: JKFIT
    Keyword: DF_BASIS_SCF
    atoms 1 entry O          line   318 file /work/zw18965/.conda/envs/p4env/share/psi4/basis/aug-cc-pvqz-jkfit.gbs 
    atoms 2 entry C          line   178 file /work/zw18965/.conda/envs/p4env/share/psi4/basis/aug-cc-pvqz-jkfit.gbs 

   => Loading Basis Set <=

    Name: AUG-CC-PV(Q+D)Z
    Role: ORBITAL
    Keyword: BASIS
    atoms 1 entry O          line   439 file /work/zw18965/.conda/envs/p4env/share/psi4/basis/aug-cc-pv_qpd_z.gbs 
    atoms 2 entry C          line   319 file /work/zw18965/.conda/envs/p4env/share/psi4/basis/aug-cc-pv_qpd_z.gbs 

  Reading orbitals from file 180, no projection.

  ==> Pre-Iterations <==

   -------------------------------------------------------
    Irrep   Nso     Nmo     Nalpha   Nbeta   Ndocc  Nsocc
   -------------------------------------------------------
     A1        62      62       0       0       0       0
     A2        22      22       0       0       0       0
     B1        38      38       0       0       0       0
     B2        38      38       0       0       0       0
   -------------------------------------------------------
    Total     160     160       7       7       7       0
   -------------------------------------------------------

  ==> Integral Setup <==

  DFHelper Memory: AOs need 0.066 GiB; user supplied 100.583 GiB. Using in-core AOs.

  ==> MemDFJK: Density-Fitted J/K Matrices <==

    J tasked:                   Yes
    K tasked:                   Yes
    wK tasked:                   No
    OpenMP threads:              24
    Memory [MiB]:            102996
    Algorithm:                 Core
    Schwarz Cutoff:           1E-12
    Mask sparsity (%):       0.0000
    Fitting Condition:        1E-10

   => Auxiliary Basis Set <=

  Basis Set: (AUG-CC-PV(Q+D)Z AUX)
    Blend: AUG-CC-PVQZ-JKFIT
    Number of shells: 68
    Number of basis function: 284
    Number of Cartesian functions: 396
    Spherical Harmonics?: true
    Max angular momentum: 5

  Minimum eigenvalue in the overlap matrix is 9.9123541492E-05.
  Using Symmetric Orthogonalization.

  SCF Guess: Orbitals guess was supplied from a previous computation.

  ==> Iterations <==

                           Total Energy        Delta E     RMS |[F,P]|

   @DF-RHF iter   0:  -112.78267934639030   -1.12783e+02   3.41126e-04 
   @DF-RHF iter   1:  -112.78866905706103   -5.98971e-03   2.83145e-05 DIIS
   @DF-RHF iter   2:  -112.78867105482173   -1.99776e-06   1.82570e-05 DIIS
   @DF-RHF iter   3:  -112.78867180509269   -7.50271e-07   4.61509e-06 DIIS
   @DF-RHF iter   4:  -112.78867187139616   -6.63035e-08   8.58926e-07 DIIS
   @DF-RHF iter   5:  -112.78867187664879   -5.25263e-09   3.83459e-07 DIIS
   @DF-RHF iter   6:  -112.78867187726848   -6.19693e-10   6.35909e-08 DIIS
   @DF-RHF iter   7:  -112.78867187729425   -2.57643e-11   9.24499e-09 DIIS
   @DF-RHF iter   8:  -112.78867187729483   -5.82645e-13   8.13673e-10 DIIS
   @DF-RHF iter   9:  -112.78867187729463    1.98952e-13   1.68534e-10 DIIS
   @DF-RHF iter  10:  -112.78867187729458    5.68434e-14   1.59209e-11 DIIS
  Energy and wave function converged.


  ==> Post-Iterations <==

    Orbital Energies [Eh]
    ---------------------

    Doubly Occupied:                                                      

       1A1   -20.665444     2A1   -11.361628     3A1    -1.519982  
       4A1    -0.804395     1B1    -0.639219     1B2    -0.639219  
       5A1    -0.555227  

    Virtual:                                                              

       6A1     0.060190     2B2     0.062697     2B1     0.062697  
       7A1     0.074666     3B1     0.140556     3B2     0.140556  
       8A1     0.156528     4B1     0.166750     4B2     0.166750  
       1A2     0.227917     9A1     0.227917    10A1     0.228178  
      11A1     0.302081     5B1     0.320504     5B2     0.320504  
      12A1     0.392526     6B1     0.396137     6B2     0.396137  
      13A1     0.509617    14A1     0.534813     2A2     0.534813  
       7B1     0.623610     7B2     0.623610    15A1     0.645884  
       8B1     0.748769     8B2     0.748769     3A2     0.768560  
      16A1     0.768560    17A1     0.782985     9B1     0.823859  
       9B2     0.823859    18A1     0.874048    10B1     0.881819  
      10B2     0.881819    19A1     0.891076     4A2     0.891076  
      20A1     0.912292    11B1     1.078666    11B2     1.078666  
      21A1     1.196322    12B1     1.447574    12B2     1.447574  
      22A1     1.487619    23A1     1.518229     5A2     1.518229  
      13B1     1.554641    13B2     1.554641    24A1     1.669480  
       6A2     1.769293    25A1     1.769293    26A1     1.785035  
      14B1     1.811362    14B2     1.811362    15B1     1.974625  
      15B2     1.974625    27A1     2.105852     7A2     2.105852  
      28A1     2.172179    29A1     2.200170     8A2     2.200170  
      16B1     2.251907    16B2     2.251907    30A1     2.318894  
      17B1     2.326897    17B2     2.326897    18B2     2.362567  
      18B1     2.362567     9A2     2.364483    31A1     2.364483  
      32A1     2.503348    19B1     2.612565    19B2     2.612565  
      20B1     2.830565    20B2     2.830565    33A1     2.974896  
      10A2     3.008758    34A1     3.008758    35A1     3.519011  
      36A1     3.723826    11A2     3.723826    21B1     3.781138  
      21B2     3.781138    37A1     4.009536    22B2     4.083766  
      22B1     4.083766    12A2     4.181669    38A1     4.181669  
      23B1     4.213204    23B2     4.213204    24B2     4.282065  
      24B1     4.282065    39A1     4.332538    13A2     4.391822  
      40A1     4.391822    41A1     4.562415    25B1     4.785819  
      25B2     4.785819    14A2     5.155522    42A1     5.155522  
      43A1     5.164280    26B1     5.173311    26B2     5.173311  
      44A1     5.902378    15A2     5.902378    45A1     5.934310  
      27B2     6.136230    27B1     6.136230    28B1     6.252765  
      28B2     6.252765    46A1     6.308823    16A2     6.308823  
      29B1     6.350123    29B2     6.350123    47A1     6.422746  
      30B2     6.445462    30B1     6.445462    48A1     6.598084  
      17A2     6.598084    49A1     7.249970    50A1     7.346164  
      18A2     7.346164    31B1     7.505789    31B2     7.505789  
      51A1     8.265576    52A1     8.571191    32B1     8.640829  
      32B2     8.640829    53A1    10.605681    19A2    10.605681  
      33B2    10.884846    33B1    10.884846    20A2    11.139253  
      54A1    11.139253    34B1    11.144704    34B2    11.144704  
      55A1    11.380015    35B1    11.399636    35B2    11.399636  
      36B2    11.860881    36B1    11.860881    56A1    12.068202  
      57A1    12.297682    21A2    12.297682    37B1    12.756968  
      37B2    12.756968    22A2    12.920103    58A1    12.920103  
      59A1    13.832174    38B1    14.220717    38B2    14.220717  
      60A1    14.555803    61A1    25.090163    62A1    43.274736  

    Final Occupation by Irrep:
             A1    A2    B1    B2 
    DOCC [     5,    0,    1,    1 ]

  @DF-RHF Final Energy:  -112.78867187729458

   => Energetics <=

    Nuclear Repulsion Energy =             22.4608036992978271
    One-Electron Energy =                -198.1287231563109970
    Two-Electron Energy =                  62.8792475797185872
    Total Energy =                       -112.7886718772945756

Computation Completed


Properties will be evaluated at   0.000000,   0.000000,   0.000000 [a0]

Properties computed using the SCF density matrix

  Nuclear Dipole Moment: [e a0]
     X:     0.0000      Y:     0.0000      Z:     0.0023

  Electronic Dipole Moment: [e a0]
     X:     0.0000      Y:     0.0000      Z:    -0.1119

  Dipole Moment: [e a0]
     X:     0.0000      Y:     0.0000      Z:    -0.1096     Total:     0.1096

  Dipole Moment: [D]
     X:     0.0000      Y:     0.0000      Z:    -0.2785     Total:     0.2785


*** tstop() called on bp1-compute00147.data.bp.acrc.priv at Mon Apr 19 16:11:43 2021
Module time:
	user time   =      16.10 seconds =       0.27 minutes
	system time =       0.66 seconds =       0.01 minutes
	total time  =          0 seconds =       0.00 minutes
Total time:
	user time   =     114.22 seconds =       1.90 minutes
	system time =      11.11 seconds =       0.19 minutes
	total time  =          9 seconds =       0.15 minutes

*** tstart() called on bp1-compute00147.data.bp.acrc.priv
*** at Mon Apr 19 16:11:43 2021


  //>>>>>>>>>>>>>>>>>>>>>>>>>>>>>>>>>>>//
  //               DFMP2               //
  //<<<<<<<<<<<<<<<<<<<<<<<<<<<<<<<<<<<//

   => Loading Basis Set <=

    Name: (AUG-CC-PV(Q+D)Z AUX)
    Role: RIFIT
    Keyword: DF_BASIS_MP2
    atoms 1 entry O          line   332 file /work/zw18965/.conda/envs/p4env/share/psi4/basis/aug-cc-pvqz-ri.gbs 
    atoms 2 entry C          line   184 file /work/zw18965/.conda/envs/p4env/share/psi4/basis/aug-cc-pvqz-ri.gbs 

	 --------------------------------------------------------
	                          DF-MP2                         
	      2nd-Order Density-Fitted Moller-Plesset Theory     
	              RMP2 Wavefunction,  24 Threads             
	                                                         
	        Rob Parrish, Justin Turney, Andy Simmonett,      
	           Ed Hohenstein, and C. David Sherrill          
	 --------------------------------------------------------

   => Auxiliary Basis Set <=

  Basis Set: (AUG-CC-PV(Q+D)Z AUX)
    Blend: AUG-CC-PVQZ-RI
    Number of shells: 72
    Number of basis function: 336
    Number of Cartesian functions: 474
    Spherical Harmonics?: true
    Max angular momentum: 5

	 --------------------------------------------------------
	                 NBF =   160, NAUX =   336
	 --------------------------------------------------------
	   CLASS    FOCC     OCC    AOCC    AVIR     VIR    FVIR
	   PAIRS       0       7       7     153     153       0
	 --------------------------------------------------------

  DFHelper Memory: AOs need 0.066 GiB; user supplied 100.583 GiB. Using in-core AOs.


         ------------------------------------------------------------
                                     CPHF                           
                                  Rob Parrish                       
         ------------------------------------------------------------

  ==> Geometry <==

    Molecular point group: c2v
    Full point group: C_inf_v

    Geometry (in Angstrom), charge = 0, multiplicity = 1:

       Center              X                  Y                   Z               Mass       
    ------------   -----------------  -----------------  -----------------  -----------------
         O            0.000000000000     0.000000000000     0.484751516758    15.994914619570
         C            0.000000000000     0.000000000000    -0.646129926854    12.000000000000

  Nuclear repulsion =   22.460803699297827
  Reference energy  = -112.788671877294576

  ==> Basis Set <==

  Basis Set: AUG-CC-PV(Q+D)Z
    Blend: AUG-CC-PV(Q+D)Z
    Number of shells: 40
    Number of basis function: 160
    Number of Cartesian functions: 210
    Spherical Harmonics?: true
    Max angular momentum: 4

  ==> CGRSolver (by Rob Parrish) <==

   Number of roots    =         1
   Preconditioning    =    JACOBI
   Convergence cutoff =     1E-06
   Maximum iterations =       100

  ==> CPHFRHamiltonian (by Rob Parrish) <== 

  ==> MemDFJK: Density-Fitted J/K Matrices <==

    J tasked:                   Yes
    K tasked:                   Yes
    wK tasked:                   No
    OpenMP threads:              24
    Memory [MiB]:            102996
    Algorithm:                 Core
    Schwarz Cutoff:           1E-12
    Mask sparsity (%):       0.0000
    Fitting Condition:        1E-10

   => Auxiliary Basis Set <=

  Basis Set: (AUG-CC-PV(Q+D)Z AUX)
    Blend: AUG-CC-PVQZ-JKFIT
    Number of shells: 68
    Number of basis function: 284
    Number of Cartesian functions: 396
    Spherical Harmonics?: true
    Max angular momentum: 5

  ==> CPHF Iterations <==

  => Iterations <=

             Iter  Converged  Remaining    Residual
  CGR           1          0          1   1.098E-01
  CGR           2          0          1   3.776E-02
  CGR           3          0          1   7.873E-03
  CGR           4          0          1   2.301E-03
  CGR           5          0          1   3.153E-04
  CGR           6          0          1   3.298E-05
  CGR           7          0          1   3.968E-06
  CGR           8          1          0   4.732E-07

    CGRSolver converged.

  ==> DFCorrGrad: Density-Fitted Correlated Gradients <==

    OpenMP threads:             24
    Integrals threads:          24
    Memory [GiB]:          100.583
    Schwarz Cutoff:          0E+00
    Fitting Condition:       1E-10

   => Auxiliary Basis Set <=

  Basis Set: (AUG-CC-PV(Q+D)Z AUX)
    Blend: AUG-CC-PVQZ-JKFIT
    Number of shells: 68
    Number of basis function: 284
    Number of Cartesian functions: 396
    Spherical Harmonics?: true
    Max angular momentum: 5

	-----------------------------------------------------------
	 ==================> DF-MP2 Energies <==================== 
	-----------------------------------------------------------
	 Reference Energy          =    -112.7886718772945756 [Eh]
	 Singles Energy            =      -0.0000000000000000 [Eh]
	 Same-Spin Energy          =      -0.1027726806286240 [Eh]
	 Opposite-Spin Energy      =      -0.3383183559681711 [Eh]
	 Correlation Energy        =      -0.4410910365967951 [Eh]
	 Total Energy              =    -113.2297629138913777 [Eh]
	-----------------------------------------------------------
	 ================> DF-SCS-MP2 Energies <================== 
	-----------------------------------------------------------
	 SCS Same-Spin Scale       =       0.3333333333333333 [-]
	 SCS Opposite-Spin Scale   =       1.2000000000000000 [-]
	 SCS Same-Spin Energy      =      -0.0342575602095413 [Eh]
	 SCS Opposite-Spin Energy  =      -0.4059820271618053 [Eh]
	 SCS Correlation Energy    =      -0.4402395873713466 [Eh]
	 SCS Total Energy          =    -113.2289114646659272 [Eh]
	-----------------------------------------------------------


  -Total Gradient:
     Atom            X                  Y                   Z
    ------   -----------------  -----------------  -----------------
       1       -0.000000000000     0.000000000000    -0.003796929582
       2        0.000000000000     0.000000000000     0.003796929582


*** tstop() called on bp1-compute00147.data.bp.acrc.priv at Mon Apr 19 16:11:50 2021
Module time:
	user time   =      68.67 seconds =       1.14 minutes
	system time =       3.79 seconds =       0.06 minutes
	total time  =          7 seconds =       0.12 minutes
Total time:
	user time   =     182.90 seconds =       3.05 minutes
	system time =      14.90 seconds =       0.25 minutes
	total time  =         16 seconds =       0.27 minutes

			-----------------------------------------
			 OPTKING 2.0: for geometry optimizations 
			  - R.A. King,  Bethel University        
			-----------------------------------------

	Previous internal coordinate definitions found.
	---Fragment 1 Geometry and Gradient---
	 O           0.0000000000        0.0000000000        0.9160476056
	 C           0.0000000000        0.0000000000       -1.2210086032
	            -0.0000000000        0.0000000000       -0.0037969296
	             0.0000000000        0.0000000000        0.0037969296

	---Fragment 1 Intrafragment Coordinates---
	 - Coordinate -           - BOHR/RAD -       - ANG/DEG -
	 R(1,2)           =         2.137056	       1.130881

	Current energy   :      -113.2297629139

	Energy change for the previous step:
		Projected    :        -0.0001522057
		Actual       :        -0.0001349070
	Energy ratio indicates good step: Trust radius increased to 1.000e+00.


	Performing BFGS update.
	Previous computed or guess Hessian on step 1.
	Steps to be used in Hessian update: 1
	Taking RFO optimization step.
	Going to follow RFO solution 1.
	Using RFO vector 1.
	Norm of target step-size    0.00309
	Projected energy change by RFO approximation:        -0.0000069602

	Back-transformation to cartesian coordinates...
	Successfully converged to displaced geometry.

	--- Internal Coordinate Step in ANG or DEG, aJ/ANG or AJ/DEG ---
	 ---------------------------------------------------------------------------
	   Coordinate                Previous        Force       Change         New 
	   ----------                --------       ------       ------       ------
	    1 R(1,2)          =      1.130881     0.031282     0.001636     1.132518
	 ---------------------------------------------------------------------------
	Successfully symmetrized geometry.

  ==> Convergence Check <==

  Measures of convergence in internal coordinates in au.
  Criteria marked as inactive (o), active & met (*), and active & unmet ( ).
  ---------------------------------------------------------------------------------------------
   Step     Total Energy     Delta E     MAX Force     RMS Force      MAX Disp      RMS Disp   
  ---------------------------------------------------------------------------------------------
    Convergence Criteria    1.00e-06 *    3.00e-04 *             o    1.20e-03 *             o
  ---------------------------------------------------------------------------------------------
      2    -113.22976291   -1.35e-04      3.80e-03      3.80e-03 o    3.09e-03      3.09e-03 o  ~
  ---------------------------------------------------------------------------------------------

	Writing optimization data to binary file.
	Structure for next step:
	Cartesian Geometry (in Angstrom)
	    O     0.0000000000   0.0000000000   0.4855697618
	    C     0.0000000000   0.0000000000  -0.6469481713
			--------------------------
			 OPTKING Finished Execution 
			--------------------------

    Structure for next step:
    Molecular point group: c2v
    Full point group: C_inf_v

    Geometry (in Angstrom), charge = 0, multiplicity = 1:

    O            0.000000000000     0.000000000000     0.485452998713
    C            0.000000000000     0.000000000000    -0.647064938852

gradient() will perform analytic gradient computation.
    SCF Algorithm Type (re)set to DF.

*** tstart() called on bp1-compute00147.data.bp.acrc.priv
*** at Mon Apr 19 16:11:50 2021

   => Loading Basis Set <=

    Name: AUG-CC-PV(Q+D)Z
    Role: ORBITAL
    Keyword: BASIS
    atoms 1 entry O          line   439 file /work/zw18965/.conda/envs/p4env/share/psi4/basis/aug-cc-pv_qpd_z.gbs 
    atoms 2 entry C          line   319 file /work/zw18965/.conda/envs/p4env/share/psi4/basis/aug-cc-pv_qpd_z.gbs 


         ---------------------------------------------------------
                                   SCF
               by Justin Turney, Rob Parrish, Andy Simmonett
                          and Daniel G. A. Smith
                              RHF Reference
                       24 Threads, 137329 MiB Core
         ---------------------------------------------------------

  ==> Geometry <==

    Molecular point group: c2v
    Full point group: C_inf_v

    Geometry (in Angstrom), charge = 0, multiplicity = 1:

       Center              X                  Y                   Z               Mass       
    ------------   -----------------  -----------------  -----------------  -----------------
         O            0.000000000000     0.000000000000     0.485452998713    15.994914619570
         C            0.000000000000     0.000000000000    -0.647064938852    12.000000000000

  Running in c2v symmetry.

  Rotational constants: A = ************  B =      1.91700  C =      1.91700 [cm^-1]
  Rotational constants: A = ************  B =  57470.23800  C =  57470.23800 [MHz]
  Nuclear repulsion =   22.428347728234229

  Charge       = 0
  Multiplicity = 1
  Electrons    = 14
  Nalpha       = 7
  Nbeta        = 7

  ==> Algorithm <==

  SCF Algorithm Type is DF.
  DIIS enabled.
  MOM disabled.
  Fractional occupation disabled.
  Guess Type is READ.
  Energy threshold   = 1.00e-10
  Density threshold  = 1.00e-10
  Integral threshold = 0.00e+00

  ==> Primary Basis <==

  Basis Set: AUG-CC-PV(Q+D)Z
    Blend: AUG-CC-PV(Q+D)Z
    Number of shells: 40
    Number of basis function: 160
    Number of Cartesian functions: 210
    Spherical Harmonics?: true
    Max angular momentum: 4

   => Loading Basis Set <=

    Name: (AUG-CC-PV(Q+D)Z AUX)
    Role: JKFIT
    Keyword: DF_BASIS_SCF
    atoms 1 entry O          line   318 file /work/zw18965/.conda/envs/p4env/share/psi4/basis/aug-cc-pvqz-jkfit.gbs 
    atoms 2 entry C          line   178 file /work/zw18965/.conda/envs/p4env/share/psi4/basis/aug-cc-pvqz-jkfit.gbs 

   => Loading Basis Set <=

    Name: AUG-CC-PV(Q+D)Z
    Role: ORBITAL
    Keyword: BASIS
    atoms 1 entry O          line   439 file /work/zw18965/.conda/envs/p4env/share/psi4/basis/aug-cc-pv_qpd_z.gbs 
    atoms 2 entry C          line   319 file /work/zw18965/.conda/envs/p4env/share/psi4/basis/aug-cc-pv_qpd_z.gbs 

  Reading orbitals from file 180, no projection.

  ==> Pre-Iterations <==

   -------------------------------------------------------
    Irrep   Nso     Nmo     Nalpha   Nbeta   Ndocc  Nsocc
   -------------------------------------------------------
     A1        62      62       0       0       0       0
     A2        22      22       0       0       0       0
     B1        38      38       0       0       0       0
     B2        38      38       0       0       0       0
   -------------------------------------------------------
    Total     160     160       7       7       7       0
   -------------------------------------------------------

  ==> Integral Setup <==

  DFHelper Memory: AOs need 0.066 GiB; user supplied 100.583 GiB. Using in-core AOs.

  ==> MemDFJK: Density-Fitted J/K Matrices <==

    J tasked:                   Yes
    K tasked:                   Yes
    wK tasked:                   No
    OpenMP threads:              24
    Memory [MiB]:            102996
    Algorithm:                 Core
    Schwarz Cutoff:           1E-12
    Mask sparsity (%):       0.0000
    Fitting Condition:        1E-10

   => Auxiliary Basis Set <=

  Basis Set: (AUG-CC-PV(Q+D)Z AUX)
    Blend: AUG-CC-PVQZ-JKFIT
    Number of shells: 68
    Number of basis function: 284
    Number of Cartesian functions: 396
    Spherical Harmonics?: true
    Max angular momentum: 5

  Minimum eigenvalue in the overlap matrix is 9.9445245756E-05.
  Using Symmetric Orthogonalization.

  SCF Guess: Orbitals guess was supplied from a previous computation.

  ==> Iterations <==

                           Total Energy        Delta E     RMS |[F,P]|

   @DF-RHF iter   0:  -112.78689065292383   -1.12787e+02   8.64637e-05 
   @DF-RHF iter   1:  -112.78843222310618   -1.54157e-03   7.25083e-06 DIIS
   @DF-RHF iter   2:  -112.78843235420725   -1.31101e-07   4.68799e-06 DIIS
   @DF-RHF iter   3:  -112.78843240373220   -4.95250e-08   1.18278e-06 DIIS
   @DF-RHF iter   4:  -112.78843240809763   -4.36543e-09   2.21752e-07 DIIS
   @DF-RHF iter   5:  -112.78843240844840   -3.50767e-10   9.92629e-08 DIIS
   @DF-RHF iter   6:  -112.78843240848981   -4.14104e-11   1.63671e-08 DIIS
   @DF-RHF iter   7:  -112.78843240849146   -1.64846e-12   2.36989e-09 DIIS
   @DF-RHF iter   8:  -112.78843240849162   -1.56319e-13   2.07418e-10 DIIS
   @DF-RHF iter   9:  -112.78843240849147    1.42109e-13   4.31545e-11 DIIS
  Energy and wave function converged.


  ==> Post-Iterations <==

    Orbital Energies [Eh]
    ---------------------

    Doubly Occupied:                                                      

       1A1   -20.665503     2A1   -11.362370     3A1    -1.518850  
       4A1    -0.804253     1B2    -0.638508     1B1    -0.638508  
       5A1    -0.555415  

    Virtual:                                                              

       6A1     0.060219     2B2     0.062643     2B1     0.062643  
       7A1     0.074636     3B1     0.140166     3B2     0.140166  
       8A1     0.156532     4B1     0.166698     4B2     0.166698  
       9A1     0.227913     1A2     0.227913    10A1     0.228188  
      11A1     0.302063     5B1     0.320329     5B2     0.320329  
      12A1     0.392463     6B1     0.396108     6B2     0.396108  
      13A1     0.509627     2A2     0.534921    14A1     0.534921  
       7B1     0.623663     7B2     0.623663    15A1     0.645420  
       8B2     0.748737     8B1     0.748737    16A1     0.768499  
       3A2     0.768499    17A1     0.782918     9B1     0.823651  
       9B2     0.823651    18A1     0.873965    10B1     0.881937  
      10B2     0.881937     4A2     0.890968    19A1     0.890968  
      20A1     0.911467    11B1     1.078283    11B2     1.078283  
      21A1     1.195090    12B2     1.447454    12B1     1.447454  
      22A1     1.486944     5A2     1.518484    23A1     1.518484  
      13B1     1.554909    13B2     1.554909    24A1     1.669506  
       6A2     1.769093    25A1     1.769093    26A1     1.785466  
      14B1     1.810055    14B2     1.810055    15B1     1.975363  
      15B2     1.975363    27A1     2.105742     7A2     2.105742  
      28A1     2.171344    29A1     2.199847     8A2     2.199847  
      16B1     2.251769    16B2     2.251769    30A1     2.318696  
      17B2     2.326556    17B1     2.326556    18B1     2.361961  
      18B2     2.361961    31A1     2.364225     9A2     2.364225  
      32A1     2.503046    19B1     2.612182    19B2     2.612182  
      20B2     2.829022    20B1     2.829022    33A1     2.972438  
      34A1     3.007359    10A2     3.007359    35A1     3.519249  
      11A2     3.723528    36A1     3.723528    21B2     3.780574  
      21B1     3.780574    37A1     4.008845    22B2     4.083911  
      22B1     4.083911    38A1     4.181776    12A2     4.181776  
      23B1     4.213134    23B2     4.213134    24B1     4.280290  
      24B2     4.280290    39A1     4.332276    40A1     4.391077  
      13A2     4.391077    41A1     4.559387    25B2     4.786423  
      25B1     4.786423    42A1     5.154553    14A2     5.154553  
      43A1     5.167008    26B2     5.170592    26B1     5.170592  
      44A1     5.902124    15A2     5.902124    45A1     5.928027  
      27B2     6.134621    27B1     6.134621    28B1     6.251534  
      28B2     6.251534    16A2     6.308328    46A1     6.308328  
      29B2     6.349024    29B1     6.349024    47A1     6.423563  
      30B2     6.445138    30B1     6.445138    48A1     6.597178  
      17A2     6.597178    49A1     7.243248    50A1     7.339863  
      18A2     7.339863    31B2     7.501981    31B1     7.501981  
      51A1     8.259397    52A1     8.572398    32B2     8.634828  
      32B1     8.634828    19A2    10.605749    53A1    10.605749  
      33B1    10.883706    33B2    10.883706    20A2    11.137705  
      54A1    11.137705    34B2    11.144339    34B1    11.144339  
      55A1    11.379508    35B2    11.398677    35B1    11.398677  
      36B1    11.860864    36B2    11.860864    56A1    12.065381  
      57A1    12.295976    21A2    12.295976    37B2    12.754081  
      37B1    12.754081    58A1    12.918914    22A2    12.918914  
      59A1    13.823369    38B2    14.211640    38B1    14.211640  
      60A1    14.553406    61A1    25.069296    62A1    43.266783  

    Final Occupation by Irrep:
             A1    A2    B1    B2 
    DOCC [     5,    0,    1,    1 ]

  @DF-RHF Final Energy:  -112.78843240849147

   => Energetics <=

    Nuclear Repulsion Energy =             22.4283477282342290
    One-Electron Energy =                -198.0667457340647104
    Two-Electron Energy =                  62.8499655973390148
    Total Energy =                       -112.7884324084914738

Computation Completed


Properties will be evaluated at   0.000000,   0.000000,   0.000000 [a0]

Properties computed using the SCF density matrix

  Nuclear Dipole Moment: [e a0]
     X:     0.0000      Y:     0.0000      Z:     0.0023

  Electronic Dipole Moment: [e a0]
     X:     0.0000      Y:     0.0000      Z:    -0.1151

  Dipole Moment: [e a0]
     X:     0.0000      Y:     0.0000      Z:    -0.1127     Total:     0.1127

  Dipole Moment: [D]
     X:     0.0000      Y:     0.0000      Z:    -0.2866     Total:     0.2866


*** tstop() called on bp1-compute00147.data.bp.acrc.priv at Mon Apr 19 16:11:51 2021
Module time:
	user time   =      16.48 seconds =       0.27 minutes
	system time =       0.71 seconds =       0.01 minutes
	total time  =          1 seconds =       0.02 minutes
Total time:
	user time   =     200.06 seconds =       3.33 minutes
	system time =      15.64 seconds =       0.26 minutes
	total time  =         17 seconds =       0.28 minutes

*** tstart() called on bp1-compute00147.data.bp.acrc.priv
*** at Mon Apr 19 16:11:51 2021


  //>>>>>>>>>>>>>>>>>>>>>>>>>>>>>>>>>>>//
  //               DFMP2               //
  //<<<<<<<<<<<<<<<<<<<<<<<<<<<<<<<<<<<//

   => Loading Basis Set <=

    Name: (AUG-CC-PV(Q+D)Z AUX)
    Role: RIFIT
    Keyword: DF_BASIS_MP2
    atoms 1 entry O          line   332 file /work/zw18965/.conda/envs/p4env/share/psi4/basis/aug-cc-pvqz-ri.gbs 
    atoms 2 entry C          line   184 file /work/zw18965/.conda/envs/p4env/share/psi4/basis/aug-cc-pvqz-ri.gbs 

	 --------------------------------------------------------
	                          DF-MP2                         
	      2nd-Order Density-Fitted Moller-Plesset Theory     
	              RMP2 Wavefunction,  24 Threads             
	                                                         
	        Rob Parrish, Justin Turney, Andy Simmonett,      
	           Ed Hohenstein, and C. David Sherrill          
	 --------------------------------------------------------

   => Auxiliary Basis Set <=

  Basis Set: (AUG-CC-PV(Q+D)Z AUX)
    Blend: AUG-CC-PVQZ-RI
    Number of shells: 72
    Number of basis function: 336
    Number of Cartesian functions: 474
    Spherical Harmonics?: true
    Max angular momentum: 5

	 --------------------------------------------------------
	                 NBF =   160, NAUX =   336
	 --------------------------------------------------------
	   CLASS    FOCC     OCC    AOCC    AVIR     VIR    FVIR
	   PAIRS       0       7       7     153     153       0
	 --------------------------------------------------------

  DFHelper Memory: AOs need 0.066 GiB; user supplied 100.583 GiB. Using in-core AOs.


         ------------------------------------------------------------
                                     CPHF                           
                                  Rob Parrish                       
         ------------------------------------------------------------

  ==> Geometry <==

    Molecular point group: c2v
    Full point group: C_inf_v

    Geometry (in Angstrom), charge = 0, multiplicity = 1:

       Center              X                  Y                   Z               Mass       
    ------------   -----------------  -----------------  -----------------  -----------------
         O            0.000000000000     0.000000000000     0.485452998713    15.994914619570
         C            0.000000000000     0.000000000000    -0.647064938852    12.000000000000

  Nuclear repulsion =   22.428347728234229
  Reference energy  = -112.788432408491474

  ==> Basis Set <==

  Basis Set: AUG-CC-PV(Q+D)Z
    Blend: AUG-CC-PV(Q+D)Z
    Number of shells: 40
    Number of basis function: 160
    Number of Cartesian functions: 210
    Spherical Harmonics?: true
    Max angular momentum: 4

  ==> CGRSolver (by Rob Parrish) <==

   Number of roots    =         1
   Preconditioning    =    JACOBI
   Convergence cutoff =     1E-06
   Maximum iterations =       100

  ==> CPHFRHamiltonian (by Rob Parrish) <== 

  ==> MemDFJK: Density-Fitted J/K Matrices <==

    J tasked:                   Yes
    K tasked:                   Yes
    wK tasked:                   No
    OpenMP threads:              24
    Memory [MiB]:            102996
    Algorithm:                 Core
    Schwarz Cutoff:           1E-12
    Mask sparsity (%):       0.0000
    Fitting Condition:        1E-10

   => Auxiliary Basis Set <=

  Basis Set: (AUG-CC-PV(Q+D)Z AUX)
    Blend: AUG-CC-PVQZ-JKFIT
    Number of shells: 68
    Number of basis function: 284
    Number of Cartesian functions: 396
    Spherical Harmonics?: true
    Max angular momentum: 5

  ==> CPHF Iterations <==

  => Iterations <=

             Iter  Converged  Remaining    Residual
  CGR           1          0          1   1.103E-01
  CGR           2          0          1   3.797E-02
  CGR           3          0          1   7.932E-03
  CGR           4          0          1   2.321E-03
  CGR           5          0          1   3.179E-04
  CGR           6          0          1   3.321E-05
  CGR           7          0          1   4.001E-06
  CGR           8          1          0   4.769E-07

    CGRSolver converged.

  ==> DFCorrGrad: Density-Fitted Correlated Gradients <==

    OpenMP threads:             24
    Integrals threads:          24
    Memory [GiB]:          100.583
    Schwarz Cutoff:          0E+00
    Fitting Condition:       1E-10

   => Auxiliary Basis Set <=

  Basis Set: (AUG-CC-PV(Q+D)Z AUX)
    Blend: AUG-CC-PVQZ-JKFIT
    Number of shells: 68
    Number of basis function: 284
    Number of Cartesian functions: 396
    Spherical Harmonics?: true
    Max angular momentum: 5

	-----------------------------------------------------------
	 ==================> DF-MP2 Energies <==================== 
	-----------------------------------------------------------
	 Reference Energy          =    -112.7884324084914738 [Eh]
	 Singles Energy            =      -0.0000000000000000 [Eh]
	 Same-Spin Energy          =      -0.1028452990078327 [Eh]
	 Opposite-Spin Energy      =      -0.3384912344572786 [Eh]
	 Correlation Energy        =      -0.4413365334651113 [Eh]
	 Total Energy              =    -113.2297689419565785 [Eh]
	-----------------------------------------------------------
	 ================> DF-SCS-MP2 Energies <================== 
	-----------------------------------------------------------
	 SCS Same-Spin Scale       =       0.3333333333333333 [-]
	 SCS Opposite-Spin Scale   =       1.2000000000000000 [-]
	 SCS Same-Spin Energy      =      -0.0342817663359442 [Eh]
	 SCS Opposite-Spin Energy  =      -0.4061894813487343 [Eh]
	 SCS Correlation Energy    =      -0.4404712476846785 [Eh]
	 SCS Total Energy          =    -113.2289036561761577 [Eh]
	-----------------------------------------------------------


  -Total Gradient:
     Atom            X                  Y                   Z
    ------   -----------------  -----------------  -----------------
       1        0.000000000000    -0.000000000000    -0.000108251728
       2        0.000000000000     0.000000000000     0.000108251728


*** tstop() called on bp1-compute00147.data.bp.acrc.priv at Mon Apr 19 16:11:57 2021
Module time:
	user time   =      69.10 seconds =       1.15 minutes
	system time =       3.71 seconds =       0.06 minutes
	total time  =          6 seconds =       0.10 minutes
Total time:
	user time   =     269.17 seconds =       4.49 minutes
	system time =      19.35 seconds =       0.32 minutes
	total time  =         23 seconds =       0.38 minutes

			-----------------------------------------
			 OPTKING 2.0: for geometry optimizations 
			  - R.A. King,  Bethel University        
			-----------------------------------------

	Previous internal coordinate definitions found.
	---Fragment 1 Geometry and Gradient---
	 O           0.0000000000        0.0000000000        0.9173732143
	 C           0.0000000000        0.0000000000       -1.2227755198
	             0.0000000000       -0.0000000000       -0.0001082517
	             0.0000000000        0.0000000000        0.0001082517

	---Fragment 1 Intrafragment Coordinates---
	 - Coordinate -           - BOHR/RAD -       - ANG/DEG -
	 R(1,2)           =         2.140149	       1.132518

	Current energy   :      -113.2297689420

	Energy change for the previous step:
		Projected    :        -0.0000069602
		Actual       :        -0.0000060281

	Performing BFGS update.
	Previous computed or guess Hessian on step 1.
	Steps to be used in Hessian update: 2 1
	Taking RFO optimization step.
	Going to follow RFO solution 1.
	Using RFO vector 1.
	Norm of target step-size    0.00009
	Projected energy change by RFO approximation:        -0.0000000057

	Back-transformation to cartesian coordinates...
	Successfully converged to displaced geometry.

	--- Internal Coordinate Step in ANG or DEG, aJ/ANG or AJ/DEG ---
	 ---------------------------------------------------------------------------
	   Coordinate                Previous        Force       Change         New 
	   ----------                --------       ------       ------       ------
	    1 R(1,2)          =      1.132518     0.000892     0.000047     1.132565
	 ---------------------------------------------------------------------------
	Successfully symmetrized geometry.

  ==> Convergence Check <==

  Measures of convergence in internal coordinates in au.
  Criteria marked as inactive (o), active & met (*), and active & unmet ( ).
  ---------------------------------------------------------------------------------------------
   Step     Total Energy     Delta E     MAX Force     RMS Force      MAX Disp      RMS Disp   
  ---------------------------------------------------------------------------------------------
    Convergence Criteria    1.00e-06 *    3.00e-04 *             o    1.20e-03 *             o
  ---------------------------------------------------------------------------------------------
      3    -113.22976894   -6.03e-06      1.08e-04 *    1.08e-04 o    8.87e-05 *    8.87e-05 o  ~
  ---------------------------------------------------------------------------------------------


  **** Optimization is complete! (in 3 steps) ****

  ==> Optimization Summary <==

  Measures of convergence in internal coordinates in au.
  --------------------------------------------------------------------------------------------------------------- ~
   Step         Total Energy             Delta E       MAX Force       RMS Force        MAX Disp        RMS Disp  ~
  --------------------------------------------------------------------------------------------------------------- ~
      1    -113.229628006879   -113.229628006879      0.01863757      0.01863757      0.01208753      0.01208753  ~
      2    -113.229762913891     -0.000134907013      0.00379693      0.00379693      0.00309253      0.00309253  ~
      3    -113.229768941957     -0.000006028065      0.00010825      0.00010825      0.00008868      0.00008868  ~
  --------------------------------------------------------------------------------------------------------------- ~

	Writing optimization data to binary file.
	Final energy is   -113.2297689419566
	Final (previous) structure:
	Cartesian Geometry (in Angstrom)
	    O     0.0000000000   0.0000000000   0.4854529968
	    C     0.0000000000   0.0000000000  -0.6470649363
	Saving final (previous) structure.
			--------------------------
			 OPTKING Finished Execution 
			--------------------------

    Final optimized geometry and variables:
    Molecular point group: c2v
    Full point group: C_inf_v

    Geometry (in Angstrom), charge = 0, multiplicity = 1:

    O            0.000000000000     0.000000000000     0.485452998713
    C            0.000000000000     0.000000000000    -0.647064938852

	Removing binary optimization data file.
	Cleaning optimization helper files.
gradient() will perform analytic gradient computation.
    SCF Algorithm Type (re)set to DF.

*** tstart() called on bp1-compute00147.data.bp.acrc.priv
*** at Mon Apr 19 16:11:57 2021

   => Loading Basis Set <=

    Name: AUG-CC-PV(Q+D)Z
    Role: ORBITAL
    Keyword: BASIS
    atoms 1 entry O          line   439 file /work/zw18965/.conda/envs/p4env/share/psi4/basis/aug-cc-pv_qpd_z.gbs 
    atoms 2 entry C          line   319 file /work/zw18965/.conda/envs/p4env/share/psi4/basis/aug-cc-pv_qpd_z.gbs 


         ---------------------------------------------------------
                                   SCF
               by Justin Turney, Rob Parrish, Andy Simmonett
                          and Daniel G. A. Smith
                              RHF Reference
                       24 Threads, 137329 MiB Core
         ---------------------------------------------------------

  ==> Geometry <==

    Molecular point group: c2v
    Full point group: C_inf_v

    Geometry (in Angstrom), charge = 0, multiplicity = 1:

       Center              X                  Y                   Z               Mass       
    ------------   -----------------  -----------------  -----------------  -----------------
         O            0.000000000000     0.000000000000     0.485452998713    15.994914619570
         C            0.000000000000     0.000000000000    -0.647064938852    12.000000000000

  Running in c2v symmetry.

  Rotational constants: A = ************  B =      1.91700  C =      1.91700 [cm^-1]
  Rotational constants: A = ************  B =  57470.23800  C =  57470.23800 [MHz]
  Nuclear repulsion =   22.428347728234229

  Charge       = 0
  Multiplicity = 1
  Electrons    = 14
  Nalpha       = 7
  Nbeta        = 7

  ==> Algorithm <==

  SCF Algorithm Type is DF.
  DIIS enabled.
  MOM disabled.
  Fractional occupation disabled.
  Guess Type is SAD.
  Energy threshold   = 1.00e-10
  Density threshold  = 1.00e-10
  Integral threshold = 0.00e+00

  ==> Primary Basis <==

  Basis Set: AUG-CC-PV(Q+D)Z
    Blend: AUG-CC-PV(Q+D)Z
    Number of shells: 40
    Number of basis function: 160
    Number of Cartesian functions: 210
    Spherical Harmonics?: true
    Max angular momentum: 4

   => Loading Basis Set <=

    Name: (AUG-CC-PV(Q+D)Z AUX)
    Role: JKFIT
    Keyword: DF_BASIS_SCF
    atoms 1 entry O          line   318 file /work/zw18965/.conda/envs/p4env/share/psi4/basis/aug-cc-pvqz-jkfit.gbs 
    atoms 2 entry C          line   178 file /work/zw18965/.conda/envs/p4env/share/psi4/basis/aug-cc-pvqz-jkfit.gbs 

  ==> Pre-Iterations <==

   -------------------------------------------------------
    Irrep   Nso     Nmo     Nalpha   Nbeta   Ndocc  Nsocc
   -------------------------------------------------------
     A1        62      62       0       0       0       0
     A2        22      22       0       0       0       0
     B1        38      38       0       0       0       0
     B2        38      38       0       0       0       0
   -------------------------------------------------------
    Total     160     160       7       7       7       0
   -------------------------------------------------------

  ==> Integral Setup <==

  DFHelper Memory: AOs need 0.066 GiB; user supplied 100.583 GiB. Using in-core AOs.

  ==> MemDFJK: Density-Fitted J/K Matrices <==

    J tasked:                   Yes
    K tasked:                   Yes
    wK tasked:                   No
    OpenMP threads:              24
    Memory [MiB]:            102996
    Algorithm:                 Core
    Schwarz Cutoff:           1E-12
    Mask sparsity (%):       0.0000
    Fitting Condition:        1E-10

   => Auxiliary Basis Set <=

  Basis Set: (AUG-CC-PV(Q+D)Z AUX)
    Blend: AUG-CC-PVQZ-JKFIT
    Number of shells: 68
    Number of basis function: 284
    Number of Cartesian functions: 396
    Spherical Harmonics?: true
    Max angular momentum: 5

  Minimum eigenvalue in the overlap matrix is 9.9445245756E-05.
  Using Symmetric Orthogonalization.

  SCF Guess: Superposition of Atomic Densities via on-the-fly atomic UHF.

  ==> Iterations <==

                           Total Energy        Delta E     RMS |[F,P]|

   @DF-RHF iter SAD:  -111.87147529182265   -1.11871e+02   0.00000e+00 
   @DF-RHF iter   1:  -112.76121761330874   -8.89742e-01   3.36762e-03 DIIS
   @DF-RHF iter   2:  -112.77011793447699   -8.90032e-03   2.78116e-03 DIIS
   @DF-RHF iter   3:  -112.78829965367922   -1.81817e-02   1.91979e-04 DIIS
   @DF-RHF iter   4:  -112.78842973468669   -1.30081e-04   2.20220e-05 DIIS
   @DF-RHF iter   5:  -112.78843226772815   -2.53304e-06   4.09874e-06 DIIS
   @DF-RHF iter   6:  -112.78843240460023   -1.36872e-07   7.61953e-07 DIIS
   @DF-RHF iter   7:  -112.78843240840973   -3.80950e-09   1.12750e-07 DIIS
   @DF-RHF iter   8:  -112.78843240848664   -7.69091e-11   2.96681e-08 DIIS
   @DF-RHF iter   9:  -112.78843240849129   -4.64695e-12   6.24284e-09 DIIS
   @DF-RHF iter  10:  -112.78843240849156   -2.70006e-13   1.05514e-09 DIIS
   @DF-RHF iter  11:  -112.78843240849135    2.13163e-13   1.83427e-10 DIIS
   @DF-RHF iter  12:  -112.78843240849143   -8.52651e-14   1.66963e-11 DIIS
  Energy and wave function converged.


  ==> Post-Iterations <==

    Orbital Energies [Eh]
    ---------------------

    Doubly Occupied:                                                      

       1A1   -20.665503     2A1   -11.362370     3A1    -1.518850  
       4A1    -0.804253     1B2    -0.638508     1B1    -0.638508  
       5A1    -0.555415  

    Virtual:                                                              

       6A1     0.060219     2B2     0.062643     2B1     0.062643  
       7A1     0.074636     3B1     0.140166     3B2     0.140166  
       8A1     0.156532     4B1     0.166698     4B2     0.166698  
       9A1     0.227913     1A2     0.227913    10A1     0.228188  
      11A1     0.302063     5B1     0.320329     5B2     0.320329  
      12A1     0.392463     6B1     0.396108     6B2     0.396108  
      13A1     0.509627     2A2     0.534921    14A1     0.534921  
       7B1     0.623663     7B2     0.623663    15A1     0.645420  
       8B2     0.748737     8B1     0.748737    16A1     0.768499  
       3A2     0.768499    17A1     0.782918     9B1     0.823651  
       9B2     0.823651    18A1     0.873965    10B1     0.881937  
      10B2     0.881937     4A2     0.890968    19A1     0.890968  
      20A1     0.911467    11B1     1.078283    11B2     1.078283  
      21A1     1.195090    12B2     1.447454    12B1     1.447454  
      22A1     1.486944     5A2     1.518484    23A1     1.518484  
      13B1     1.554909    13B2     1.554909    24A1     1.669506  
      25A1     1.769093     6A2     1.769093    26A1     1.785466  
      14B1     1.810055    14B2     1.810055    15B1     1.975363  
      15B2     1.975363    27A1     2.105742     7A2     2.105742  
      28A1     2.171344    29A1     2.199847     8A2     2.199847  
      16B1     2.251769    16B2     2.251769    30A1     2.318696  
      17B2     2.326556    17B1     2.326556    18B1     2.361961  
      18B2     2.361961    31A1     2.364225     9A2     2.364225  
      32A1     2.503046    19B1     2.612182    19B2     2.612182  
      20B2     2.829022    20B1     2.829022    33A1     2.972438  
      10A2     3.007359    34A1     3.007359    35A1     3.519249  
      11A2     3.723528    36A1     3.723528    21B2     3.780574  
      21B1     3.780574    37A1     4.008845    22B2     4.083911  
      22B1     4.083911    12A2     4.181776    38A1     4.181776  
      23B1     4.213134    23B2     4.213134    24B2     4.280290  
      24B1     4.280290    39A1     4.332276    40A1     4.391077  
      13A2     4.391077    41A1     4.559387    25B2     4.786423  
      25B1     4.786423    14A2     5.154553    42A1     5.154553  
      43A1     5.167008    26B2     5.170592    26B1     5.170592  
      44A1     5.902124    15A2     5.902124    45A1     5.928027  
      27B2     6.134621    27B1     6.134621    28B1     6.251534  
      28B2     6.251534    16A2     6.308328    46A1     6.308328  
      29B2     6.349024    29B1     6.349024    47A1     6.423563  
      30B2     6.445138    30B1     6.445138    17A2     6.597178  
      48A1     6.597178    49A1     7.243248    18A2     7.339863  
      50A1     7.339863    31B2     7.501981    31B1     7.501981  
      51A1     8.259397    52A1     8.572398    32B2     8.634828  
      32B1     8.634828    19A2    10.605749    53A1    10.605749  
      33B1    10.883706    33B2    10.883706    20A2    11.137705  
      54A1    11.137705    34B2    11.144339    34B1    11.144339  
      55A1    11.379508    35B2    11.398677    35B1    11.398677  
      36B1    11.860864    36B2    11.860864    56A1    12.065381  
      57A1    12.295976    21A2    12.295976    37B2    12.754081  
      37B1    12.754081    58A1    12.918914    22A2    12.918914  
      59A1    13.823369    38B2    14.211640    38B1    14.211640  
      60A1    14.553406    61A1    25.069296    62A1    43.266783  

    Final Occupation by Irrep:
             A1    A2    B1    B2 
    DOCC [     5,    0,    1,    1 ]

  @DF-RHF Final Energy:  -112.78843240849143

   => Energetics <=

    Nuclear Repulsion Energy =             22.4283477282342290
    One-Electron Energy =                -198.0667457310855752
    Two-Electron Energy =                  62.8499655943599151
    Total Energy =                       -112.7884324084914311

Computation Completed


Properties will be evaluated at   0.000000,   0.000000,   0.000000 [a0]

Properties computed using the SCF density matrix

  Nuclear Dipole Moment: [e a0]
     X:     0.0000      Y:     0.0000      Z:     0.0023

  Electronic Dipole Moment: [e a0]
     X:     0.0000      Y:     0.0000      Z:    -0.1151

  Dipole Moment: [e a0]
     X:     0.0000      Y:     0.0000      Z:    -0.1127     Total:     0.1127

  Dipole Moment: [D]
     X:     0.0000      Y:     0.0000      Z:    -0.2866     Total:     0.2866


*** tstop() called on bp1-compute00147.data.bp.acrc.priv at Mon Apr 19 16:11:58 2021
Module time:
	user time   =      29.13 seconds =       0.49 minutes
	system time =       1.04 seconds =       0.02 minutes
	total time  =          1 seconds =       0.02 minutes
Total time:
	user time   =     299.81 seconds =       5.00 minutes
	system time =      20.46 seconds =       0.34 minutes
	total time  =         24 seconds =       0.40 minutes

*** tstart() called on bp1-compute00147.data.bp.acrc.priv
*** at Mon Apr 19 16:11:58 2021


  //>>>>>>>>>>>>>>>>>>>>>>>>>>>>>>>>>>>//
  //               DFMP2               //
  //<<<<<<<<<<<<<<<<<<<<<<<<<<<<<<<<<<<//

   => Loading Basis Set <=

    Name: (AUG-CC-PV(Q+D)Z AUX)
    Role: RIFIT
    Keyword: DF_BASIS_MP2
    atoms 1 entry O          line   332 file /work/zw18965/.conda/envs/p4env/share/psi4/basis/aug-cc-pvqz-ri.gbs 
    atoms 2 entry C          line   184 file /work/zw18965/.conda/envs/p4env/share/psi4/basis/aug-cc-pvqz-ri.gbs 

	 --------------------------------------------------------
	                          DF-MP2                         
	      2nd-Order Density-Fitted Moller-Plesset Theory     
	              RMP2 Wavefunction,  24 Threads             
	                                                         
	        Rob Parrish, Justin Turney, Andy Simmonett,      
	           Ed Hohenstein, and C. David Sherrill          
	 --------------------------------------------------------

   => Auxiliary Basis Set <=

  Basis Set: (AUG-CC-PV(Q+D)Z AUX)
    Blend: AUG-CC-PVQZ-RI
    Number of shells: 72
    Number of basis function: 336
    Number of Cartesian functions: 474
    Spherical Harmonics?: true
    Max angular momentum: 5

	 --------------------------------------------------------
	                 NBF =   160, NAUX =   336
	 --------------------------------------------------------
	   CLASS    FOCC     OCC    AOCC    AVIR     VIR    FVIR
	   PAIRS       0       7       7     153     153       0
	 --------------------------------------------------------

  DFHelper Memory: AOs need 0.066 GiB; user supplied 100.583 GiB. Using in-core AOs.


         ------------------------------------------------------------
                                     CPHF                           
                                  Rob Parrish                       
         ------------------------------------------------------------

  ==> Geometry <==

    Molecular point group: c2v
    Full point group: C_inf_v

    Geometry (in Angstrom), charge = 0, multiplicity = 1:

       Center              X                  Y                   Z               Mass       
    ------------   -----------------  -----------------  -----------------  -----------------
         O            0.000000000000     0.000000000000     0.485452998713    15.994914619570
         C            0.000000000000     0.000000000000    -0.647064938852    12.000000000000

  Nuclear repulsion =   22.428347728234229
  Reference energy  = -112.788432408491431

  ==> Basis Set <==

  Basis Set: AUG-CC-PV(Q+D)Z
    Blend: AUG-CC-PV(Q+D)Z
    Number of shells: 40
    Number of basis function: 160
    Number of Cartesian functions: 210
    Spherical Harmonics?: true
    Max angular momentum: 4

  ==> CGRSolver (by Rob Parrish) <==

   Number of roots    =         1
   Preconditioning    =    JACOBI
   Convergence cutoff =     1E-06
   Maximum iterations =       100

  ==> CPHFRHamiltonian (by Rob Parrish) <== 

  ==> MemDFJK: Density-Fitted J/K Matrices <==

    J tasked:                   Yes
    K tasked:                   Yes
    wK tasked:                   No
    OpenMP threads:              24
    Memory [MiB]:            102996
    Algorithm:                 Core
    Schwarz Cutoff:           1E-12
    Mask sparsity (%):       0.0000
    Fitting Condition:        1E-10

   => Auxiliary Basis Set <=

  Basis Set: (AUG-CC-PV(Q+D)Z AUX)
    Blend: AUG-CC-PVQZ-JKFIT
    Number of shells: 68
    Number of basis function: 284
    Number of Cartesian functions: 396
    Spherical Harmonics?: true
    Max angular momentum: 5

  ==> CPHF Iterations <==

  => Iterations <=

             Iter  Converged  Remaining    Residual
  CGR           1          0          1   1.103E-01
  CGR           2          0          1   3.797E-02
  CGR           3          0          1   7.932E-03
  CGR           4          0          1   2.321E-03
  CGR           5          0          1   3.179E-04
  CGR           6          0          1   3.321E-05
  CGR           7          0          1   4.001E-06
  CGR           8          1          0   4.769E-07

    CGRSolver converged.

Problem determining natural orbital and density matrix symmetries.
Future calls to oeprop using this density will not work. Try disabling symmetry.

  ==> DFCorrGrad: Density-Fitted Correlated Gradients <==

    OpenMP threads:             24
    Integrals threads:          24
    Memory [GiB]:          100.583
    Schwarz Cutoff:          0E+00
    Fitting Condition:       1E-10

   => Auxiliary Basis Set <=

  Basis Set: (AUG-CC-PV(Q+D)Z AUX)
    Blend: AUG-CC-PVQZ-JKFIT
    Number of shells: 68
    Number of basis function: 284
    Number of Cartesian functions: 396
    Spherical Harmonics?: true
    Max angular momentum: 5

	-----------------------------------------------------------
	 ==================> DF-MP2 Energies <==================== 
	-----------------------------------------------------------
	 Reference Energy          =    -112.7884324084914311 [Eh]
	 Singles Energy            =      -0.0000000000000000 [Eh]
	 Same-Spin Energy          =      -0.1028452990114110 [Eh]
	 Opposite-Spin Energy      =      -0.3384912344652361 [Eh]
	 Correlation Energy        =      -0.4413365334766471 [Eh]
	 Total Energy              =    -113.2297689419680751 [Eh]
	-----------------------------------------------------------
	 ================> DF-SCS-MP2 Energies <================== 
[...]
  Using Symmetric Orthogonalization.

  SCF Guess: Superposition of Atomic Densities via on-the-fly atomic UHF.

  ==> Iterations <==

                           Total Energy        Delta E     RMS |[F,P]|

   @DF-RHF iter SAD:  -111.86932706250185   -1.11869e+02   0.00000e+00 
   @DF-RHF iter   1:  -112.76096029930963   -8.91633e-01   3.37182e-03 DIIS
   @DF-RHF iter   2:  -112.76982412615317   -8.86383e-03   2.79070e-03 DIIS
   @DF-RHF iter   3:  -112.78814568607422   -1.83216e-02   1.91946e-04 DIIS
   @DF-RHF iter   4:  -112.78827593226680   -1.30246e-04   2.20818e-05 DIIS
   @DF-RHF iter   5:  -112.78827847734928   -2.54508e-06   4.13601e-06 DIIS
   @DF-RHF iter   6:  -112.78827861669652   -1.39347e-07   7.89022e-07 DIIS
   @DF-RHF iter   7:  -112.78827862070001   -4.00350e-09   1.18502e-07 DIIS
   @DF-RHF iter   8:  -112.78827862078623   -8.62173e-11   3.15698e-08 DIIS
   @DF-RHF iter   9:  -112.78827862079147   -5.24381e-12   6.72943e-09 DIIS
   @DF-RHF iter  10:  -112.78827862079179   -3.12639e-13   1.07560e-09 DIIS
   @DF-RHF iter  11:  -112.78827862079171    7.10543e-14   1.82031e-10 DIIS
   @DF-RHF iter  12:  -112.78827862079177   -5.68434e-14   1.66844e-11 DIIS
  Energy and wave function converged.


  ==> Post-Iterations <==

    Orbital Energies [Eh]
    ---------------------

    Doubly Occupied:                                                      

       1A1   -20.665540     2A1   -11.362828     3A1    -1.518152  
       4A1    -0.804165     1B1    -0.638070     1B2    -0.638070  
       5A1    -0.555530  

    Virtual:                                                              

       6A1     0.060237     2B1     0.062610     2B2     0.062610  
       7A1     0.074617     3B2     0.139924     3B1     0.139924  
       8A1     0.156534     4B2     0.166667     4B1     0.166667  
       9A1     0.227910     1A2     0.227910    10A1     0.228194  
      11A1     0.302052     5B2     0.320221     5B1     0.320221  
      12A1     0.392425     6B2     0.396089     6B1     0.396089  
      13A1     0.509632    14A1     0.534987     2A2     0.534987  
       7B1     0.623696     7B2     0.623696    15A1     0.645129  
       8B2     0.748716     8B1     0.748716    16A1     0.768461  
       3A2     0.768461    17A1     0.782877     9B2     0.823523  
       9B1     0.823523    18A1     0.873912    10B2     0.882011  
      10B1     0.882011     4A2     0.890902    19A1     0.890902  
      20A1     0.910956    11B2     1.078047    11B1     1.078047  
      21A1     1.194336    12B1     1.447380    12B2     1.447380  
      22A1     1.486530    23A1     1.518643     5A2     1.518643  
      13B2     1.555074    13B1     1.555074    24A1     1.669519  
       6A2     1.768969    25A1     1.768969    26A1     1.785734  
      14B1     1.809247    14B2     1.809247    15B2     1.975821  
      15B1     1.975821     7A2     2.105673    27A1     2.105673  
      28A1     2.170828     8A2     2.199648    29A1     2.199648  
      16B2     2.251683    16B1     2.251683    30A1     2.318574  
      17B2     2.326344    17B1     2.326344    18B2     2.361586  
      18B1     2.361586     9A2     2.364065    31A1     2.364065  
      32A1     2.502865    19B1     2.611943    19B2     2.611943  
      20B1     2.828074    20B2     2.828074    33A1     2.970921  
      10A2     3.006494    34A1     3.006494    35A1     3.519390  
      36A1     3.723345    11A2     3.723345    21B2     3.780220  
      21B1     3.780220    37A1     4.008416    22B2     4.084000  
      22B1     4.084000    38A1     4.181844    12A2     4.181844  
      23B1     4.213089    23B2     4.213089    24B2     4.279196  
      24B1     4.279196    39A1     4.332115    13A2     4.390617  
      40A1     4.390617    41A1     4.557528    25B1     4.786813  
      25B2     4.786813    14A2     5.153949    42A1     5.153949  
      43A1     5.168695    26B1     5.168911    26B2     5.168911  
      15A2     5.901967    44A1     5.901967    45A1     5.924149  
      27B2     6.133630    27B1     6.133630    28B2     6.250764  
      28B1     6.250764    46A1     6.308020    16A2     6.308020  
      29B1     6.348355    29B2     6.348355    47A1     6.424062  
      30B2     6.444938    30B1     6.444938    17A2     6.596624  
      48A1     6.596624    49A1     7.239098    50A1     7.335981  
      18A2     7.335981    31B1     7.499636    31B2     7.499636  
      51A1     8.255584    52A1     8.573157    32B1     8.631123  
      32B2     8.631123    19A2    10.605792    53A1    10.605792  
      33B2    10.883006    33B1    10.883006    20A2    11.136755  
      54A1    11.136755    34B2    11.144107    34B1    11.144107  
      55A1    11.379190    35B1    11.398079    35B2    11.398079  
      36B2    11.860855    36B1    11.860855    56A1    12.063635  
      57A1    12.294923    21A2    12.294923    37B1    12.752327  
      37B2    12.752327    22A2    12.918185    58A1    12.918185  
      59A1    13.817917    38B1    14.206043    38B2    14.206043  
      60A1    14.551965    61A1    25.056403    62A1    43.261888  

    Final Occupation by Irrep:
             A1    A2    B1    B2 
    DOCC [     5,    0,    1,    1 ]

  @DF-RHF Final Energy:  -112.78827862079177

   => Energetics <=

    Nuclear Repulsion Energy =             22.4083539904633966
    One-Electron Energy =                -198.0285561072571738
    Two-Electron Energy =                  62.8319234960020268
    Total Energy =                       -112.7882786207917718

Computation Completed


Properties will be evaluated at   0.000000,   0.000000,   0.000000 [a0]

Properties computed using the SCF density matrix

  Nuclear Dipole Moment: [e a0]
     X:     0.0000      Y:     0.0000      Z:     0.0023

  Electronic Dipole Moment: [e a0]
     X:     0.0000      Y:     0.0000      Z:    -0.1170

  Dipole Moment: [e a0]
     X:     0.0000      Y:     0.0000      Z:    -0.1147     Total:     0.1147

  Dipole Moment: [D]
     X:     0.0000      Y:     0.0000      Z:    -0.2916     Total:     0.2916


*** tstop() called on bp1-compute00147.data.bp.acrc.priv at Mon Apr 19 16:12:22 2021
Module time:
	user time   =      30.13 seconds =       0.50 minutes
	system time =       1.13 seconds =       0.02 minutes
	total time  =          2 seconds =       0.03 minutes
Total time:
	user time   =     600.07 seconds =      10.00 minutes
	system time =      34.98 seconds =       0.58 minutes
	total time  =         48 seconds =       0.80 minutes

*** tstart() called on bp1-compute00147.data.bp.acrc.priv
*** at Mon Apr 19 16:12:22 2021


  //>>>>>>>>>>>>>>>>>>>>>>>>>>>>>>>>>>>//
  //               DFMP2               //
  //<<<<<<<<<<<<<<<<<<<<<<<<<<<<<<<<<<<//

   => Loading Basis Set <=

    Name: (AUG-CC-PV(Q+D)Z AUX)
    Role: RIFIT
    Keyword: DF_BASIS_MP2
    atoms 1 entry O          line   332 file /work/zw18965/.conda/envs/p4env/share/psi4/basis/aug-cc-pvqz-ri.gbs 
    atoms 2 entry C          line   184 file /work/zw18965/.conda/envs/p4env/share/psi4/basis/aug-cc-pvqz-ri.gbs 

	 --------------------------------------------------------
	                          DF-MP2                         
	      2nd-Order Density-Fitted Moller-Plesset Theory     
	              RMP2 Wavefunction,  24 Threads             
	                                                         
	        Rob Parrish, Justin Turney, Andy Simmonett,      
	           Ed Hohenstein, and C. David Sherrill          
	 --------------------------------------------------------

   => Auxiliary Basis Set <=

  Basis Set: (AUG-CC-PV(Q+D)Z AUX)
    Blend: AUG-CC-PVQZ-RI
    Number of shells: 72
    Number of basis function: 336
    Number of Cartesian functions: 474
    Spherical Harmonics?: true
    Max angular momentum: 5

	 --------------------------------------------------------
	                 NBF =   160, NAUX =   336
	 --------------------------------------------------------
	   CLASS    FOCC     OCC    AOCC    AVIR     VIR    FVIR
	   PAIRS       0       7       7     153     153       0
	 --------------------------------------------------------

  DFHelper Memory: AOs need 0.066 GiB; user supplied 100.583 GiB. Using in-core AOs.


         ------------------------------------------------------------
                                     CPHF                           
                                  Rob Parrish                       
         ------------------------------------------------------------

  ==> Geometry <==

    Molecular point group: c2v
    Full point group: C_inf_v

    Geometry (in Angstrom), charge = 0, multiplicity = 1:

       Center              X                  Y                   Z               Mass       
    ------------   -----------------  -----------------  -----------------  -----------------
         O            0.000000000000     0.000000000000     0.485886141636    15.994914619570
         C            0.000000000000     0.000000000000    -0.647642279192    12.000000000000

  Nuclear repulsion =   22.408353990463397
  Reference energy  = -112.788278620791772

  ==> Basis Set <==

  Basis Set: AUG-CC-PV(Q+D)Z
    Blend: AUG-CC-PV(Q+D)Z
    Number of shells: 40
    Number of basis function: 160
    Number of Cartesian functions: 210
    Spherical Harmonics?: true
    Max angular momentum: 4

  ==> CGRSolver (by Rob Parrish) <==

   Number of roots    =         1
   Preconditioning    =    JACOBI
   Convergence cutoff =     1E-06
   Maximum iterations =       100

  ==> CPHFRHamiltonian (by Rob Parrish) <== 

  ==> MemDFJK: Density-Fitted J/K Matrices <==

    J tasked:                   Yes
    K tasked:                   Yes
    wK tasked:                   No
    OpenMP threads:              24
    Memory [MiB]:            102996
    Algorithm:                 Core
    Schwarz Cutoff:           1E-12
    Mask sparsity (%):       0.0000
    Fitting Condition:        1E-10

   => Auxiliary Basis Set <=

  Basis Set: (AUG-CC-PV(Q+D)Z AUX)
    Blend: AUG-CC-PVQZ-JKFIT
    Number of shells: 68
    Number of basis function: 284
    Number of Cartesian functions: 396
    Spherical Harmonics?: true
    Max angular momentum: 5

  ==> CPHF Iterations <==

  => Iterations <=

             Iter  Converged  Remaining    Residual
  CGR           1          0          1   1.106E-01
  CGR           2          0          1   3.810E-02
  CGR           3          0          1   7.969E-03
  CGR           4          0          1   2.333E-03
  CGR           5          0          1   3.194E-04
  CGR           6          0          1   3.336E-05
  CGR           7          0          1   4.022E-06
  CGR           8          1          0   4.791E-07

    CGRSolver converged.

  ==> DFCorrGrad: Density-Fitted Correlated Gradients <==

    OpenMP threads:             24
    Integrals threads:          24
    Memory [GiB]:          100.583
    Schwarz Cutoff:          0E+00
    Fitting Condition:       1E-10

   => Auxiliary Basis Set <=

  Basis Set: (AUG-CC-PV(Q+D)Z AUX)
    Blend: AUG-CC-PVQZ-JKFIT
    Number of shells: 68
    Number of basis function: 284
    Number of Cartesian functions: 396
    Spherical Harmonics?: true
    Max angular momentum: 5

	-----------------------------------------------------------
	 ==================> DF-MP2 Energies <==================== 
	-----------------------------------------------------------
	 Reference Energy          =    -112.7882786207917718 [Eh]
	 Singles Energy            =      -0.0000000000000000 [Eh]
	 Same-Spin Energy          =      -0.1028902478967562 [Eh]
	 Opposite-Spin Energy      =      -0.3385981239234194 [Eh]
	 Correlation Energy        =      -0.4414883718201755 [Eh]
	 Total Energy              =    -113.2297669926119426 [Eh]
	-----------------------------------------------------------
	 ================> DF-SCS-MP2 Energies <================== 
	-----------------------------------------------------------
	 SCS Same-Spin Scale       =       0.3333333333333333 [-]
	 SCS Opposite-Spin Scale   =       1.2000000000000000 [-]
	 SCS Same-Spin Energy      =      -0.0342967492989187 [Eh]
	 SCS Opposite-Spin Energy  =      -0.4063177487081032 [Eh]
	 SCS Correlation Energy    =      -0.4406144980070220 [Eh]
	 SCS Total Energy          =    -113.2288931187987941 [Eh]
	-----------------------------------------------------------


  -Total Gradient:
     Atom            X                  Y                   Z
    ------   -----------------  -----------------  -----------------
       1        0.000000000000    -0.000000000000     0.002147764926
       2        0.000000000000     0.000000000000    -0.002147764926


*** tstop() called on bp1-compute00147.data.bp.acrc.priv at Mon Apr 19 16:12:28 2021
Module time:
	user time   =      69.25 seconds =       1.15 minutes
	system time =       3.79 seconds =       0.06 minutes
	total time  =          6 seconds =       0.10 minutes
Total time:
	user time   =     669.33 seconds =      11.16 minutes
	system time =      38.77 seconds =       0.65 minutes
	total time  =         54 seconds =       0.90 minutes

         ----------------------------------------------------------
                                   FINDIF
                     R. A. King and Jonathon Misiewicz
         ---------------------------------------------------------

  Computing second-derivative from gradients using projected, 
  symmetry-adapted, cartesian coordinates.

  3 gradients passed in, including the reference geometry.
  Generating complete list of displacements from unique ones.


-------------------------------------------------------------


  ==> Harmonic Vibrational Analysis <==

  non-mass-weighted Hessian:       Symmetric? True   Hermitian? True   Lin Dep Dim?  5 (0)
  projection of translations (True) and rotations (True) removed 5 degrees of freedom (5)
  total projector:                 Symmetric? True   Hermitian? True   Lin Dep Dim?  5 (5)
  mass-weighted Hessian:           Symmetric? True   Hermitian? True   Lin Dep Dim?  5 (0)
  pre-proj  low-frequency mode:    0.0000i [cm^-1]
  pre-proj  low-frequency mode:    0.0000  [cm^-1]
  pre-proj  low-frequency mode:    0.0000  [cm^-1]
  pre-proj  low-frequency mode:    0.0000  [cm^-1]
  pre-proj  low-frequency mode:    0.0000  [cm^-1]
  pre-proj  all modes:['0.0000i' '0.0000' '0.0000' '0.0000' '0.0000' '2137.7730']
  projected mass-weighted Hessian: Symmetric? True   Hermitian? True   Lin Dep Dim?  5 (5)
  post-proj low-frequency mode:    0.0000i [cm^-1] (TR)
  post-proj low-frequency mode:    0.0000  [cm^-1] (TR)
  post-proj low-frequency mode:    0.0000  [cm^-1] (TR)
  post-proj low-frequency mode:    0.0000  [cm^-1] (TR)
  post-proj low-frequency mode:    0.0000  [cm^-1] (TR)
  post-proj  all modes:['0.0000i' '0.0000' '0.0000' '0.0000' '0.0000' '2137.7730']

  Vibration                       6           
  Freq [cm^-1]                2137.7730       
  Irrep                           A1          
  Reduced mass [u]             13.4388        
  Force const [mDyne/A]        36.1853        
  Turning point v=0 [a0]        0.0647        
  RMS dev v=0 [a0 u^1/2]        0.1678        
  Char temp [K]               3075.7794       
  ----------------------------------------------------------------------------------
      1   O                0.00  0.00 -0.60   
      2   C                0.00  0.00  0.80   

  ==> Thermochemistry Components <==

  Entropy, S
    Electronic S            0.000 [cal/(mol K)]        0.000 [J/(mol K)]       0.00000000 [mEh/K] (multiplicity = 1)
    Translational S        35.923 [cal/(mol K)]      150.302 [J/(mol K)]       0.05724692 [mEh/K] (mol. weight = 27.9949 [u], P = 101325.00 [Pa])
    Rotational S           11.293 [cal/(mol K)]       47.251 [J/(mol K)]       0.01799711 [mEh/K] (symmetry no. = 1)
    Vibrational S           0.001 [cal/(mol K)]        0.003 [J/(mol K)]       0.00000119 [mEh/K]
  Total S                  47.217 [cal/(mol K)]      197.556 [J/(mol K)]       0.07524522 [mEh/K]
  Correction S              0.000 [cal/(mol K)]        0.000 [J/(mol K)]       0.00000000 [mEh/K]

  Constant volume heat capacity, Cv
    Electronic Cv           0.000 [cal/(mol K)]        0.000 [J/(mol K)]       0.00000000 [mEh/K]
    Translational Cv        2.981 [cal/(mol K)]       12.472 [J/(mol K)]       0.00475022 [mEh/K]
    Rotational Cv           1.987 [cal/(mol K)]        8.314 [J/(mol K)]       0.00316681 [mEh/K]
    Vibrational Cv          0.007 [cal/(mol K)]        0.029 [J/(mol K)]       0.00001115 [mEh/K]
  Total Cv                  4.975 [cal/(mol K)]       20.815 [J/(mol K)]       0.00792818 [mEh/K]
  Correction Cv             0.000 [cal/(mol K)]        0.000 [J/(mol K)]       0.00000000 [mEh/K]

  Constant pressure heat capacity, Cp
    Electronic Cp           0.000 [cal/(mol K)]        0.000 [J/(mol K)]       0.00000000 [mEh/K]
    Translational Cp        4.968 [cal/(mol K)]       20.786 [J/(mol K)]       0.00791703 [mEh/K]
    Rotational Cp           1.987 [cal/(mol K)]        8.314 [J/(mol K)]       0.00316681 [mEh/K]
    Vibrational Cp          0.007 [cal/(mol K)]        0.029 [J/(mol K)]       0.00001115 [mEh/K]
  Total Cp                  6.962 [cal/(mol K)]       29.130 [J/(mol K)]       0.01109499 [mEh/K]
  Correction Cp             0.000 [cal/(mol K)]        0.000 [J/(mol K)]       0.00000000 [mEh/K]

  ==> Thermochemistry Energy Analysis <==

  Raw electronic energy, E0
  Total E0, Electronic energy at well bottom at 0 [K]                 -113.22976894 [Eh]

  Zero-point energy, ZPE_vib = Sum_i nu_i / 2
    Electronic ZPE          0.000 [kcal/mol]        0.000 [kJ/mol]       0.00000000 [Eh]
    Translational ZPE       0.000 [kcal/mol]        0.000 [kJ/mol]       0.00000000 [Eh]
    Rotational ZPE          0.000 [kcal/mol]        0.000 [kJ/mol]       0.00000000 [Eh]
    Vibrational ZPE         3.056 [kcal/mol]       12.787 [kJ/mol]       0.00487021 [Eh]        1068.886 [cm^-1]
  Correction ZPE            3.056 [kcal/mol]       12.787 [kJ/mol]       0.00487021 [Eh]        1068.886 [cm^-1]
  Total ZPE, Electronic energy at 0 [K]                               -113.22489874 [Eh]

  Thermal Energy, E (includes ZPE)
    Electronic E            0.000 [kcal/mol]        0.000 [kJ/mol]       0.00000000 [Eh]
    Translational E         0.889 [kcal/mol]        3.718 [kJ/mol]       0.00141628 [Eh]
    Rotational E            0.592 [kcal/mol]        2.479 [kJ/mol]       0.00094418 [Eh]
    Vibrational E           3.056 [kcal/mol]       12.788 [kJ/mol]       0.00487053 [Eh]
  Correction E              4.538 [kcal/mol]       18.985 [kJ/mol]       0.00723099 [Eh]
  Total E, Electronic energy at  298.15 [K]                           -113.22253795 [Eh]

  Enthalpy, H_trans = E_trans + k_B * T
    Electronic H            0.000 [kcal/mol]        0.000 [kJ/mol]       0.00000000 [Eh]
    Translational H         1.481 [kcal/mol]        6.197 [kJ/mol]       0.00236046 [Eh]
    Rotational H            0.592 [kcal/mol]        2.479 [kJ/mol]       0.00094418 [Eh]
    Vibrational H           3.056 [kcal/mol]       12.788 [kJ/mol]       0.00487053 [Eh]
  Correction H              5.130 [kcal/mol]       21.464 [kJ/mol]       0.00817517 [Eh]
  Total H, Enthalpy at  298.15 [K]                                    -113.22159377 [Eh]

  Gibbs free energy, G = H - T * S
    Electronic G            0.000 [kcal/mol]        0.000 [kJ/mol]       0.00000000 [Eh]
    Translational G        -9.229 [kcal/mol]      -38.615 [kJ/mol]      -0.01470771 [Eh]
    Rotational G           -2.775 [kcal/mol]      -11.609 [kJ/mol]      -0.00442166 [Eh]
    Vibrational G           3.056 [kcal/mol]       12.787 [kJ/mol]       0.00487017 [Eh]
  Correction G             -8.948 [kcal/mol]      -37.437 [kJ/mol]      -0.01425919 [Eh]
  Total G, Free enthalpy at  298.15 [K]                               -113.24402813 [Eh]

    Psi4 stopped on: Monday, 19 April 2021 04:12PM
    Psi4 wall time for execution: 0:00:53.45

*** Psi4 exiting successfully. Buy a developer a beer!
