
    -----------------------------------------------------------------------
          Psi4: An Open-Source Ab Initio Electronic Structure Package
                               Psi4 1.3.2 release

                         Git: Rev {HEAD} ecbda83 


    R. M. Parrish, L. A. Burns, D. G. A. Smith, A. C. Simmonett,
    A. E. DePrince III, E. G. Hohenstein, U. Bozkaya, A. Yu. Sokolov,
    R. Di Remigio, R. M. Richard, J. F. Gonthier, A. M. James,
    H. R. McAlexander, A. Kumar, M. Saitow, X. Wang, B. P. Pritchard,
    P. Verma, H. F. Schaefer III, K. Patkowski, R. A. King, E. F. Valeev,
    F. A. Evangelista, J. M. Turney, T. D. Crawford, and C. D. Sherrill,
    J. Chem. Theory Comput. 13(7) pp 3185--3197 (2017).
    (doi: 10.1021/acs.jctc.7b00174)


                         Additional Contributions by
    P. Kraus, H. Kruse, M. H. Lechner, M. C. Schieber, R. A. Shaw,
    A. Alenaizan, R. Galvelis, Z. L. Glick, S. Lehtola, and J. P. Misiewicz

    -----------------------------------------------------------------------


    Psi4 started on: Monday, 19 April 2021 04:12PM

    Process ID: 148929
    Host:       bp1-compute00145.data.bp.acrc.priv
    PSIDATADIR: /work/zw18965/.conda/envs/p4env/share/psi4
    Memory:     500.0 MiB
    Threads:    24
    
  ==> Input File <==

--------------------------------------------------------------------------
memory 144 GB

molecule {
0 1
S     1.553518053089   0.000503575617   0.000000000000
C     0.000000000000  -0.000008265748   0.000000000000
S    -1.553517799084  -0.000495315161   0.000000000000}

set basis aug-cc-pV(Q+d)Z
 
optimize("MP2")
frequencies("MP2")--------------------------------------------------------------------------

  Memory set to 134.110 GiB by Python driver.
gradient() will perform analytic gradient computation.
    SCF Algorithm Type (re)set to DF.

*** tstart() called on bp1-compute00145.data.bp.acrc.priv
*** at Mon Apr 19 16:12:23 2021

   => Loading Basis Set <=

    Name: AUG-CC-PV(Q+D)Z
    Role: ORBITAL
    Keyword: BASIS
    atoms 1, 3 entry S          line  1148 file /work/zw18965/.conda/envs/p4env/share/psi4/basis/aug-cc-pv_qpd_z.gbs 
    atoms 2    entry C          line   319 file /work/zw18965/.conda/envs/p4env/share/psi4/basis/aug-cc-pv_qpd_z.gbs 


         ---------------------------------------------------------
                                   SCF
               by Justin Turney, Rob Parrish, Andy Simmonett
                          and Daniel G. A. Smith
                              RHF Reference
                       24 Threads, 137329 MiB Core
         ---------------------------------------------------------

  ==> Geometry <==

    Molecular point group: cs
    Full point group: C_inf_v

    Geometry (in Angstrom), charge = 0, multiplicity = 1:

       Center              X                  Y                   Z               Mass       
    ------------   -----------------  -----------------  -----------------  -----------------
         S           -0.000010437241     0.000000000000     1.553518027034    31.972071174400
         C           -0.000010437241     0.000000000000    -0.000000110374    12.000000000000
         S            0.000014354626     0.000000000000    -1.553517985608    31.972071174400

  Running in cs symmetry.

  Rotational constants: A = ************  B =      0.10924  C =      0.10924 [cm^-1]
  Rotational constants: A = ************  B =   3274.79297  C =   3274.79297 [MHz]
  Nuclear repulsion =  109.002088625142150

  Charge       = 0
  Multiplicity = 1
  Electrons    = 38
  Nalpha       = 19
  Nbeta        = 19

  ==> Algorithm <==

  SCF Algorithm Type is DF.
  DIIS enabled.
  MOM disabled.
  Fractional occupation disabled.
  Guess Type is SAD.
  Energy threshold   = 1.00e-10
  Density threshold  = 1.00e-10
  Integral threshold = 0.00e+00

  ==> Primary Basis <==

  Basis Set: AUG-CC-PV(Q+D)Z
    Blend: AUG-CC-PV(Q+D)Z
    Number of shells: 66
    Number of basis function: 258
    Number of Cartesian functions: 335
    Spherical Harmonics?: true
    Max angular momentum: 4

   => Loading Basis Set <=

    Name: (AUG-CC-PV(Q+D)Z AUX)
    Role: JKFIT
    Keyword: DF_BASIS_SCF
    atoms 1, 3 entry S          line   810 file /work/zw18965/.conda/envs/p4env/share/psi4/basis/aug-cc-pvqz-jkfit.gbs 
    atoms 2    entry C          line   178 file /work/zw18965/.conda/envs/p4env/share/psi4/basis/aug-cc-pvqz-jkfit.gbs 

  ==> Pre-Iterations <==

   -------------------------------------------------------
    Irrep   Nso     Nmo     Nalpha   Nbeta   Ndocc  Nsocc
   -------------------------------------------------------
     A'       162     162       0       0       0       0
     A"        96      96       0       0       0       0
   -------------------------------------------------------
    Total     258     258      19      19      19       0
   -------------------------------------------------------

  ==> Integral Setup <==

  DFHelper Memory: AOs need 0.282 GiB; user supplied 100.583 GiB. Using in-core AOs.

  ==> MemDFJK: Density-Fitted J/K Matrices <==

    J tasked:                   Yes
    K tasked:                   Yes
    wK tasked:                   No
    OpenMP threads:              24
    Memory [MiB]:            102996
    Algorithm:                 Core
    Schwarz Cutoff:           1E-12
    Mask sparsity (%):       0.6280
    Fitting Condition:        1E-10

   => Auxiliary Basis Set <=

  Basis Set: (AUG-CC-PV(Q+D)Z AUX)
    Blend: AUG-CC-PVQZ-JKFIT
    Number of shells: 126
    Number of basis function: 510
    Number of Cartesian functions: 692
    Spherical Harmonics?: true
    Max angular momentum: 5

  Minimum eigenvalue in the overlap matrix is 1.9890754528E-05.
  Using Symmetric Orthogonalization.

  SCF Guess: Superposition of Atomic Densities via on-the-fly atomic UHF.

  ==> Iterations <==

                           Total Energy        Delta E     RMS |[F,P]|

   @DF-RHF iter SAD:  -832.51831036198473   -8.32518e+02   0.00000e+00 
   @DF-RHF iter   1:  -832.95924087735364   -4.40931e-01   1.10874e-03 DIIS
   @DF-RHF iter   2:  -832.97763029064095   -1.83894e-02   3.07276e-04 DIIS
   @DF-RHF iter   3:  -832.97983022438973   -2.19993e-03   1.65027e-04 DIIS
   @DF-RHF iter   4:  -832.98045921763662   -6.28993e-04   6.36017e-05 DIIS
   @DF-RHF iter   5:  -832.98065125839116   -1.92041e-04   2.12863e-05 DIIS
   @DF-RHF iter   6:  -832.98066814620699   -1.68878e-05   2.23245e-06 DIIS
   @DF-RHF iter   7:  -832.98066832570942   -1.79502e-07   4.86947e-07 DIIS
   @DF-RHF iter   8:  -832.98066833221890   -6.50948e-09   5.03342e-08 DIIS
   @DF-RHF iter   9:  -832.98066833232133   -1.02432e-10   8.75529e-09 DIIS
   @DF-RHF iter  10:  -832.98066833232383   -2.50111e-12   1.05872e-09 DIIS
   @DF-RHF iter  11:  -832.98066833232406   -2.27374e-13   1.68438e-10 DIIS
   @DF-RHF iter  12:  -832.98066833232485   -7.95808e-13   4.39524e-11 DIIS
  Energy and wave function converged.


  ==> Post-Iterations <==

    Orbital Energies [Eh]
    ---------------------

    Doubly Occupied:                                                      

       1Ap   -91.989320     2Ap   -91.989319     3Ap   -11.399642  
       4Ap    -8.993441     5Ap    -8.993419     6Ap    -6.674748  
       7Ap    -6.674737     1App   -6.672905     8Ap    -6.672905  
       2App   -6.672905     9Ap    -6.672905    10Ap    -1.142437  
      11Ap    -1.019763    12Ap    -0.679243    13Ap    -0.583102  
       3App   -0.525631    14Ap    -0.525631    15Ap    -0.372526  
       4App   -0.372526  

    Virtual:                                                              

       5App    0.038830    16Ap     0.038830    17Ap     0.046944  
      18Ap     0.048895    19Ap     0.076247     6App    0.087056  
      20Ap     0.087056     7App    0.088021    21Ap     0.088021  
      22Ap     0.116636    23Ap     0.122930     8App    0.122930  
      24Ap     0.159210    25Ap     0.172439    26Ap     0.179055  
       9App    0.179055    27Ap     0.213554    28Ap     0.236519  
      10App    0.236519    29Ap     0.237553    11App    0.241958  
      30Ap     0.241958    31Ap     0.267628    12App    0.302105  
      32Ap     0.302105    33Ap     0.335234    13App    0.335234  
      34Ap     0.343722    14App    0.376066    35Ap     0.376066  
      36Ap     0.385922    15App    0.396822    37Ap     0.396822  
      38Ap     0.459329    39Ap     0.480313    16App    0.494808  
      40Ap     0.494808    41Ap     0.508078    17App    0.508078  
      42Ap     0.526696    18App    0.526696    43Ap     0.537444  
      19App    0.537444    44Ap     0.538826    20App    0.546563  
      45Ap     0.546563    46Ap     0.583658    21App    0.589730  
      47Ap     0.589730    22App    0.619018    48Ap     0.619018  
      23App    0.633343    49Ap     0.633343    50Ap     0.701864  
      24App    0.701864    25App    0.705575    51Ap     0.705575  
      52Ap     0.728437    53Ap     0.737269    26App    0.754942  
      54Ap     0.754942    55Ap     0.846515    56Ap     0.903214  
      27App    0.903214    28App    0.937254    57Ap     0.937254  
      58Ap     0.965277    59Ap     0.994255    60Ap     1.017392  
      29App    1.017392    61Ap     1.089325    30App    1.127346  
      62Ap     1.127346    63Ap     1.158511    31App    1.181686  
      64Ap     1.181686    65Ap     1.245747    32App    1.252454  
      66Ap     1.252454    67Ap     1.314850    33App    1.314850  
      68Ap     1.329497    34App    1.329497    35App    1.399510  
      69Ap     1.399510    70Ap     1.454046    36App    1.454046  
      71Ap     1.480907    37App    1.480907    72Ap     1.482346  
      38App    1.482346    39App    1.501056    73Ap     1.501056  
      40App    1.504934    74Ap     1.504934    75Ap     1.505748  
      76Ap     1.531825    41App    1.550539    77Ap     1.550539  
      42App    1.643380    78Ap     1.643380    79Ap     1.644975  
      43App    1.644975    44App    1.669899    80Ap     1.669899  
      45App    1.672163    81Ap     1.672163    46App    1.699325  
      82Ap     1.699325    83Ap     1.705156    84Ap     1.761539  
      85Ap     1.798927    47App    1.798927    48App    1.904507  
      86Ap     1.904507    87Ap     1.919189    88Ap     1.985434  
      49App    1.985434    89Ap     2.015041    50App    2.066307  
      90Ap     2.066307    51App    2.143239    91Ap     2.143239  
      92Ap     2.172591    93Ap     2.177338    52App    2.181889  
      94Ap     2.181889    95Ap     2.208284    53App    2.208284  
      96Ap     2.328273    54App    2.328273    97Ap     2.345807  
      55App    2.345807    56App    2.483261    98Ap     2.483261  
      99Ap     2.593426   100Ap     2.728694   101Ap     2.730760  
      57App    2.730760   102Ap     2.851834    58App    2.851834  
     103Ap     2.905770    59App    2.934855   104Ap     2.934855  
     105Ap     2.986826    60App    2.986826   106Ap     3.038455  
     107Ap     3.177150    61App    3.177150   108Ap     3.212095  
      62App    3.212095   109Ap     3.232726    63App    3.352599  
     110Ap     3.352599    64App    3.404661   111Ap     3.404661  
     112Ap     3.494627   113Ap     3.519651    65App    3.519651  
      66App    3.588191   114Ap     3.588191   115Ap     3.688560  
      67App    3.688560   116Ap     3.696000    68App    3.696000  
     117Ap     3.793080   118Ap     3.842101    69App    3.842101  
     119Ap     3.849851    70App    3.849851   120Ap     3.898015  
      71App    3.898015   121Ap     3.943630    72App    3.943630  
     122Ap     4.007517    73App    4.007517    74App    4.020707  
     123Ap     4.020707    75App    4.046715   124Ap     4.046715  
     125Ap     4.096241   126Ap     4.179425   127Ap     4.312951  
      76App    4.312951    77App    4.347282   128Ap     4.347282  
     129Ap     4.402260   130Ap     4.567331    78App    4.567331  
     131Ap     4.666829   132Ap     4.683452    79App    4.683452  
     133Ap     4.732054    80App    5.009423   134Ap     5.009423  
     135Ap     5.161345   136Ap     5.926856    81App    5.926856  
      82App    6.082143   137Ap     6.082143   138Ap     6.220141  
      83App    6.220141    84App    6.369175   139Ap     6.369175  
     140Ap     6.481627    85App    6.481627    86App    6.505417  
     141Ap     6.505417    87App    6.526363   142Ap     6.526363  
      88App    6.689690   143Ap     6.689690   144Ap     6.698839  
     145Ap     6.718487   146Ap     6.803139    89App    6.803139  
      90App    6.853777   147Ap     6.853777   148Ap     7.196622  
      91App    7.431347   149Ap     7.431347   150Ap     8.015531  
      92App    8.015531   151Ap     8.704172   152Ap     9.144130  
     153Ap     9.152201   154Ap     9.379371    93App    9.379371  
     155Ap     9.422676    94App    9.422676    95App    9.712056  
     156Ap     9.712056    96App    9.808168   157Ap     9.808168  
     158Ap    10.032900   159Ap    10.802112   160Ap    20.640173  
     161Ap    22.060538   162Ap    23.865408  

    Final Occupation by Irrep:
             Ap   App 
    DOCC [    15,    4 ]

  @DF-RHF Final Energy:  -832.98066833232485

   => Energetics <=

    Nuclear Repulsion Energy =            109.0020886251421501
    One-Electron Energy =               -1366.7112997888041264
    Two-Electron Energy =                 424.7285428313372222
    Total Energy =                       -832.9806683323248535

Computation Completed


Properties will be evaluated at   0.000000,   0.000000,   0.000000 [a0]

Properties computed using the SCF density matrix

  Nuclear Dipole Moment: [e a0]
     X:     0.0000      Y:     0.0000      Z:     0.0000

  Electronic Dipole Moment: [e a0]
     X:     0.0000      Y:     0.0000      Z:    -0.0000

  Dipole Moment: [e a0]
     X:     0.0000      Y:     0.0000      Z:    -0.0000     Total:     0.0000

  Dipole Moment: [D]
     X:     0.0000      Y:     0.0000      Z:    -0.0000     Total:     0.0000


*** tstop() called on bp1-compute00145.data.bp.acrc.priv at Mon Apr 19 16:12:25 2021
Module time:
	user time   =      37.65 seconds =       0.63 minutes
	system time =       1.91 seconds =       0.03 minutes
	total time  =          2 seconds =       0.03 minutes
Total time:
	user time   =      37.65 seconds =       0.63 minutes
	system time =       1.91 seconds =       0.03 minutes
	total time  =          2 seconds =       0.03 minutes

*** tstart() called on bp1-compute00145.data.bp.acrc.priv
*** at Mon Apr 19 16:12:25 2021


  //>>>>>>>>>>>>>>>>>>>>>>>>>>>>>>>>>>>//
  //               DFMP2               //
  //<<<<<<<<<<<<<<<<<<<<<<<<<<<<<<<<<<<//

   => Loading Basis Set <=

    Name: (AUG-CC-PV(Q+D)Z AUX)
    Role: RIFIT
    Keyword: DF_BASIS_MP2
    atoms 1, 3 entry S          line   824 file /work/zw18965/.conda/envs/p4env/share/psi4/basis/aug-cc-pvqz-ri.gbs 
    atoms 2    entry C          line   184 file /work/zw18965/.conda/envs/p4env/share/psi4/basis/aug-cc-pvqz-ri.gbs 

	 --------------------------------------------------------
	                          DF-MP2                         
	      2nd-Order Density-Fitted Moller-Plesset Theory     
	              RMP2 Wavefunction,  24 Threads             
	                                                         
	        Rob Parrish, Justin Turney, Andy Simmonett,      
	           Ed Hohenstein, and C. David Sherrill          
	 --------------------------------------------------------

   => Auxiliary Basis Set <=

  Basis Set: (AUG-CC-PV(Q+D)Z AUX)
    Blend: AUG-CC-PVQZ-RI
    Number of shells: 124
    Number of basis function: 556
    Number of Cartesian functions: 773
    Spherical Harmonics?: true
    Max angular momentum: 5

	 --------------------------------------------------------
	                 NBF =   258, NAUX =   556
	 --------------------------------------------------------
	   CLASS    FOCC     OCC    AOCC    AVIR     VIR    FVIR
	   PAIRS       0      19      19     239     239       0
	 --------------------------------------------------------

  DFHelper Memory: AOs need 0.282 GiB; user supplied 100.583 GiB. Using in-core AOs.


         ------------------------------------------------------------
                                     CPHF                           
                                  Rob Parrish                       
         ------------------------------------------------------------

  ==> Geometry <==

    Molecular point group: cs
    Full point group: C_inf_v

    Geometry (in Angstrom), charge = 0, multiplicity = 1:

       Center              X                  Y                   Z               Mass       
    ------------   -----------------  -----------------  -----------------  -----------------
         S           -0.000010437241     0.000000000000     1.553518027034    31.972071174400
         C           -0.000010437241     0.000000000000    -0.000000110374    12.000000000000
         S            0.000014354626     0.000000000000    -1.553517985608    31.972071174400

  Nuclear repulsion =  109.002088625142150
  Reference energy  = -832.980668332324854

  ==> Basis Set <==

  Basis Set: AUG-CC-PV(Q+D)Z
    Blend: AUG-CC-PV(Q+D)Z
    Number of shells: 66
    Number of basis function: 258
    Number of Cartesian functions: 335
    Spherical Harmonics?: true
    Max angular momentum: 4

  ==> CGRSolver (by Rob Parrish) <==

   Number of roots    =         1
   Preconditioning    =    JACOBI
   Convergence cutoff =     1E-06
   Maximum iterations =       100

  ==> CPHFRHamiltonian (by Rob Parrish) <== 

  ==> MemDFJK: Density-Fitted J/K Matrices <==

    J tasked:                   Yes
    K tasked:                   Yes
    wK tasked:                   No
    OpenMP threads:              24
    Memory [MiB]:            102996
    Algorithm:                 Core
    Schwarz Cutoff:           1E-12
    Mask sparsity (%):       0.6280
    Fitting Condition:        1E-10

   => Auxiliary Basis Set <=

  Basis Set: (AUG-CC-PV(Q+D)Z AUX)
    Blend: AUG-CC-PVQZ-JKFIT
    Number of shells: 126
    Number of basis function: 510
    Number of Cartesian functions: 692
    Spherical Harmonics?: true
    Max angular momentum: 5

  ==> CPHF Iterations <==

  => Iterations <=

             Iter  Converged  Remaining    Residual
  CGR           1          0          1   1.353E-01
  CGR           2          0          1   3.691E-02
  CGR           3          0          1   1.337E-02
  CGR           4          0          1   1.809E-03
  CGR           5          0          1   4.141E-04
  CGR           6          0          1   5.788E-05
  CGR           7          0          1   1.129E-05
  CGR           8          0          1   1.681E-06
  CGR           9          1          0   1.712E-07

    CGRSolver converged.

  ==> DFCorrGrad: Density-Fitted Correlated Gradients <==

    OpenMP threads:             24
    Integrals threads:          24
    Memory [GiB]:          100.583
    Schwarz Cutoff:          0E+00
    Fitting Condition:       1E-10

   => Auxiliary Basis Set <=

  Basis Set: (AUG-CC-PV(Q+D)Z AUX)
    Blend: AUG-CC-PVQZ-JKFIT
    Number of shells: 126
    Number of basis function: 510
    Number of Cartesian functions: 692
    Spherical Harmonics?: true
    Max angular momentum: 5

	-----------------------------------------------------------
	 ==================> DF-MP2 Energies <==================== 
	-----------------------------------------------------------
	 Reference Energy          =    -832.9806683323248535 [Eh]
	 Singles Energy            =      -0.0000000000000000 [Eh]
	 Same-Spin Energy          =      -0.2182392084763843 [Eh]
	 Opposite-Spin Energy      =      -0.5972912432572821 [Eh]
	 Correlation Energy        =      -0.8155304517336665 [Eh]
	 Total Energy              =    -833.7961987840585607 [Eh]
	-----------------------------------------------------------
	 ================> DF-SCS-MP2 Energies <================== 
	-----------------------------------------------------------
	 SCS Same-Spin Scale       =       0.3333333333333333 [-]
	 SCS Opposite-Spin Scale   =       1.2000000000000000 [-]
	 SCS Same-Spin Energy      =      -0.0727464028254614 [Eh]
	 SCS Opposite-Spin Energy  =      -0.7167494919087385 [Eh]
	 SCS Correlation Energy    =      -0.7894958947341999 [Eh]
	 SCS Total Energy          =    -833.7701642270590128 [Eh]
	-----------------------------------------------------------


  -Total Gradient:
     Atom            X                  Y                   Z
    ------   -----------------  -----------------  -----------------
       1        0.000000714809     0.000000000000     0.001122588608
       2       -0.000001447531     0.000000000000    -0.000000252575
       3        0.000000732722     0.000000000000    -0.001122336030


*** tstop() called on bp1-compute00145.data.bp.acrc.priv at Mon Apr 19 16:12:34 2021
Module time:
	user time   =     110.31 seconds =       1.84 minutes
	system time =       5.42 seconds =       0.09 minutes
	total time  =          9 seconds =       0.15 minutes
Total time:
	user time   =     147.98 seconds =       2.47 minutes
	system time =       7.33 seconds =       0.12 minutes
	total time  =         11 seconds =       0.18 minutes

			-----------------------------------------
			 OPTKING 2.0: for geometry optimizations 
			  - R.A. King,  Bethel University        
			-----------------------------------------

	Internal coordinates to be generated automatically.
	Detected frag 1 with atoms:  1 2 3
	---Fragment 1 Bond Connectivity---
	 1 : 2
	 2 : 1 3
	 3 : 2

	---Fragment 1 Geometry and Gradient---
	 S          -0.0000197235        0.0000000000        2.9357236021
	 C          -0.0000197235        0.0000000000       -0.0000002086
	 S           0.0000271263        0.0000000000       -2.9357235238
	             0.0000007148        0.0000000000        0.0011225886
	            -0.0000014475        0.0000000000       -0.0000002526
	             0.0000007327        0.0000000000       -0.0011223360

	Previous optimization step data not found.  Starting new optimization.

	---Fragment 1 Intrafragment Coordinates---
	 - Coordinate -           - BOHR/RAD -       - ANG/DEG -
	 R(1,2)           =         2.935724	       1.553518
	 R(2,3)           =         2.935723	       1.553518
	 L(1,2,3)         =         3.141577	     179.999086
	 l(1,2,3)         =         3.141593	     180.000000

	Current energy   :      -833.7961987841

	Generating empirical Hessian (Schlegel '84) for each fragment.
	Taking RFO optimization step.
	Going to follow RFO solution 1.
	Using RFO vector 1.
	Norm of target step-size    0.00259
	Projected energy change by RFO approximation:        -0.0000041060

	Back-transformation to cartesian coordinates...
	Successfully converged to displaced geometry.

	--- Internal Coordinate Step in ANG or DEG, aJ/ANG or AJ/DEG ---
	 ---------------------------------------------------------------------------
	   Coordinate                Previous        Force       Change         New 
	   ----------                --------       ------       ------       ------
	    1 R(1,2)          =      1.553518    -0.009249    -0.000968     1.552550
	    2 R(2,3)          =      1.553518    -0.009247    -0.000968     1.552550
	    3 L(1,2,3)        =    179.999086     0.000000     0.000481   179.999567
	    4 l(1,2,3)        =    180.000000     0.000000     0.000000   180.000000
	 ---------------------------------------------------------------------------
	Successfully symmetrized geometry.

  ==> Convergence Check <==

  Measures of convergence in internal coordinates in au.
  Criteria marked as inactive (o), active & met (*), and active & unmet ( ).
  --------------------------------------------------------------------------------------------- ~
   Step     Total Energy     Delta E     MAX Force     RMS Force      MAX Disp      RMS Disp    ~
  --------------------------------------------------------------------------------------------- ~
    Convergence Criteria    1.00e-06 *    3.00e-04 *             o    1.20e-03 *             o  ~
  --------------------------------------------------------------------------------------------- ~
      1    -833.79619878   -8.34e+02      1.12e-03      7.94e-04 o    1.83e-03      1.29e-03 o  ~
  ---------------------------------------------------------------------------------------------

	Writing optimization data to binary file.
	Structure for next step:
	Cartesian Geometry (in Angstrom)
	    S    -0.0000126041   0.0000000000   1.5525501204
	    C    -0.0000060882   0.0000000000  -0.0000000374
	    S     0.0000121724   0.0000000000  -1.5525501519
			--------------------------
			 OPTKING Finished Execution 
			--------------------------

    Structure for next step:
    Molecular point group: cs
    Full point group: C_inf_v

    Geometry (in Angstrom), charge = 0, multiplicity = 1:

    S           -0.000004944425     0.000000000000     1.552550145679
    C           -0.000004944425     0.000000000000    -0.000000018197
    S            0.000006800204     0.000000000000    -1.552550138849

gradient() will perform analytic gradient computation.
    SCF Algorithm Type (re)set to DF.

*** tstart() called on bp1-compute00145.data.bp.acrc.priv
*** at Mon Apr 19 16:12:34 2021

   => Loading Basis Set <=

    Name: AUG-CC-PV(Q+D)Z
    Role: ORBITAL
    Keyword: BASIS
    atoms 1, 3 entry S          line  1148 file /work/zw18965/.conda/envs/p4env/share/psi4/basis/aug-cc-pv_qpd_z.gbs 
    atoms 2    entry C          line   319 file /work/zw18965/.conda/envs/p4env/share/psi4/basis/aug-cc-pv_qpd_z.gbs 


         ---------------------------------------------------------
                                   SCF
               by Justin Turney, Rob Parrish, Andy Simmonett
                          and Daniel G. A. Smith
                              RHF Reference
                       24 Threads, 137329 MiB Core
         ---------------------------------------------------------

  ==> Geometry <==

    Molecular point group: cs
    Full point group: C_inf_v

    Geometry (in Angstrom), charge = 0, multiplicity = 1:

       Center              X                  Y                   Z               Mass       
    ------------   -----------------  -----------------  -----------------  -----------------
         S           -0.000004944425     0.000000000000     1.552550145679    31.972071174400
         C           -0.000004944425     0.000000000000    -0.000000018197    12.000000000000
         S            0.000006800204     0.000000000000    -1.552550138849    31.972071174400

  Running in cs symmetry.

  Rotational constants: A = ************  B =      0.10937  C =      0.10937 [cm^-1]
  Rotational constants: A = ************  B =   3278.87728  C =   3278.87728 [MHz]
  Nuclear repulsion =  109.070040833309349

  Charge       = 0
  Multiplicity = 1
  Electrons    = 38
  Nalpha       = 19
  Nbeta        = 19

  ==> Algorithm <==

  SCF Algorithm Type is DF.
  DIIS enabled.
  MOM disabled.
  Fractional occupation disabled.
  Guess Type is READ.
  Energy threshold   = 1.00e-10
  Density threshold  = 1.00e-10
  Integral threshold = 0.00e+00

  ==> Primary Basis <==

  Basis Set: AUG-CC-PV(Q+D)Z
    Blend: AUG-CC-PV(Q+D)Z
    Number of shells: 66
    Number of basis function: 258
    Number of Cartesian functions: 335
    Spherical Harmonics?: true
    Max angular momentum: 4

   => Loading Basis Set <=

    Name: (AUG-CC-PV(Q+D)Z AUX)
    Role: JKFIT
    Keyword: DF_BASIS_SCF
    atoms 1, 3 entry S          line   810 file /work/zw18965/.conda/envs/p4env/share/psi4/basis/aug-cc-pvqz-jkfit.gbs 
    atoms 2    entry C          line   178 file /work/zw18965/.conda/envs/p4env/share/psi4/basis/aug-cc-pvqz-jkfit.gbs 

   => Loading Basis Set <=

    Name: AUG-CC-PV(Q+D)Z
    Role: ORBITAL
    Keyword: BASIS
    atoms 1, 3 entry S          line  1148 file /work/zw18965/.conda/envs/p4env/share/psi4/basis/aug-cc-pv_qpd_z.gbs 
    atoms 2    entry C          line   319 file /work/zw18965/.conda/envs/p4env/share/psi4/basis/aug-cc-pv_qpd_z.gbs 

  Reading orbitals from file 180, no projection.

  ==> Pre-Iterations <==

   -------------------------------------------------------
    Irrep   Nso     Nmo     Nalpha   Nbeta   Ndocc  Nsocc
   -------------------------------------------------------
     A'       162     162       0       0       0       0
     A"        96      96       0       0       0       0
   -------------------------------------------------------
    Total     258     258      19      19      19       0
   -------------------------------------------------------

  ==> Integral Setup <==

  DFHelper Memory: AOs need 0.282 GiB; user supplied 100.583 GiB. Using in-core AOs.

  ==> MemDFJK: Density-Fitted J/K Matrices <==

    J tasked:                   Yes
    K tasked:                   Yes
    wK tasked:                   No
    OpenMP threads:              24
    Memory [MiB]:            102996
    Algorithm:                 Core
    Schwarz Cutoff:           1E-12
    Mask sparsity (%):       0.6280
    Fitting Condition:        1E-10

   => Auxiliary Basis Set <=

  Basis Set: (AUG-CC-PV(Q+D)Z AUX)
    Blend: AUG-CC-PVQZ-JKFIT
    Number of shells: 126
    Number of basis function: 510
    Number of Cartesian functions: 692
    Spherical Harmonics?: true
    Max angular momentum: 5

  Minimum eigenvalue in the overlap matrix is 1.9851093189E-05.
  Using Symmetric Orthogonalization.

  SCF Guess: Orbitals guess was supplied from a previous computation.

  ==> Iterations <==

                           Total Energy        Delta E     RMS |[F,P]|

   @DF-RHF iter   0:  -832.98123514277074   -8.32981e+02   2.53394e-05 
   @DF-RHF iter   1:  -832.98073294185656    5.02201e-04   1.43756e-06 DIIS
   @DF-RHF iter   2:  -832.98073299378200   -5.19254e-08   6.70906e-07 DIIS
   @DF-RHF iter   3:  -832.98073300183785   -8.05585e-09   3.09390e-07 DIIS
   @DF-RHF iter   4:  -832.98073300498868   -3.15083e-09   1.33093e-07 DIIS
   @DF-RHF iter   5:  -832.98073300553369   -5.45015e-10   2.42509e-08 DIIS
   @DF-RHF iter   6:  -832.98073300557246   -3.87672e-11   5.03412e-09 DIIS
   @DF-RHF iter   7:  -832.98073300557428   -1.81899e-12   3.61920e-10 DIIS
   @DF-RHF iter   8:  -832.98073300557303    1.25056e-12   7.33877e-11 DIIS
  Energy and wave function converged.


  ==> Post-Iterations <==

    Orbital Energies [Eh]
    ---------------------

    Doubly Occupied:                                                      

       1Ap   -91.989140     2Ap   -91.989140     3Ap   -11.399250  
       4Ap    -8.993317     5Ap    -8.993295     6Ap    -6.674630  
       7Ap    -6.674618     1App   -6.672780     8Ap    -6.672780  
       2App   -6.672779     9Ap    -6.672779    10Ap    -1.142781  
      11Ap    -1.019995    12Ap    -0.679107    13Ap    -0.583164  
       3App   -0.525879    14Ap    -0.525879     4App   -0.372493  
      15Ap    -0.372493  

    Virtual:                                                              

      16Ap     0.038955     5App    0.038955    17Ap     0.046948  
      18Ap     0.048898    19Ap     0.076243     6App    0.087139  
      20Ap     0.087139     7App    0.088005    21Ap     0.088005  
      22Ap     0.116628     8App    0.122916    23Ap     0.122916  
      24Ap     0.159331    25Ap     0.172441    26Ap     0.179049  
       9App    0.179049    27Ap     0.213567    28Ap     0.236554  
      10App    0.236554    29Ap     0.237581    11App    0.241984  
      30Ap     0.241984    31Ap     0.267925    32Ap     0.302113  
      12App    0.302113    13App    0.335219    33Ap     0.335219  
      34Ap     0.343778    14App    0.376055    35Ap     0.376055  
      36Ap     0.386003    15App    0.396812    37Ap     0.396812  
      38Ap     0.459251    39Ap     0.480396    16App    0.494898  
      40Ap     0.494898    41Ap     0.508068    17App    0.508068  
      42Ap     0.526652    18App    0.526652    43Ap     0.537473  
      19App    0.537473    44Ap     0.538862    45Ap     0.546689  
      20App    0.546689    46Ap     0.583812    47Ap     0.589788  
      21App    0.589788    48Ap     0.619076    22App    0.619076  
      49Ap     0.633473    23App    0.633473    24App    0.701833  
      50Ap     0.701833    25App    0.705627    51Ap     0.705627  
      52Ap     0.728504    53Ap     0.737345    54Ap     0.755039  
      26App    0.755039    55Ap     0.846727    56Ap     0.903374  
      27App    0.903374    57Ap     0.937535    28App    0.937535  
      58Ap     0.965318    59Ap     0.994450    60Ap     1.017784  
      29App    1.017784    61Ap     1.089519    62Ap     1.127442  
      30App    1.127442    63Ap     1.159262    64Ap     1.181885  
      31App    1.181885    65Ap     1.245739    66Ap     1.252422  
      32App    1.252422    67Ap     1.314847    33App    1.314847  
      68Ap     1.329492    34App    1.329492    69Ap     1.399883  
      35App    1.399883    70Ap     1.453996    36App    1.453996  
      71Ap     1.480946    37App    1.480946    38App    1.482222  
      72Ap     1.482222    39App    1.501176    73Ap     1.501176  
      40App    1.504901    74Ap     1.504901    75Ap     1.505725  
      76Ap     1.532673    41App    1.550638    77Ap     1.550638  
      78Ap     1.643843    42App    1.643843    43App    1.644893  
      79Ap     1.644893    80Ap     1.670105    44App    1.670105  
      81Ap     1.672113    45App    1.672113    46App    1.699768  
      82Ap     1.699768    83Ap     1.705518    84Ap     1.761962  
      85Ap     1.799333    47App    1.799333    48App    1.905249  
      86Ap     1.905249    87Ap     1.919889    88Ap     1.985605  
      49App    1.985605    89Ap     2.015110    90Ap     2.066377  
      50App    2.066377    91Ap     2.143364    51App    2.143364  
      92Ap     2.172063    93Ap     2.177000    52App    2.182604  
      94Ap     2.182604    95Ap     2.208577    53App    2.208577  
      54App    2.328981    96Ap     2.328981    97Ap     2.346148  
      55App    2.346148    56App    2.483676    98Ap     2.483676  
      99Ap     2.594226   100Ap     2.730071   101Ap     2.731516  
      57App    2.731516   102Ap     2.852062    58App    2.852062  
     103Ap     2.906134   104Ap     2.935784    59App    2.935784  
     105Ap     2.986943    60App    2.986943   106Ap     3.038839  
      61App    3.177648   107Ap     3.177648    62App    3.212824  
     108Ap     3.212824   109Ap     3.234363   110Ap     3.352518  
      63App    3.352518   111Ap     3.404606    64App    3.404606  
     112Ap     3.494680   113Ap     3.521392    65App    3.521392  
      66App    3.588723   114Ap     3.588723   115Ap     3.688584  
      67App    3.688584   116Ap     3.695985    68App    3.695985  
     117Ap     3.794279   118Ap     3.842059    69App    3.842059  
     119Ap     3.849877    70App    3.849877    71App    3.898757  
     120Ap     3.898757    72App    3.944282   121Ap     3.944282  
     122Ap     4.007838    73App    4.007838    74App    4.021656  
     123Ap     4.021656   124Ap     4.047116    75App    4.047116  
     125Ap     4.096426   126Ap     4.181270   127Ap     4.314055  
      76App    4.314055   128Ap     4.347077    77App    4.347077  
     129Ap     4.401940   130Ap     4.567835    78App    4.567835  
     131Ap     4.669085   132Ap     4.685765    79App    4.685765  
     133Ap     4.735437    80App    5.009887   134Ap     5.009887  
     135Ap     5.158477   136Ap     5.927088    81App    5.927088  
      82App    6.084674   137Ap     6.084674   138Ap     6.220788  
      83App    6.220788   139Ap     6.370284    84App    6.370284  
     140Ap     6.481907    85App    6.481907   141Ap     6.506162  
      86App    6.506162    87App    6.527767   142Ap     6.527767  
     143Ap     6.690770    88App    6.690770   144Ap     6.699999  
     145Ap     6.718913    89App    6.804069   146Ap     6.804069  
     147Ap     6.854348    90App    6.854348   148Ap     7.202472  
      91App    7.431914   149Ap     7.431914   150Ap     8.019219  
      92App    8.019219   151Ap     8.707687   152Ap     9.143571  
     153Ap     9.154685   154Ap     9.379501    93App    9.379501  
     155Ap     9.422941    94App    9.422941    95App    9.714364  
     156Ap     9.714364    96App    9.808636   157Ap     9.808636  
     158Ap    10.034687   159Ap    10.806859   160Ap    20.647980  
     161Ap    22.065241   162Ap    23.874436  

    Final Occupation by Irrep:
             Ap   App 
    DOCC [    15,    4 ]

  @DF-RHF Final Energy:  -832.98073300557303

   => Energetics <=

    Nuclear Repulsion Energy =            109.0700408333093492
    One-Electron Energy =               -1366.8489513194249412
    Two-Electron Energy =                 424.7981774805425061
    Total Energy =                       -832.9807330055730290

Computation Completed


Properties will be evaluated at   0.000000,   0.000000,   0.000000 [a0]

Properties computed using the SCF density matrix

  Nuclear Dipole Moment: [e a0]
     X:     0.0000      Y:     0.0000      Z:     0.0000

  Electronic Dipole Moment: [e a0]
     X:     0.0000      Y:     0.0000      Z:    -0.0000

  Dipole Moment: [e a0]
     X:     0.0000      Y:     0.0000      Z:    -0.0000     Total:     0.0000

  Dipole Moment: [D]
     X:     0.0000      Y:     0.0000      Z:    -0.0000     Total:     0.0000


*** tstop() called on bp1-compute00145.data.bp.acrc.priv at Mon Apr 19 16:12:36 2021
Module time:
	user time   =      21.81 seconds =       0.36 minutes
	system time =       0.78 seconds =       0.01 minutes
	total time  =          2 seconds =       0.03 minutes
Total time:
	user time   =     170.64 seconds =       2.84 minutes
	system time =       8.16 seconds =       0.14 minutes
	total time  =         13 seconds =       0.22 minutes

*** tstart() called on bp1-compute00145.data.bp.acrc.priv
*** at Mon Apr 19 16:12:36 2021


  //>>>>>>>>>>>>>>>>>>>>>>>>>>>>>>>>>>>//
  //               DFMP2               //
  //<<<<<<<<<<<<<<<<<<<<<<<<<<<<<<<<<<<//

   => Loading Basis Set <=

    Name: (AUG-CC-PV(Q+D)Z AUX)
    Role: RIFIT
    Keyword: DF_BASIS_MP2
    atoms 1, 3 entry S          line   824 file /work/zw18965/.conda/envs/p4env/share/psi4/basis/aug-cc-pvqz-ri.gbs 
    atoms 2    entry C          line   184 file /work/zw18965/.conda/envs/p4env/share/psi4/basis/aug-cc-pvqz-ri.gbs 

	 --------------------------------------------------------
	                          DF-MP2                         
	      2nd-Order Density-Fitted Moller-Plesset Theory     
	              RMP2 Wavefunction,  24 Threads             
	                                                         
	        Rob Parrish, Justin Turney, Andy Simmonett,      
	           Ed Hohenstein, and C. David Sherrill          
	 --------------------------------------------------------

   => Auxiliary Basis Set <=

  Basis Set: (AUG-CC-PV(Q+D)Z AUX)
    Blend: AUG-CC-PVQZ-RI
    Number of shells: 124
    Number of basis function: 556
    Number of Cartesian functions: 773
    Spherical Harmonics?: true
    Max angular momentum: 5

	 --------------------------------------------------------
	                 NBF =   258, NAUX =   556
	 --------------------------------------------------------
	   CLASS    FOCC     OCC    AOCC    AVIR     VIR    FVIR
	   PAIRS       0      19      19     239     239       0
	 --------------------------------------------------------

  DFHelper Memory: AOs need 0.282 GiB; user supplied 100.583 GiB. Using in-core AOs.


         ------------------------------------------------------------
                                     CPHF                           
                                  Rob Parrish                       
         ------------------------------------------------------------

  ==> Geometry <==

    Molecular point group: cs
    Full point group: C_inf_v

    Geometry (in Angstrom), charge = 0, multiplicity = 1:

       Center              X                  Y                   Z               Mass       
    ------------   -----------------  -----------------  -----------------  -----------------
         S           -0.000004944425     0.000000000000     1.552550145679    31.972071174400
         C           -0.000004944425     0.000000000000    -0.000000018197    12.000000000000
         S            0.000006800204     0.000000000000    -1.552550138849    31.972071174400

  Nuclear repulsion =  109.070040833309363
  Reference energy  = -832.980733005573029

  ==> Basis Set <==

  Basis Set: AUG-CC-PV(Q+D)Z
    Blend: AUG-CC-PV(Q+D)Z
    Number of shells: 66
    Number of basis function: 258
    Number of Cartesian functions: 335
    Spherical Harmonics?: true
    Max angular momentum: 4

  ==> CGRSolver (by Rob Parrish) <==

   Number of roots    =         1
   Preconditioning    =    JACOBI
   Convergence cutoff =     1E-06
   Maximum iterations =       100

  ==> CPHFRHamiltonian (by Rob Parrish) <== 

  ==> MemDFJK: Density-Fitted J/K Matrices <==

    J tasked:                   Yes
    K tasked:                   Yes
    wK tasked:                   No
    OpenMP threads:              24
    Memory [MiB]:            102996
    Algorithm:                 Core
    Schwarz Cutoff:           1E-12
    Mask sparsity (%):       0.6280
    Fitting Condition:        1E-10

   => Auxiliary Basis Set <=

  Basis Set: (AUG-CC-PV(Q+D)Z AUX)
    Blend: AUG-CC-PVQZ-JKFIT
    Number of shells: 126
    Number of basis function: 510
    Number of Cartesian functions: 692
    Spherical Harmonics?: true
    Max angular momentum: 5

  ==> CPHF Iterations <==

  => Iterations <=

             Iter  Converged  Remaining    Residual
  CGR           1          0          1   1.350E-01
  CGR           2          0          1   3.682E-02
  CGR           3          0          1   1.333E-02
  CGR           4          0          1   1.802E-03
  CGR           5          0          1   4.129E-04
  CGR           6          0          1   5.777E-05
  CGR           7          0          1   1.125E-05
  CGR           8          0          1   1.674E-06
  CGR           9          1          0   1.704E-07

    CGRSolver converged.

Problem determining natural orbital and density matrix symmetries.
Future calls to oeprop using this density will not work. Try disabling symmetry.

  ==> DFCorrGrad: Density-Fitted Correlated Gradients <==

    OpenMP threads:             24
    Integrals threads:          24
    Memory [GiB]:          100.583
    Schwarz Cutoff:          0E+00
    Fitting Condition:       1E-10

   => Auxiliary Basis Set <=

  Basis Set: (AUG-CC-PV(Q+D)Z AUX)
    Blend: AUG-CC-PVQZ-JKFIT
    Number of shells: 126
    Number of basis function: 510
    Number of Cartesian functions: 692
    Spherical Harmonics?: true
    Max angular momentum: 5

	-----------------------------------------------------------
	 ==================> DF-MP2 Energies <==================== 
	-----------------------------------------------------------
	 Reference Energy          =    -832.9807330055730290 [Eh]
	 Singles Energy            =      -0.0000000000000000 [Eh]
	 Same-Spin Energy          =      -0.2182294538716059 [Eh]
	 Opposite-Spin Energy      =      -0.5972385631481637 [Eh]
	 Correlation Energy        =      -0.8154680170197697 [Eh]
	 Total Energy              =    -833.7962010225927543 [Eh]
	-----------------------------------------------------------
	 ================> DF-SCS-MP2 Energies <================== 
	-----------------------------------------------------------
	 SCS Same-Spin Scale       =       0.3333333333333333 [-]
	 SCS Opposite-Spin Scale   =       1.2000000000000000 [-]
	 SCS Same-Spin Energy      =      -0.0727431512905353 [Eh]
	 SCS Opposite-Spin Energy  =      -0.7166862757777964 [Eh]
	 SCS Correlation Energy    =      -0.7894294270683317 [Eh]
	 SCS Total Energy          =    -833.7701624326413139 [Eh]
	-----------------------------------------------------------


  -Total Gradient:
     Atom            X                  Y                   Z
    ------   -----------------  -----------------  -----------------
       1        0.000000339848     0.000000000000     0.000100363266
       2       -0.000000680526     0.000000000000    -0.000000035843
       3        0.000000340677     0.000000000000    -0.000100327421


*** tstop() called on bp1-compute00145.data.bp.acrc.priv at Mon Apr 19 16:12:45 2021
Module time:
	user time   =     111.37 seconds =       1.86 minutes
	system time =       5.27 seconds =       0.09 minutes
	total time  =          9 seconds =       0.15 minutes
Total time:
	user time   =     282.02 seconds =       4.70 minutes
	system time =      13.43 seconds =       0.22 minutes
	total time  =         22 seconds =       0.37 minutes

			-----------------------------------------
			 OPTKING 2.0: for geometry optimizations 
			  - R.A. King,  Bethel University        
			-----------------------------------------

	Previous internal coordinate definitions found.
	---Fragment 1 Geometry and Gradient---
	 S          -0.0000093436        0.0000000000        2.9338945714
	 C          -0.0000093436        0.0000000000       -0.0000000344
	 S           0.0000128505        0.0000000000       -2.9338945585
	             0.0000003398        0.0000000000        0.0001003633
	            -0.0000006805        0.0000000000       -0.0000000358
	             0.0000003407        0.0000000000       -0.0001003274

	---Fragment 1 Intrafragment Coordinates---
	 - Coordinate -           - BOHR/RAD -       - ANG/DEG -
	 R(1,2)           =         2.933895	       1.552550
	 R(2,3)           =         2.933895	       1.552550
	 L(1,2,3)         =         3.141585	     179.999567
	 l(1,2,3)         =         3.141593	     180.000000

	Current energy   :      -833.7962010226

	Energy change for the previous step:
		Projected    :        -0.0000041060
		Actual       :        -0.0000022385

	Performing BFGS update.
	Previous computed or guess Hessian on step 1.
	Steps to be used in Hessian update: 1
	Taking RFO optimization step.
	Going to follow RFO solution 1.
	Using RFO vector 1.
	Norm of target step-size    0.00025
	Projected energy change by RFO approximation:        -0.0000000370

	Back-transformation to cartesian coordinates...
	Successfully converged to displaced geometry.

	--- Internal Coordinate Step in ANG or DEG, aJ/ANG or AJ/DEG ---
	 ---------------------------------------------------------------------------
	   Coordinate                Previous        Force       Change         New 
	   ----------                --------       ------       ------       ------
	    1 R(1,2)          =      1.552550    -0.000827    -0.000095     1.552455
	    2 R(2,3)          =      1.552550    -0.000827    -0.000095     1.552455
	    3 L(1,2,3)        =    179.999567     0.000000     0.000251   179.999818
	    4 l(1,2,3)        =    180.000000     0.000000     0.000000   180.000000
	 ---------------------------------------------------------------------------
	Successfully symmetrized geometry.

  ==> Convergence Check <==

  Measures of convergence in internal coordinates in au.
  Criteria marked as inactive (o), active & met (*), and active & unmet ( ).
  ---------------------------------------------------------------------------------------------
   Step     Total Energy     Delta E     MAX Force     RMS Force      MAX Disp      RMS Disp   
  ---------------------------------------------------------------------------------------------
    Convergence Criteria    1.00e-06 *    3.00e-04 *             o    1.20e-03 *             o
  ---------------------------------------------------------------------------------------------
      2    -833.79620102   -2.24e-06      1.00e-04 *    7.10e-05 o    1.80e-04 *    1.27e-04 o  ~
  ---------------------------------------------------------------------------------------------


  **** Optimization is complete! (in 2 steps) ****

  ==> Optimization Summary <==

  Measures of convergence in internal coordinates in au.
  --------------------------------------------------------------------------------------------------------------- ~
   Step         Total Energy             Delta E       MAX Force       RMS Force        MAX Disp        RMS Disp  ~
  --------------------------------------------------------------------------------------------------------------- ~
      1    -833.796198784059   -833.796198784059      0.00112259      0.00079370      0.00182920      0.00129330  ~
      2    -833.796201022593     -0.000002238534      0.00010036      0.00007096      0.00017959      0.00012699  ~
  --------------------------------------------------------------------------------------------------------------- ~

	Writing optimization data to binary file.
	Final energy is   -833.7962010225928
	Final (previous) structure:
	Cartesian Geometry (in Angstrom)
	    S    -0.0000049444   0.0000000000   1.5525501396
	    C    -0.0000049444   0.0000000000  -0.0000000182
	    S     0.0000068002   0.0000000000  -1.5525501327
	Saving final (previous) structure.
			--------------------------
			 OPTKING Finished Execution 
			--------------------------

    Final optimized geometry and variables:
    Molecular point group: cs
    Full point group: C_inf_v

    Geometry (in Angstrom), charge = 0, multiplicity = 1:

    S           -0.000004944425     0.000000000000     1.552550145679
    C           -0.000004944425     0.000000000000    -0.000000018197
    S            0.000006800204     0.000000000000    -1.552550138849

	Removing binary optimization data file.
	Cleaning optimization helper files.
gradient() will perform analytic gradient computation.
    SCF Algorithm Type (re)set to DF.

*** tstart() called on bp1-compute00145.data.bp.acrc.priv
*** at Mon Apr 19 16:12:45 2021

   => Loading Basis Set <=

    Name: AUG-CC-PV(Q+D)Z
    Role: ORBITAL
    Keyword: BASIS
    atoms 1, 3 entry S          line  1148 file /work/zw18965/.conda/envs/p4env/share/psi4/basis/aug-cc-pv_qpd_z.gbs 
    atoms 2    entry C          line   319 file /work/zw18965/.conda/envs/p4env/share/psi4/basis/aug-cc-pv_qpd_z.gbs 


         ---------------------------------------------------------
                                   SCF
               by Justin Turney, Rob Parrish, Andy Simmonett
                          and Daniel G. A. Smith
                              RHF Reference
                       24 Threads, 137329 MiB Core
         ---------------------------------------------------------

  ==> Geometry <==

    Molecular point group: cs
    Full point group: C_inf_v

    Geometry (in Angstrom), charge = 0, multiplicity = 1:

       Center              X                  Y                   Z               Mass       
    ------------   -----------------  -----------------  -----------------  -----------------
         S           -0.000004944425     0.000000000000     1.552550145679    31.972071174400
         C           -0.000004944425     0.000000000000    -0.000000018197    12.000000000000
         S            0.000006800204     0.000000000000    -1.552550138849    31.972071174400

  Running in cs symmetry.

  Rotational constants: A = ************  B =      0.10937  C =      0.10937 [cm^-1]
  Rotational constants: A = ************  B =   3278.87728  C =   3278.87728 [MHz]
  Nuclear repulsion =  109.070040833309349

  Charge       = 0
  Multiplicity = 1
  Electrons    = 38
  Nalpha       = 19
  Nbeta        = 19

  ==> Algorithm <==

  SCF Algorithm Type is DF.
  DIIS enabled.
  MOM disabled.
  Fractional occupation disabled.
  Guess Type is SAD.
  Energy threshold   = 1.00e-10
  Density threshold  = 1.00e-10
  Integral threshold = 0.00e+00

  ==> Primary Basis <==

  Basis Set: AUG-CC-PV(Q+D)Z
    Blend: AUG-CC-PV(Q+D)Z
    Number of shells: 66
    Number of basis function: 258
    Number of Cartesian functions: 335
    Spherical Harmonics?: true
    Max angular momentum: 4

   => Loading Basis Set <=

    Name: (AUG-CC-PV(Q+D)Z AUX)
    Role: JKFIT
    Keyword: DF_BASIS_SCF
    atoms 1, 3 entry S          line   810 file /work/zw18965/.conda/envs/p4env/share/psi4/basis/aug-cc-pvqz-jkfit.gbs 
    atoms 2    entry C          line   178 file /work/zw18965/.conda/envs/p4env/share/psi4/basis/aug-cc-pvqz-jkfit.gbs 

  ==> Pre-Iterations <==

   -------------------------------------------------------
    Irrep   Nso     Nmo     Nalpha   Nbeta   Ndocc  Nsocc
   -------------------------------------------------------
     A'       162     162       0       0       0       0
     A"        96      96       0       0       0       0
   -------------------------------------------------------
    Total     258     258      19      19      19       0
   -------------------------------------------------------

  ==> Integral Setup <==

  DFHelper Memory: AOs need 0.282 GiB; user supplied 100.583 GiB. Using in-core AOs.

  ==> MemDFJK: Density-Fitted J/K Matrices <==

    J tasked:                   Yes
    K tasked:                   Yes
    wK tasked:                   No
    OpenMP threads:              24
    Memory [MiB]:            102996
    Algorithm:                 Core
    Schwarz Cutoff:           1E-12
    Mask sparsity (%):       0.6280
    Fitting Condition:        1E-10

   => Auxiliary Basis Set <=

  Basis Set: (AUG-CC-PV(Q+D)Z AUX)
    Blend: AUG-CC-PVQZ-JKFIT
    Number of shells: 126
    Number of basis function: 510
    Number of Cartesian functions: 692
    Spherical Harmonics?: true
    Max angular momentum: 5

  Minimum eigenvalue in the overlap matrix is 1.9851093189E-05.
  Using Symmetric Orthogonalization.

  SCF Guess: Superposition of Atomic Densities via on-the-fly atomic UHF.

  ==> Iterations <==

                           Total Energy        Delta E     RMS |[F,P]|

   @DF-RHF iter SAD:  -832.52175391718185   -8.32522e+02   0.00000e+00 
   @DF-RHF iter   1:  -832.95933398223826   -4.37580e-01   1.10870e-03 DIIS
   @DF-RHF iter   2:  -832.97772769684855   -1.83937e-02   3.05255e-04 DIIS
   @DF-RHF iter   3:  -832.97991071272440   -2.18302e-03   1.62389e-04 DIIS
   @DF-RHF iter   4:  -832.98052703579879   -6.16323e-04   6.36617e-05 DIIS
   @DF-RHF iter   5:  -832.98071601642698   -1.88981e-04   2.12872e-05 DIIS
   @DF-RHF iter   6:  -832.98073282062546   -1.68042e-05   2.22542e-06 DIIS
   @DF-RHF iter   7:  -832.98073299903672   -1.78411e-07   4.84236e-07 DIIS
   @DF-RHF iter   8:  -832.98073300548037   -6.44366e-09   5.01238e-08 DIIS
   @DF-RHF iter   9:  -832.98073300558326   -1.02887e-10   8.73142e-09 DIIS
   @DF-RHF iter  10:  -832.98073300558474   -1.47793e-12   1.05444e-09 DIIS
   @DF-RHF iter  11:  -832.98073300558576   -1.02318e-12   1.63624e-10 DIIS
   @DF-RHF iter  12:  -832.98073300558531    4.54747e-13   1.69994e-11 DIIS
  Energy and wave function converged.


  ==> Post-Iterations <==

    Orbital Energies [Eh]
    ---------------------

    Doubly Occupied:                                                      

       1Ap   -91.989140     2Ap   -91.989140     3Ap   -11.399250  
       4Ap    -8.993317     5Ap    -8.993295     6Ap    -6.674630  
       7Ap    -6.674618     8Ap    -6.672780     1App   -6.672780  
       9Ap    -6.672779     2App   -6.672779    10Ap    -1.142781  
      11Ap    -1.019995    12Ap    -0.679107    13Ap    -0.583164  
      14Ap    -0.525879     3App   -0.525879     4App   -0.372493  
      15Ap    -0.372493  

    Virtual:                                                              

      16Ap     0.038955     5App    0.038955    17Ap     0.046948  
      18Ap     0.048898    19Ap     0.076243    20Ap     0.087139  
       6App    0.087139    21Ap     0.088005     7App    0.088005  
      22Ap     0.116628    23Ap     0.122916     8App    0.122916  
      24Ap     0.159331    25Ap     0.172441     9App    0.179049  
      26Ap     0.179049    27Ap     0.213567    10App    0.236554  
      28Ap     0.236554    29Ap     0.237581    11App    0.241984  
      30Ap     0.241984    31Ap     0.267925    32Ap     0.302113  
      12App    0.302113    13App    0.335219    33Ap     0.335219  
      34Ap     0.343778    14App    0.376055    35Ap     0.376055  
      36Ap     0.386003    15App    0.396812    37Ap     0.396812  
      38Ap     0.459251    39Ap     0.480396    16App    0.494898  
      40Ap     0.494898    17App    0.508068    41Ap     0.508068  
      18App    0.526652    42Ap     0.526652    19App    0.537473  
      43Ap     0.537473    44Ap     0.538862    20App    0.546689  
      45Ap     0.546689    46Ap     0.583812    21App    0.589788  
      47Ap     0.589788    48Ap     0.619076    22App    0.619076  
      49Ap     0.633473    23App    0.633473    24App    0.701833  
      50Ap     0.701833    25App    0.705627    51Ap     0.705627  
      52Ap     0.728504    53Ap     0.737345    26App    0.755039  
      54Ap     0.755039    55Ap     0.846727    56Ap     0.903374  
      27App    0.903374    28App    0.937535    57Ap     0.937535  
      58Ap     0.965318    59Ap     0.994450    60Ap     1.017784  
      29App    1.017784    61Ap     1.089519    30App    1.127442  
      62Ap     1.127442    63Ap     1.159262    64Ap     1.181885  
      31App    1.181885    65Ap     1.245739    32App    1.252422  
      66Ap     1.252422    67Ap     1.314847    33App    1.314847  
      34App    1.329492    68Ap     1.329492    35App    1.399883  
      69Ap     1.399883    70Ap     1.453996    36App    1.453996  
      71Ap     1.480946    37App    1.480946    72Ap     1.482222  
      38App    1.482222    73Ap     1.501176    39App    1.501176  
      40App    1.504901    74Ap     1.504901    75Ap     1.505725  
      76Ap     1.532673    41App    1.550638    77Ap     1.550638  
      78Ap     1.643843    42App    1.643843    43App    1.644893  
      79Ap     1.644893    44App    1.670105    80Ap     1.670105  
      45App    1.672113    81Ap     1.672113    46App    1.699768  
      82Ap     1.699768    83Ap     1.705518    84Ap     1.761962  
      85Ap     1.799333    47App    1.799333    48App    1.905249  
      86Ap     1.905249    87Ap     1.919889    88Ap     1.985605  
      49App    1.985605    89Ap     2.015110    90Ap     2.066377  
      50App    2.066377    51App    2.143364    91Ap     2.143364  
      92Ap     2.172063    93Ap     2.177000    52App    2.182604  
      94Ap     2.182604    95Ap     2.208577    53App    2.208577  
      96Ap     2.328981    54App    2.328981    97Ap     2.346148  
      55App    2.346148    56App    2.483676    98Ap     2.483676  
      99Ap     2.594226   100Ap     2.730071   101Ap     2.731516  
      57App    2.731516   102Ap     2.852062    58App    2.852062  
     103Ap     2.906134   104Ap     2.935784    59App    2.935784  
      60App    2.986943   105Ap     2.986943   106Ap     3.038839  
     107Ap     3.177648    61App    3.177648   108Ap     3.212824  
      62App    3.212824   109Ap     3.234363   110Ap     3.352518  
      63App    3.352518    64App    3.404606   111Ap     3.404606  
     112Ap     3.494680    65App    3.521392   113Ap     3.521392  
     114Ap     3.588723    66App    3.588723    67App    3.688584  
     115Ap     3.688584    68App    3.695985   116Ap     3.695985  
     117Ap     3.794279   118Ap     3.842059    69App    3.842059  
     119Ap     3.849877    70App    3.849877   120Ap     3.898757  
      71App    3.898757   121Ap     3.944282    72App    3.944282  
     122Ap     4.007838    73App    4.007838   123Ap     4.021656  
      74App    4.021656   124Ap     4.047116    75App    4.047116  
     125Ap     4.096426   126Ap     4.181270   127Ap     4.314055  
      76App    4.314055    77App    4.347077   128Ap     4.347077  
     129Ap     4.401940    78App    4.567835   130Ap     4.567835  
     131Ap     4.669085   132Ap     4.685765    79App    4.685765  
     133Ap     4.735437   134Ap     5.009887    80App    5.009887  
     135Ap     5.158477   136Ap     5.927088    81App    5.927088  
      82App    6.084674   137Ap     6.084674   138Ap     6.220788  
      83App    6.220788    84App    6.370284   139Ap     6.370284  
     140Ap     6.481907    85App    6.481907    86App    6.506162  
     141Ap     6.506162    87App    6.527767   142Ap     6.527767  
      88App    6.690770   143Ap     6.690770   144Ap     6.699999  
     145Ap     6.718913   146Ap     6.804069    89App    6.804069  
      90App    6.854348   147Ap     6.854348   148Ap     7.202472  
     149Ap     7.431914    91App    7.431914   150Ap     8.019219  
      92App    8.019219   151Ap     8.707687   152Ap     9.143571  
     153Ap     9.154685   154Ap     9.379501    93App    9.379501  
     155Ap     9.422941    94App    9.422941    95App    9.714364  
     156Ap     9.714364   157Ap     9.808636    96App    9.808636  
     158Ap    10.034687   159Ap    10.806859   160Ap    20.647980  
     161Ap    22.065241   162Ap    23.874436  

    Final Occupation by Irrep:
             Ap   App 
    DOCC [    15,    4 ]

  @DF-RHF Final Energy:  -832.98073300558531

   => Energetics <=

    Nuclear Repulsion Energy =            109.0700408333093492
    One-Electron Energy =               -1366.8489512770686360
    Two-Electron Energy =                 424.7981774381739228
    Total Energy =                       -832.9807330055853072

Computation Completed


Properties will be evaluated at   0.000000,   0.000000,   0.000000 [a0]

Properties computed using the SCF density matrix

  Nuclear Dipole Moment: [e a0]
     X:     0.0000      Y:     0.0000      Z:     0.0000

  Electronic Dipole Moment: [e a0]
     X:     0.0000      Y:     0.0000      Z:    -0.0000

  Dipole Moment: [e a0]
     X:     0.0000      Y:     0.0000      Z:    -0.0000     Total:     0.0000

  Dipole Moment: [D]
     X:     0.0000      Y:     0.0000      Z:    -0.0000     Total:     0.0000


*** tstop() called on bp1-compute00145.data.bp.acrc.priv at Mon Apr 19 16:12:47 2021
Module time:
	user time   =      36.36 seconds =       0.61 minutes
	system time =       1.32 seconds =       0.02 minutes
	total time  =          2 seconds =       0.03 minutes
Total time:
	user time   =     319.74 seconds =       5.33 minutes
	system time =      14.85 seconds =       0.25 minutes
	total time  =         24 seconds =       0.40 minutes

*** tstart() called on bp1-compute00145.data.bp.acrc.priv
*** at Mon Apr 19 16:12:47 2021


  //>>>>>>>>>>>>>>>>>>>>>>>>>>>>>>>>>>>//
  //               DFMP2               //
  //<<<<<<<<<<<<<<<<<<<<<<<<<<<<<<<<<<<//

   => Loading Basis Set <=

    Name: (AUG-CC-PV(Q+D)Z AUX)
    Role: RIFIT
    Keyword: DF_BASIS_MP2
    atoms 1, 3 entry S          line   824 file /work/zw18965/.conda/envs/p4env/share/psi4/basis/aug-cc-pvqz-ri.gbs 
    atoms 2    entry C          line   184 file /work/zw18965/.conda/envs/p4env/share/psi4/basis/aug-cc-pvqz-ri.gbs 

	 --------------------------------------------------------
	                          DF-MP2                         
	      2nd-Order Density-Fitted Moller-Plesset Theory     
	              RMP2 Wavefunction,  24 Threads             
	                                                         
	        Rob Parrish, Justin Turney, Andy Simmonett,      
	           Ed Hohenstein, and C. David Sherrill          
	 --------------------------------------------------------

   => Auxiliary Basis Set <=

  Basis Set: (AUG-CC-PV(Q+D)Z AUX)
    Blend: AUG-CC-PVQZ-RI
    Number of shells: 124
    Number of basis function: 556
    Number of Cartesian functions: 773
    Spherical Harmonics?: true
    Max angular momentum: 5

	 --------------------------------------------------------
	                 NBF =   258, NAUX =   556
	 --------------------------------------------------------
	   CLASS    FOCC     OCC    AOCC    AVIR     VIR    FVIR
	   PAIRS       0      19      19     239     239       0
	 --------------------------------------------------------

  DFHelper Memory: AOs need 0.282 GiB; user supplied 100.583 GiB. Using in-core AOs.


         ------------------------------------------------------------
                                     CPHF                           
                                  Rob Parrish                       
         ------------------------------------------------------------

  ==> Geometry <==

    Molecular point group: cs
    Full point group: C_inf_v

    Geometry (in Angstrom), charge = 0, multiplicity = 1:

       Center              X                  Y                   Z               Mass       
    ------------   -----------------  -----------------  -----------------  -----------------
         S           -0.000004944425     0.000000000000     1.552550145679    31.972071174400
         C           -0.000004944425     0.000000000000    -0.000000018197    12.000000000000
         S            0.000006800204     0.000000000000    -1.552550138849    31.972071174400

  Nuclear repulsion =  109.070040833309349
  Reference energy  = -832.980733005585307

  ==> Basis Set <==

  Basis Set: AUG-CC-PV(Q+D)Z
    Blend: AUG-CC-PV(Q+D)Z
    Number of shells: 66
    Number of basis function: 258
    Number of Cartesian functions: 335
    Spherical Harmonics?: true
    Max angular momentum: 4

  ==> CGRSolver (by Rob Parrish) <==

   Number of roots    =         1
   Preconditioning    =    JACOBI
   Convergence cutoff =     1E-06
   Maximum iterations =       100

  ==> CPHFRHamiltonian (by Rob Parrish) <== 

  ==> MemDFJK: Density-Fitted J/K Matrices <==

    J tasked:                   Yes
    K tasked:                   Yes
    wK tasked:                   No
    OpenMP threads:              24
    Memory [MiB]:            102996
    Algorithm:                 Core
    Schwarz Cutoff:           1E-12
    Mask sparsity (%):       0.6280
    Fitting Condition:        1E-10

   => Auxiliary Basis Set <=

  Basis Set: (AUG-CC-PV(Q+D)Z AUX)
    Blend: AUG-CC-PVQZ-JKFIT
    Number of shells: 126
    Number of basis function: 510
    Number of Cartesian functions: 692
    Spherical Harmonics?: true
    Max angular momentum: 5

  ==> CPHF Iterations <==

  => Iterations <=

             Iter  Converged  Remaining    Residual
  CGR           1          0          1   1.350E-01
  CGR           2          0          1   3.682E-02
  CGR           3          0          1   1.333E-02
  CGR           4          0          1   1.802E-03
  CGR           5          0          1   4.129E-04
  CGR           6          0          1   5.777E-05
  CGR           7          0          1   1.125E-05
  CGR           8          0          1   1.674E-06
  CGR           9          1          0   1.704E-07

    CGRSolver converged.

Problem determining natural orbital and density matrix symmetries.
Future calls to oeprop using this density will not work. Try disabling symmetry.

  ==> DFCorrGrad: Density-Fitted Correlated Gradients <==

    OpenMP threads:             24
    Integrals threads:          24
    Memory [GiB]:          100.583
    Schwarz Cutoff:          0E+00
    Fitting Condition:       1E-10

   => Auxiliary Basis Set <=

  Basis Set: (AUG-CC-PV(Q+D)Z AUX)
    Blend: AUG-CC-PVQZ-JKFIT
    Number of shells: 126
    Number of basis function: 510
    Number of Cartesian functions: 692
    Spherical Harmonics?: true
    Max angular momentum: 5

	-----------------------------------------------------------
	 ==================> DF-MP2 Energies <==================== 
	-----------------------------------------------------------
	 Reference Energy          =    -832.9807330055853072 [Eh]
	 Singles Energy            =      -0.0000000000000000 [Eh]
	 Same-Spin Energy          =      -0.2182294537846568 [Eh]
	 Opposite-Spin Energy      =      -0.5972385629990971 [Eh]
	 Correlation Energy        =      -0.8154680167837538 [Eh]
	 Total Energy              =    -833.7962010223690186 [Eh]
	-----------------------------------------------------------
	 ================> DF-SCS-MP2 Energies <================== 
	-----------------------------------------------------------
	 SCS Same-Spin Scale       =       0.3333333333333333 [-]
	 SCS Opposite-Spin Scale   =       1.2000000000000000 [-]
	 SCS Same-Spin Energy      =      -0.0727431512615523 [Eh]
	 SCS Opposite-Spin Energy  =      -0.7166862755989164 [Eh]
	 SCS Correlation Energy    =      -0.7894294268604687 [Eh]
	 SCS Total Energy          =    -833.7701624324457725 [Eh]
	-----------------------------------------------------------


  -Total Gradient:
     Atom            X                  Y                   Z
    ------   -----------------  -----------------  -----------------
       1        0.000000339879     0.000000000000     0.000100370300
       2       -0.000000680518     0.000000000000    -0.000000045287
       3        0.000000340639     0.000000000000    -0.000100324953


*** tstop() called on bp1-compute00145.data.bp.acrc.priv at Mon Apr 19 16:12:56 2021
Module time:
	user time   =     110.00 seconds =       1.83 minutes
	system time =       5.41 seconds =       0.09 minutes
	total time  =          9 seconds =       0.15 minutes
Total time:
	user time   =     429.75 seconds =       7.16 minutes
	system time =      20.26 seconds =       0.34 minutes
	total time  =         33 seconds =       0.55 minutes

  Based on options and gradient (rms=4.73E-05), recommend projecting translations and projecting rotations.
hessian() will perform frequency computation by finite difference of analytic gradients.

         ----------------------------------------------------------
                                   FINDIF
                     R. A. King and Jonathon Misiewicz
         ---------------------------------------------------------

  Using finite-differences of gradients to determine vibrational frequencies and 
  normal modes.  Resulting frequencies are only valid at stationary points.
    Generating geometries for use with 3-point formula.
    Displacement size will be 5.00e-03.
    Number of atoms is 3.
    Number of irreps is 2.
    Number of SALCs is 3.
    Translations projected? 1. Rotations projected? 1.
    Index of SALCs per irrep:
     1 :  0  1  2 
     2 : 
    Number of SALCs per irrep:
     Irrep 1: 3
     Irrep 2: 0
    Number of geometries (including reference) is 7.
    Number of displacements per irrep:
      Irrep 1: 6
      Irrep 2: 0

  //>>>>>>>>>>>>>>>>>>>>>>>>>>>>>>>>>>>//
  //    Loading displacement 1 of 7    //
  //<<<<<<<<<<<<<<<<<<<<<<<<<<<<<<<<<<<//
gradient() will perform analytic gradient computation.
    SCF Algorithm Type (re)set to DF.

*** tstart() called on bp1-compute00145.data.bp.acrc.priv
*** at Mon Apr 19 16:12:56 2021

   => Loading Basis Set <=

    Name: AUG-CC-PV(Q+D)Z
    Role: ORBITAL
    Keyword: BASIS
    atoms 1, 3 entry S          line  1148 file /work/zw18965/.conda/envs/p4env/share/psi4/basis/aug-cc-pv_qpd_z.gbs 
    atoms 2    entry C          line   319 file /work/zw18965/.conda/envs/p4env/share/psi4/basis/aug-cc-pv_qpd_z.gbs 


         ---------------------------------------------------------
                                   SCF
               by Justin Turney, Rob Parrish, Andy Simmonett
                          and Daniel G. A. Smith
                              RHF Reference
                       24 Threads, 137329 MiB Core
         ---------------------------------------------------------

  ==> Geometry <==

    Molecular point group: cs
    Full point group: C_inf_v

    Geometry (in Angstrom), charge = 0, multiplicity = 1:

       Center              X                  Y                   Z               Mass       
    ------------   -----------------  -----------------  -----------------  -----------------
         S           -0.000004944425     0.000000000000     1.552550145679    31.972071174400
         C           -0.000004944425     0.000000000000    -0.000000018197    12.000000000000
         S            0.000006800204     0.000000000000    -1.552550138849    31.972071174400

  Running in cs symmetry.

  Rotational constants: A = ************  B =      0.10937  C =      0.10937 [cm^-1]
  Rotational constants: A = ************  B =   3278.87728  C =   3278.87728 [MHz]
  Nuclear repulsion =  109.070040833309363

  Charge       = 0
  Multiplicity = 1
  Electrons    = 38
  Nalpha       = 19
  Nbeta        = 19

  ==> Algorithm <==

  SCF Algorithm Type is DF.
  DIIS enabled.
  MOM disabled.
  Fractional occupation disabled.
  Guess Type is SAD.
  Energy threshold   = 1.00e-10
  Density threshold  = 1.00e-10
  Integral threshold = 0.00e+00

  ==> Primary Basis <==

  Basis Set: AUG-CC-PV(Q+D)Z
    Blend: AUG-CC-PV(Q+D)Z
    Number of shells: 66
    Number of basis function: 258
    Number of Cartesian functions: 335
    Spherical Harmonics?: true
    Max angular momentum: 4

   => Loading Basis Set <=

    Name: (AUG-CC-PV(Q+D)Z AUX)
    Role: JKFIT
    Keyword: DF_BASIS_SCF
    atoms 1, 3 entry S          line   810 file /work/zw18965/.conda/envs/p4env/share/psi4/basis/aug-cc-pvqz-jkfit.gbs 
    atoms 2    entry C          line   178 file /work/zw18965/.conda/envs/p4env/share/psi4/basis/aug-cc-pvqz-jkfit.gbs 

  ==> Pre-Iterations <==

   -------------------------------------------------------
    Irrep   Nso     Nmo     Nalpha   Nbeta   Ndocc  Nsocc
   -------------------------------------------------------
     A'       162     162       0       0       0       0
     A"        96      96       0       0       0       0
   -------------------------------------------------------
    Total     258     258      19      19      19       0
   -------------------------------------------------------

  ==> Integral Setup <==

  DFHelper Memory: AOs need 0.282 GiB; user supplied 100.583 GiB. Using in-core AOs.

  ==> MemDFJK: Density-Fitted J/K Matrices <==

    J tasked:                   Yes
    K tasked:                   Yes
    wK tasked:                   No
    OpenMP threads:              24
    Memory [MiB]:            102996
    Algorithm:                 Core
    Schwarz Cutoff:           1E-12
    Mask sparsity (%):       0.6280
    Fitting Condition:        1E-10

   => Auxiliary Basis Set <=

  Basis Set: (AUG-CC-PV(Q+D)Z AUX)
    Blend: AUG-CC-PVQZ-JKFIT
    Number of shells: 126
    Number of basis function: 510
    Number of Cartesian functions: 692
    Spherical Harmonics?: true
    Max angular momentum: 5

  Minimum eigenvalue in the overlap matrix is 1.9851093189E-05.
  Using Symmetric Orthogonalization.

  SCF Guess: Superposition of Atomic Densities via on-the-fly atomic UHF.

  ==> Iterations <==

                           Total Energy        Delta E     RMS |[F,P]|

   @DF-RHF iter SAD:  -832.52175391712296   -8.32522e+02   0.00000e+00 
   @DF-RHF iter   1:  -832.95933398218040   -4.37580e-01   1.10870e-03 DIIS
   @DF-RHF iter   2:  -832.97772769679079   -1.83937e-02   3.05255e-04 DIIS
   @DF-RHF iter   3:  -832.97991071266586   -2.18302e-03   1.62389e-04 DIIS
   @DF-RHF iter   4:  -832.98052703574115   -6.16323e-04   6.36617e-05 DIIS
   @DF-RHF iter   5:  -832.98071601636877   -1.88981e-04   2.12872e-05 DIIS
   @DF-RHF iter   6:  -832.98073282056805   -1.68042e-05   2.22542e-06 DIIS
   @DF-RHF iter   7:  -832.98073299897919   -1.78411e-07   4.84236e-07 DIIS
   @DF-RHF iter   8:  -832.98073300542296   -6.44377e-09   5.01238e-08 DIIS
   @DF-RHF iter   9:  -832.98073300552494   -1.01977e-10   8.73142e-09 DIIS
   @DF-RHF iter  10:  -832.98073300552733   -2.38742e-12   1.05444e-09 DIIS
   @DF-RHF iter  11:  -832.98073300552755   -2.27374e-13   1.63627e-10 DIIS
   @DF-RHF iter  12:  -832.98073300552790   -3.41061e-13   1.70029e-11 DIIS
  Energy and wave function converged.


  ==> Post-Iterations <==

    Orbital Energies [Eh]
    ---------------------

    Doubly Occupied:                                                      

       1Ap   -91.989140     2Ap   -91.989140     3Ap   -11.399250  
       4Ap    -8.993317     5Ap    -8.993295     6Ap    -6.674630  
       7Ap    -6.674618     8Ap    -6.672780     1App   -6.672780  
       9Ap    -6.672779     2App   -6.672779    10Ap    -1.142781  
      11Ap    -1.019995    12Ap    -0.679107    13Ap    -0.583164  
      14Ap    -0.525879     3App   -0.525879     4App   -0.372493  
      15Ap    -0.372493  

    Virtual:                                                              

      16Ap     0.038955     5App    0.038955    17Ap     0.046948  
      18Ap     0.048898    19Ap     0.076243    20Ap     0.087139  
       6App    0.087139     7App    0.088005    21Ap     0.088005  
      22Ap     0.116628     8App    0.122916    23Ap     0.122916  
      24Ap     0.159331    25Ap     0.172441    26Ap     0.179049  
       9App    0.179049    27Ap     0.213567    28Ap     0.236554  
      10App    0.236554    29Ap     0.237581    11App    0.241984  
      30Ap     0.241984    31Ap     0.267925    12App    0.302113  
      32Ap     0.302113    13App    0.335219    33Ap     0.335219  
      34Ap     0.343778    14App    0.376055    35Ap     0.376055  
      36Ap     0.386003    15App    0.396812    37Ap     0.396812  
      38Ap     0.459251    39Ap     0.480396    40Ap     0.494898  
      16App    0.494898    17App    0.508068    41Ap     0.508068  
      42Ap     0.526652    18App    0.526652    19App    0.537473  
      43Ap     0.537473    44Ap     0.538862    20App    0.546689  
      45Ap     0.546689    46Ap     0.583812    47Ap     0.589788  
      21App    0.589788    48Ap     0.619076    22App    0.619076  
      23App    0.633473    49Ap     0.633473    24App    0.701833  
      50Ap     0.701833    25App    0.705627    51Ap     0.705627  
      52Ap     0.728504    53Ap     0.737345    54Ap     0.755039  
      26App    0.755039    55Ap     0.846727    56Ap     0.903374  
      27App    0.903374    28App    0.937535    57Ap     0.937535  
      58Ap     0.965318    59Ap     0.994450    29App    1.017784  
      60Ap     1.017784    61Ap     1.089519    30App    1.127442  
      62Ap     1.127442    63Ap     1.159262    31App    1.181885  
      64Ap     1.181885    65Ap     1.245739    66Ap     1.252422  
      32App    1.252422    67Ap     1.314847    33App    1.314847  
      68Ap     1.329492    34App    1.329492    69Ap     1.399883  
      35App    1.399883    36App    1.453996    70Ap     1.453996  
      37App    1.480946    71Ap     1.480946    72Ap     1.482222  
      38App    1.482222    73Ap     1.501176    39App    1.501176  
      74Ap     1.504901    40App    1.504901    75Ap     1.505725  
      76Ap     1.532673    77Ap     1.550638    41App    1.550638  
      78Ap     1.643843    42App    1.643843    43App    1.644893  
      79Ap     1.644893    80Ap     1.670105    44App    1.670105  
      45App    1.672113    81Ap     1.672113    82Ap     1.699768  
      46App    1.699768    83Ap     1.705518    84Ap     1.761962  
      85Ap     1.799333    47App    1.799333    48App    1.905249  
      86Ap     1.905249    87Ap     1.919889    88Ap     1.985605  
      49App    1.985605    89Ap     2.015110    50App    2.066377  
      90Ap     2.066377    91Ap     2.143364    51App    2.143364  
      92Ap     2.172063    93Ap     2.177000    52App    2.182604  
      94Ap     2.182604    53App    2.208577    95Ap     2.208577  
      96Ap     2.328981    54App    2.328981    97Ap     2.346148  
      55App    2.346148    56App    2.483676    98Ap     2.483676  
      99Ap     2.594226   100Ap     2.730071    57App    2.731516  
     101Ap     2.731516   102Ap     2.852062    58App    2.852062  
     103Ap     2.906134    59App    2.935784   104Ap     2.935784  
     105Ap     2.986943    60App    2.986943   106Ap     3.038839  
      61App    3.177648   107Ap     3.177648   108Ap     3.212824  
      62App    3.212824   109Ap     3.234363    63App    3.352518  
     110Ap     3.352518   111Ap     3.404606    64App    3.404606  
     112Ap     3.494680   113Ap     3.521392    65App    3.521392  
      66App    3.588723   114Ap     3.588723   115Ap     3.688584  
      67App    3.688584   116Ap     3.695985    68App    3.695985  
     117Ap     3.794279    69App    3.842059   118Ap     3.842059  
[...]
      56Ap     0.903354    28App    0.937499    57Ap     0.937499  
      58Ap     0.965312    59Ap     0.994426    60Ap     1.017735  
      29App    1.017735    61Ap     1.089495    30App    1.127430  
      62Ap     1.127430    63Ap     1.159168    31App    1.181860  
      64Ap     1.181860    65Ap     1.245741    32App    1.252426  
      66Ap     1.252426    67Ap     1.314845    33App    1.314845  
      34App    1.329496    68Ap     1.329496    69Ap     1.399835  
      35App    1.399835    70Ap     1.454001    36App    1.454001  
      71Ap     1.480942    37App    1.480942    38App    1.482238  
      72Ap     1.482238    73Ap     1.501158    39App    1.501158  
      74Ap     1.504908    40App    1.504908    75Ap     1.505727  
      76Ap     1.532568    77Ap     1.550626    41App    1.550626  
      42App    1.643784    78Ap     1.643784    43App    1.644903  
      79Ap     1.644903    44App    1.670080    80Ap     1.670080  
      45App    1.672120    81Ap     1.672120    82Ap     1.699712  
      46App    1.699712    83Ap     1.705472    84Ap     1.761910  
      85Ap     1.799282    47App    1.799282    48App    1.905156  
      86Ap     1.905156    87Ap     1.919801    88Ap     1.985584  
      49App    1.985584    89Ap     2.015101    50App    2.066368  
      90Ap     2.066368    91Ap     2.143348    51App    2.143348  
      92Ap     2.172062    93Ap     2.177110    52App    2.182515  
      94Ap     2.182515    53App    2.208540    95Ap     2.208540  
      96Ap     2.328891    54App    2.328891    97Ap     2.346105  
      55App    2.346105    56App    2.483624    98Ap     2.483624  
      99Ap     2.594125   100Ap     2.729897   101Ap     2.731421  
      57App    2.731421   102Ap     2.852033    58App    2.852033  
     103Ap     2.906087    59App    2.935667   104Ap     2.935667  
     105Ap     2.986928    60App    2.986928   106Ap     3.038791  
      61App    3.177585   107Ap     3.177585    62App    3.212731  
     108Ap     3.212731   109Ap     3.234156   110Ap     3.352528  
      63App    3.352528   111Ap     3.404613    64App    3.404613  
     112Ap     3.494673   113Ap     3.521171    65App    3.521171  
      66App    3.588659   114Ap     3.588659   115Ap     3.688574  
      67App    3.688574   116Ap     3.695995    68App    3.695995  
     117Ap     3.794128   118Ap     3.842057    69App    3.842057  
     119Ap     3.849881    70App    3.849881   120Ap     3.898663  
      71App    3.898663   121Ap     3.944200    72App    3.944200  
      73App    4.007798   122Ap     4.007798    74App    4.021535  
     123Ap     4.021535    75App    4.047066   124Ap     4.047066  
     125Ap     4.096401   126Ap     4.181034    76App    4.313914  
     127Ap     4.313914    77App    4.347102   128Ap     4.347102  
     129Ap     4.401978   130Ap     4.567773    78App    4.567773  
     131Ap     4.668800   132Ap     4.685472    79App    4.685472  
     133Ap     4.735015    80App    5.009831   134Ap     5.009831  
     135Ap     5.158847    81App    5.927058   136Ap     5.927058  
      82App    6.084351   137Ap     6.084351    83App    6.220707  
     138Ap     6.220707   139Ap     6.370146    84App    6.370146  
     140Ap     6.481872    85App    6.481872    86App    6.506068  
     141Ap     6.506068   142Ap     6.527590    87App    6.527590  
     143Ap     6.690632    88App    6.690632   144Ap     6.699841  
     145Ap     6.718869    89App    6.803956   146Ap     6.803956  
     147Ap     6.854276    90App    6.854276   148Ap     7.201733  
      91App    7.431843   149Ap     7.431843   150Ap     8.018757  
      92App    8.018757   151Ap     8.707244   152Ap     9.143622  
     153Ap     9.154389   154Ap     9.379484    93App    9.379484  
     155Ap     9.422908    94App    9.422908    95App    9.714071  
     156Ap     9.714071    96App    9.808579   157Ap     9.808579  
     158Ap    10.034458   159Ap    10.806261   160Ap    20.646990  
     161Ap    22.064671   162Ap    23.873302  

    Final Occupation by Irrep:
             Ap   App 
    DOCC [    15,    4 ]

  @DF-RHF Final Energy:  -832.98072413401292

   => Energetics <=

    Nuclear Repulsion Energy =            109.0614712177138870
    One-Electron Energy =               -1366.8315902221729630
    Two-Electron Energy =                 424.7893948704460172
    Total Energy =                       -832.9807241340130304

Computation Completed


Properties will be evaluated at   0.000000,   0.000000,   0.000000 [a0]

Properties computed using the SCF density matrix

  Nuclear Dipole Moment: [e a0]
     X:     0.0000      Y:     0.0000      Z:    -0.0000

  Electronic Dipole Moment: [e a0]
     X:     0.0000      Y:     0.0000      Z:     0.0059

  Dipole Moment: [e a0]
     X:     0.0000      Y:     0.0000      Z:     0.0059     Total:     0.0059

  Dipole Moment: [D]
     X:     0.0000      Y:     0.0000      Z:     0.0149     Total:     0.0149


*** tstop() called on bp1-compute00145.data.bp.acrc.priv at Mon Apr 19 16:14:02 2021
Module time:
	user time   =      37.51 seconds =       0.63 minutes
	system time =       1.35 seconds =       0.02 minutes
	total time  =          2 seconds =       0.03 minutes
Total time:
	user time   =    1349.27 seconds =      22.49 minutes
	system time =      60.83 seconds =       1.01 minutes
	total time  =         99 seconds =       1.65 minutes

*** tstart() called on bp1-compute00145.data.bp.acrc.priv
*** at Mon Apr 19 16:14:02 2021


  //>>>>>>>>>>>>>>>>>>>>>>>>>>>>>>>>>>>//
  //               DFMP2               //
  //<<<<<<<<<<<<<<<<<<<<<<<<<<<<<<<<<<<//

   => Loading Basis Set <=

    Name: (AUG-CC-PV(Q+D)Z AUX)
    Role: RIFIT
    Keyword: DF_BASIS_MP2
    atoms 1, 3 entry S          line   824 file /work/zw18965/.conda/envs/p4env/share/psi4/basis/aug-cc-pvqz-ri.gbs 
    atoms 2    entry C          line   184 file /work/zw18965/.conda/envs/p4env/share/psi4/basis/aug-cc-pvqz-ri.gbs 

	 --------------------------------------------------------
	                          DF-MP2                         
	      2nd-Order Density-Fitted Moller-Plesset Theory     
	              RMP2 Wavefunction,  24 Threads             
	                                                         
	        Rob Parrish, Justin Turney, Andy Simmonett,      
	           Ed Hohenstein, and C. David Sherrill          
	 --------------------------------------------------------

   => Auxiliary Basis Set <=

  Basis Set: (AUG-CC-PV(Q+D)Z AUX)
    Blend: AUG-CC-PVQZ-RI
    Number of shells: 124
    Number of basis function: 556
    Number of Cartesian functions: 773
    Spherical Harmonics?: true
    Max angular momentum: 5

	 --------------------------------------------------------
	                 NBF =   258, NAUX =   556
	 --------------------------------------------------------
	   CLASS    FOCC     OCC    AOCC    AVIR     VIR    FVIR
	   PAIRS       0      19      19     239     239       0
	 --------------------------------------------------------

  DFHelper Memory: AOs need 0.282 GiB; user supplied 100.583 GiB. Using in-core AOs.


         ------------------------------------------------------------
                                     CPHF                           
                                  Rob Parrish                       
         ------------------------------------------------------------

  ==> Geometry <==

    Molecular point group: cs
    Full point group: C_inf_v

    Geometry (in Angstrom), charge = 0, multiplicity = 1:

       Center              X                  Y                   Z               Mass       
    ------------   -----------------  -----------------  -----------------  -----------------
         S           -0.000004944425     0.000000000000     1.552550145679    31.972071174400
         C           -0.000004949352     0.000000000000     0.000651276344    12.000000000000
         S            0.000006802053     0.000000000000    -1.552794587651    31.972071174400

  Nuclear repulsion =  109.061471217713887
  Reference energy  = -832.980724134012917

  ==> Basis Set <==

  Basis Set: AUG-CC-PV(Q+D)Z
    Blend: AUG-CC-PV(Q+D)Z
    Number of shells: 66
    Number of basis function: 258
    Number of Cartesian functions: 335
    Spherical Harmonics?: true
    Max angular momentum: 4

  ==> CGRSolver (by Rob Parrish) <==

   Number of roots    =         1
   Preconditioning    =    JACOBI
   Convergence cutoff =     1E-06
   Maximum iterations =       100

  ==> CPHFRHamiltonian (by Rob Parrish) <== 

  ==> MemDFJK: Density-Fitted J/K Matrices <==

    J tasked:                   Yes
    K tasked:                   Yes
    wK tasked:                   No
    OpenMP threads:              24
    Memory [MiB]:            102996
    Algorithm:                 Core
    Schwarz Cutoff:           1E-12
    Mask sparsity (%):       0.6280
    Fitting Condition:        1E-10

   => Auxiliary Basis Set <=

  Basis Set: (AUG-CC-PV(Q+D)Z AUX)
    Blend: AUG-CC-PVQZ-JKFIT
    Number of shells: 126
    Number of basis function: 510
    Number of Cartesian functions: 692
    Spherical Harmonics?: true
    Max angular momentum: 5

  ==> CPHF Iterations <==

  => Iterations <=

             Iter  Converged  Remaining    Residual
  CGR           1          0          1   1.351E-01
  CGR           2          0          1   3.683E-02
  CGR           3          0          1   1.333E-02
  CGR           4          0          1   1.805E-03
  CGR           5          0          1   4.113E-04
  CGR           6          0          1   7.403E-05
  CGR           7          0          1   2.772E-05
  CGR           8          0          1   4.724E-06
  CGR           9          0          1   1.073E-06
  CGR          10          1          0   3.013E-07

    CGRSolver converged.

Problem determining natural orbital and density matrix symmetries.
Future calls to oeprop using this density will not work. Try disabling symmetry.

  ==> DFCorrGrad: Density-Fitted Correlated Gradients <==

    OpenMP threads:             24
    Integrals threads:          24
    Memory [GiB]:          100.583
    Schwarz Cutoff:          0E+00
    Fitting Condition:       1E-10

   => Auxiliary Basis Set <=

  Basis Set: (AUG-CC-PV(Q+D)Z AUX)
    Blend: AUG-CC-PVQZ-JKFIT
    Number of shells: 126
    Number of basis function: 510
    Number of Cartesian functions: 692
    Spherical Harmonics?: true
    Max angular momentum: 5

	-----------------------------------------------------------
	 ==================> DF-MP2 Energies <==================== 
	-----------------------------------------------------------
	 Reference Energy          =    -832.9807241340129167 [Eh]
	 Singles Energy            =      -0.0000000000000000 [Eh]
	 Same-Spin Energy          =      -0.2182306172792385 [Eh]
	 Opposite-Spin Energy      =      -0.5972451181000316 [Eh]
	 Correlation Energy        =      -0.8154757353792701 [Eh]
	 Total Energy              =    -833.7961998693922396 [Eh]
	-----------------------------------------------------------
	 ================> DF-SCS-MP2 Energies <================== 
	-----------------------------------------------------------
	 SCS Same-Spin Scale       =       0.3333333333333333 [-]
	 SCS Opposite-Spin Scale   =       1.2000000000000000 [-]
	 SCS Same-Spin Energy      =      -0.0727435390930795 [Eh]
	 SCS Opposite-Spin Energy  =      -0.7166941417200379 [Eh]
	 SCS Correlation Energy    =      -0.7894376808131174 [Eh]
	 SCS Total Energy          =    -833.7701618148259968 [Eh]
	-----------------------------------------------------------


  -Total Gradient:
     Atom            X                  Y                   Z
    ------   -----------------  -----------------  -----------------
       1        0.000000340059     0.000000000000    -0.000508457981
       2       -0.000000687080     0.000000000000     0.001473345168
       3        0.000000347021     0.000000000000    -0.000964887094


*** tstop() called on bp1-compute00145.data.bp.acrc.priv at Mon Apr 19 16:14:11 2021
Module time:
	user time   =     109.45 seconds =       1.82 minutes
	system time =       5.06 seconds =       0.08 minutes
	total time  =          9 seconds =       0.15 minutes
Total time:
	user time   =    1458.73 seconds =      24.31 minutes
	system time =      65.90 seconds =       1.10 minutes
	total time  =        108 seconds =       1.80 minutes

         ----------------------------------------------------------
                                   FINDIF
                     R. A. King and Jonathon Misiewicz
         ---------------------------------------------------------

  Computing second-derivative from gradients using projected, 
  symmetry-adapted, cartesian coordinates.

  7 gradients passed in, including the reference geometry.
  Generating complete list of displacements from unique ones.


-------------------------------------------------------------


  ==> Harmonic Vibrational Analysis <==

  non-mass-weighted Hessian:       Symmetric? True   Hermitian? True   Lin Dep Dim?  6 (0)
  projection of translations (True) and rotations (True) removed 5 degrees of freedom (6)
  total projector:                 Symmetric? True   Hermitian? True   Lin Dep Dim?  5 (5)
  mass-weighted Hessian:           Symmetric? True   Hermitian? True   Lin Dep Dim?  6 (0)
  pre-proj  low-frequency mode:    0.0000i [cm^-1]
  pre-proj  low-frequency mode:    0.0000i [cm^-1]
  pre-proj  low-frequency mode:    0.0000i [cm^-1]
  pre-proj  low-frequency mode:    0.0000  [cm^-1]
  pre-proj  low-frequency mode:    0.0000  [cm^-1]
  pre-proj  low-frequency mode:    0.0000  [cm^-1]
  pre-proj  all modes:['0.0000i' '0.0000i' '0.0000i' '0.0000' '0.0000' '0.0000' '400.4732'
 '680.4995' '1624.1518']
  projected mass-weighted Hessian: Symmetric? True   Hermitian? True   Lin Dep Dim?  6 (5)
  post-proj low-frequency mode:    0.0000i [cm^-1] (-)
  post-proj low-frequency mode:    0.0000i [cm^-1] (-)
  post-proj low-frequency mode:    0.0000i [cm^-1] (-)
  post-proj low-frequency mode:    0.0000  [cm^-1] (-)
  post-proj low-frequency mode:    0.0000  [cm^-1] (-)
  post-proj low-frequency mode:    0.0000  [cm^-1] (-)
  post-proj  all modes:['0.0000i' '0.0000i' '0.0000i' '0.0000' '0.0000' '0.0000' '400.4732'
 '680.4995' '1624.1518']

  Vibration                       7                   8                   9           
  Freq [cm^-1]                 400.4732            680.4995           1624.1518       
  Irrep                           Ap                  Ap                  Ap          
  Reduced mass [u]             13.3142             31.9721             13.3142        
  Force const [mDyne/A]         1.2581              8.7232             20.6927        
  Turning point v=0 [a0]        0.1503              0.0744              0.0746        
  RMS dev v=0 [a0 u^1/2]        0.3877              0.2974              0.1925        
  Char temp [K]                576.1918            979.0873           2336.7929       
  ----------------------------------------------------------------------------------
      1   S               -0.18  0.00 -0.00   -0.00 -0.00  0.71    0.00 -0.00 -0.18   
      2   C                0.97 -0.00  0.00    0.00  0.00 -0.00   -0.00  0.00  0.97   
      3   S               -0.18  0.00  0.00    0.00 -0.00 -0.71    0.00  0.00 -0.18   

  ==> Thermochemistry Components <==

  Entropy, S
    Electronic S            0.000 [cal/(mol K)]        0.000 [J/(mol K)]       0.00000000 [mEh/K] (multiplicity = 1)
    Translational S        38.898 [cal/(mol K)]      162.748 [J/(mol K)]       0.06198752 [mEh/K] (mol. weight = 75.9441 [u], P = 101325.00 [Pa])
    Rotational S           16.984 [cal/(mol K)]       71.062 [J/(mol K)]       0.02706612 [mEh/K] (symmetry no. = 1)
    Vibrational S           1.298 [cal/(mol K)]        5.430 [J/(mol K)]       0.00206832 [mEh/K]
  Total S                  57.180 [cal/(mol K)]      239.241 [J/(mol K)]       0.09112196 [mEh/K]
  Correction S              0.000 [cal/(mol K)]        0.000 [J/(mol K)]       0.00000000 [mEh/K]

  Constant volume heat capacity, Cv
    Electronic Cv           0.000 [cal/(mol K)]        0.000 [J/(mol K)]       0.00000000 [mEh/K]
    Translational Cv        2.981 [cal/(mol K)]       12.472 [J/(mol K)]       0.00475022 [mEh/K]
    Rotational Cv           1.987 [cal/(mol K)]        8.314 [J/(mol K)]       0.00316681 [mEh/K]
    Vibrational Cv          2.384 [cal/(mol K)]        9.976 [J/(mol K)]       0.00379966 [mEh/K]
  Total Cv                  7.352 [cal/(mol K)]       30.762 [J/(mol K)]       0.01171669 [mEh/K]
  Correction Cv             0.000 [cal/(mol K)]        0.000 [J/(mol K)]       0.00000000 [mEh/K]

  Constant pressure heat capacity, Cp
    Electronic Cp           0.000 [cal/(mol K)]        0.000 [J/(mol K)]       0.00000000 [mEh/K]
    Translational Cp        4.968 [cal/(mol K)]       20.786 [J/(mol K)]       0.00791703 [mEh/K]
    Rotational Cp           1.987 [cal/(mol K)]        8.314 [J/(mol K)]       0.00316681 [mEh/K]
    Vibrational Cp          2.384 [cal/(mol K)]        9.976 [J/(mol K)]       0.00379966 [mEh/K]
  Total Cp                  9.340 [cal/(mol K)]       39.077 [J/(mol K)]       0.01488350 [mEh/K]
  Correction Cp             0.000 [cal/(mol K)]        0.000 [J/(mol K)]       0.00000000 [mEh/K]

  ==> Thermochemistry Energy Analysis <==

  Raw electronic energy, E0
  Total E0, Electronic energy at well bottom at 0 [K]                 -833.79620102 [Eh]

  Zero-point energy, ZPE_vib = Sum_i nu_i / 2
    Electronic ZPE          0.000 [kcal/mol]        0.000 [kJ/mol]       0.00000000 [Eh]
    Translational ZPE       0.000 [kcal/mol]        0.000 [kJ/mol]       0.00000000 [Eh]
    Rotational ZPE          0.000 [kcal/mol]        0.000 [kJ/mol]       0.00000000 [Eh]
    Vibrational ZPE         3.867 [kcal/mol]       16.180 [kJ/mol]       0.00616273 [Eh]        1352.562 [cm^-1]
  Correction ZPE            3.867 [kcal/mol]       16.180 [kJ/mol]       0.00616273 [Eh]        1352.562 [cm^-1]
  Total ZPE, Electronic energy at 0 [K]                               -833.79003830 [Eh]

  Thermal Energy, E (includes ZPE)
    Electronic E            0.000 [kcal/mol]        0.000 [kJ/mol]       0.00000000 [Eh]
    Translational E         0.889 [kcal/mol]        3.718 [kJ/mol]       0.00141628 [Eh]
    Rotational E            0.592 [kcal/mol]        2.479 [kJ/mol]       0.00094418 [Eh]
    Vibrational E           4.139 [kcal/mol]       17.316 [kJ/mol]       0.00659529 [Eh]
  Correction E              5.620 [kcal/mol]       23.513 [kJ/mol]       0.00895575 [Eh]
  Total E, Electronic energy at  298.15 [K]                           -833.78724527 [Eh]

  Enthalpy, H_trans = E_trans + k_B * T
    Electronic H            0.000 [kcal/mol]        0.000 [kJ/mol]       0.00000000 [Eh]
    Translational H         1.481 [kcal/mol]        6.197 [kJ/mol]       0.00236046 [Eh]
    Rotational H            0.592 [kcal/mol]        2.479 [kJ/mol]       0.00094418 [Eh]
    Vibrational H           4.139 [kcal/mol]       17.316 [kJ/mol]       0.00659529 [Eh]
  Correction H              6.212 [kcal/mol]       25.992 [kJ/mol]       0.00989993 [Eh]
  Total H, Enthalpy at  298.15 [K]                                    -833.78630109 [Eh]

  Gibbs free energy, G = H - T * S
    Electronic G            0.000 [kcal/mol]        0.000 [kJ/mol]       0.00000000 [Eh]
    Translational G       -10.116 [kcal/mol]      -42.326 [kJ/mol]      -0.01612112 [Eh]
    Rotational G           -4.471 [kcal/mol]      -18.708 [kJ/mol]      -0.00712558 [Eh]
    Vibrational G           3.752 [kcal/mol]       15.697 [kJ/mol]       0.00597862 [Eh]
  Correction G            -10.836 [kcal/mol]      -45.337 [kJ/mol]      -0.01726808 [Eh]
  Total G, Free enthalpy at  298.15 [K]                               -833.81346910 [Eh]

    Psi4 stopped on: Monday, 19 April 2021 04:14PM
    Psi4 wall time for execution: 0:01:47.82

*** Psi4 exiting successfully. Buy a developer a beer!
