
    -----------------------------------------------------------------------
          Psi4: An Open-Source Ab Initio Electronic Structure Package
                               Psi4 1.3.2 release

                         Git: Rev {HEAD} ecbda83 


    R. M. Parrish, L. A. Burns, D. G. A. Smith, A. C. Simmonett,
    A. E. DePrince III, E. G. Hohenstein, U. Bozkaya, A. Yu. Sokolov,
    R. Di Remigio, R. M. Richard, J. F. Gonthier, A. M. James,
    H. R. McAlexander, A. Kumar, M. Saitow, X. Wang, B. P. Pritchard,
    P. Verma, H. F. Schaefer III, K. Patkowski, R. A. King, E. F. Valeev,
    F. A. Evangelista, J. M. Turney, T. D. Crawford, and C. D. Sherrill,
    J. Chem. Theory Comput. 13(7) pp 3185--3197 (2017).
    (doi: 10.1021/acs.jctc.7b00174)


                         Additional Contributions by
    P. Kraus, H. Kruse, M. H. Lechner, M. C. Schieber, R. A. Shaw,
    A. Alenaizan, R. Galvelis, Z. L. Glick, S. Lehtola, and J. P. Misiewicz

    -----------------------------------------------------------------------


    Psi4 started on: Monday, 19 April 2021 04:12PM

    Process ID: 256946
    Host:       bp1-compute00147.data.bp.acrc.priv
    PSIDATADIR: /work/zw18965/.conda/envs/p4env/share/psi4
    Memory:     500.0 MiB
    Threads:    24
    
  ==> Input File <==

--------------------------------------------------------------------------
memory 144 GB

molecule {
0 1
C     0.000000000000   0.000000000000   0.011304024282
S     0.000000000000   0.000000000000   1.528395973555}

set basis aug-cc-pV(Q+d)Z
 
optimize("MP2")
frequencies("MP2")--------------------------------------------------------------------------

  Memory set to 134.110 GiB by Python driver.
gradient() will perform analytic gradient computation.
    SCF Algorithm Type (re)set to DF.

*** tstart() called on bp1-compute00147.data.bp.acrc.priv
*** at Mon Apr 19 16:12:32 2021

   => Loading Basis Set <=

    Name: AUG-CC-PV(Q+D)Z
    Role: ORBITAL
    Keyword: BASIS
    atoms 1 entry C          line   319 file /work/zw18965/.conda/envs/p4env/share/psi4/basis/aug-cc-pv_qpd_z.gbs 
    atoms 2 entry S          line  1148 file /work/zw18965/.conda/envs/p4env/share/psi4/basis/aug-cc-pv_qpd_z.gbs 


         ---------------------------------------------------------
                                   SCF
               by Justin Turney, Rob Parrish, Andy Simmonett
                          and Daniel G. A. Smith
                              RHF Reference
                       24 Threads, 137329 MiB Core
         ---------------------------------------------------------

  ==> Geometry <==

    Molecular point group: c2v
    Full point group: C_inf_v

    Geometry (in Angstrom), charge = 0, multiplicity = 1:

       Center              X                  Y                   Z               Mass       
    ------------   -----------------  -----------------  -----------------  -----------------
         C            0.000000000000     0.000000000000    -1.103076804999    12.000000000000
         S            0.000000000000     0.000000000000     0.414015144274    31.972071174400

  Running in c2v symmetry.

  Rotational constants: A = ************  B =      0.83946  C =      0.83946 [cm^-1]
  Rotational constants: A = ************  B =  25166.23786  C =  25166.23786 [MHz]
  Nuclear repulsion =   33.485783276790940

  Charge       = 0
  Multiplicity = 1
  Electrons    = 22
  Nalpha       = 11
  Nbeta        = 11

  ==> Algorithm <==

  SCF Algorithm Type is DF.
  DIIS enabled.
  MOM disabled.
  Fractional occupation disabled.
  Guess Type is SAD.
  Energy threshold   = 1.00e-10
  Density threshold  = 1.00e-10
  Integral threshold = 0.00e+00

  ==> Primary Basis <==

  Basis Set: AUG-CC-PV(Q+D)Z
    Blend: AUG-CC-PV(Q+D)Z
    Number of shells: 43
    Number of basis function: 169
    Number of Cartesian functions: 220
    Spherical Harmonics?: true
    Max angular momentum: 4

   => Loading Basis Set <=

    Name: (AUG-CC-PV(Q+D)Z AUX)
    Role: JKFIT
    Keyword: DF_BASIS_SCF
    atoms 1 entry C          line   178 file /work/zw18965/.conda/envs/p4env/share/psi4/basis/aug-cc-pvqz-jkfit.gbs 
    atoms 2 entry S          line   810 file /work/zw18965/.conda/envs/p4env/share/psi4/basis/aug-cc-pvqz-jkfit.gbs 

  ==> Pre-Iterations <==

   -------------------------------------------------------
    Irrep   Nso     Nmo     Nalpha   Nbeta   Ndocc  Nsocc
   -------------------------------------------------------
     A1        66      66       0       0       0       0
     A2        23      23       0       0       0       0
     B1        40      40       0       0       0       0
     B2        40      40       0       0       0       0
   -------------------------------------------------------
    Total     169     169      11      11      11       0
   -------------------------------------------------------

  ==> Integral Setup <==

  DFHelper Memory: AOs need 0.082 GiB; user supplied 100.583 GiB. Using in-core AOs.

  ==> MemDFJK: Density-Fitted J/K Matrices <==

    J tasked:                   Yes
    K tasked:                   Yes
    wK tasked:                   No
    OpenMP threads:              24
    Memory [MiB]:            102996
    Algorithm:                 Core
    Schwarz Cutoff:           1E-12
    Mask sparsity (%):       0.0000
    Fitting Condition:        1E-10

   => Auxiliary Basis Set <=

  Basis Set: (AUG-CC-PV(Q+D)Z AUX)
    Blend: AUG-CC-PVQZ-JKFIT
    Number of shells: 80
    Number of basis function: 326
    Number of Cartesian functions: 445
    Spherical Harmonics?: true
    Max angular momentum: 5

  Minimum eigenvalue in the overlap matrix is 3.5489969368E-05.
  Using Symmetric Orthogonalization.

  SCF Guess: Superposition of Atomic Densities via on-the-fly atomic UHF.

  ==> Iterations <==

                           Total Energy        Delta E     RMS |[F,P]|

   @DF-RHF iter SAD:  -434.70923781550891   -4.34709e+02   0.00000e+00 
   @DF-RHF iter   1:  -435.33830855711824   -6.29071e-01   2.19697e-03 DIIS
   @DF-RHF iter   2:  -435.35146452149957   -1.31560e-02   1.51459e-03 DIIS
   @DF-RHF iter   3:  -435.36076279525366   -9.29827e-03   3.04947e-04 DIIS
   @DF-RHF iter   4:  -435.36156763176888   -8.04837e-04   1.27211e-04 DIIS
   @DF-RHF iter   5:  -435.36175527827288   -1.87647e-04   3.90165e-05 DIIS
   @DF-RHF iter   6:  -435.36177594145300   -2.06632e-05   6.53124e-06 DIIS
   @DF-RHF iter   7:  -435.36177632377007   -3.82317e-07   1.67400e-06 DIIS
   @DF-RHF iter   8:  -435.36177635435007   -3.05800e-08   3.50257e-07 DIIS
   @DF-RHF iter   9:  -435.36177635551900   -1.16893e-09   5.02601e-08 DIIS
   @DF-RHF iter  10:  -435.36177635554856   -2.95586e-11   4.94852e-09 DIIS
   @DF-RHF iter  11:  -435.36177635554805    5.11591e-13   7.47853e-10 DIIS
   @DF-RHF iter  12:  -435.36177635554924   -1.19371e-12   2.03342e-10 DIIS
   @DF-RHF iter  13:  -435.36177635554895    2.84217e-13   6.16803e-11 DIIS
  Energy and wave function converged.


  ==> Post-Iterations <==

    Orbital Energies [Eh]
    ---------------------

    Doubly Occupied:                                                      

       1A1   -91.998736     2A1   -11.348028     3A1    -9.006773  
       4A1    -6.687007     1B2    -6.686167     1B1    -6.686167  
       5A1    -1.106790     6A1    -0.691079     7A1    -0.469124  
       2B2    -0.466665     2B1    -0.466665  

    Virtual:                                                              

       8A1     0.045895     3B2     0.047898     3B1     0.047898  
       9A1     0.077277     4B1     0.078135     4B2     0.078135  
      10A1     0.098304     5B2     0.108463     5B1     0.108463  
      11A1     0.165942    12A1     0.191141     1A2     0.191141  
      13A1     0.220416     6B2     0.271294     6B1     0.271294  
      14A1     0.283836    15A1     0.286777     2A2     0.286777  
       7B2     0.297004     7B1     0.297004    16A1     0.351238  
       8B1     0.392526     8B2     0.392526    17A1     0.457665  
      18A1     0.499515    19A1     0.502911     3A2     0.502911  
      20A1     0.538232     9B1     0.544377     9B2     0.544377  
      10B2     0.549933    10B1     0.549933    11B2     0.588079  
      11B1     0.588079    21A1     0.615205     4A2     0.615205  
      22A1     0.697578    12B2     0.749058    12B1     0.749058  
      23A1     0.823102    13B2     0.836114    13B1     0.836114  
       5A2     0.837051    24A1     0.837051    14B1     0.928709  
      14B2     0.928709    25A1     0.984025    26A1     1.052101  
       6A2     1.052101    27A1     1.069354    28A1     1.131338  
      15B1     1.186320    15B2     1.186320    29A1     1.297884  
       7A2     1.297884    16B2     1.394419    16B1     1.394419  
      30A1     1.426933     8A2     1.449899    31A1     1.449899  
      17B2     1.489025    17B1     1.489025    18B2     1.496811  
      18B1     1.496811    32A1     1.563392     9A2     1.563392  
      19B2     1.579833    19B1     1.579833    20B2     1.599768  
      20B1     1.599768    33A1     1.660595    34A1     1.760502  
      21B2     1.834346    21B1     1.834346    35A1     1.863307  
      10A2     1.863307    36A1     2.074267    11A2     2.181219  
      37A1     2.181219    38A1     2.221678    12A2     2.277511  
      39A1     2.277511    22B1     2.285988    22B2     2.285988  
      40A1     2.317037    23B2     2.324060    23B1     2.324060  
      24B1     2.445297    24B2     2.445297    13A2     2.501223  
      41A1     2.501223    25B1     2.517374    25B2     2.517374  
      42A1     2.538999    43A1     2.784841    26B2     2.853703  
      26B1     2.853703    44A1     2.959751    14A2     2.959751  
      27B1     3.044513    27B2     3.044513    45A1     3.064337  
      46A1     3.219128    15A2     3.219128    28B2     3.467669  
      28B1     3.467669    47A1     3.549225    29B2     3.667285  
      29B1     3.667285    48A1     3.734251    16A2     3.734251  
      49A1     3.818327    17A2     3.818327    30B2     3.883519  
      30B1     3.883519    31B2     4.017722    31B1     4.017722  
      50A1     4.040584    51A1     4.213290    52A1     4.232660  
      18A2     4.232660    53A1     4.575219    32B2     4.655075  
      32B1     4.655075    33B2     5.928246    33B1     5.928246  
      54A1     5.945815    19A2     5.945815    34B1     6.119888  
      34B2     6.119888    35B1     6.200394    35B2     6.200394  
      55A1     6.286495    20A2     6.286495    56A1     6.361775  
      36B1     6.364718    36B2     6.364718    37B2     6.498030  
      37B1     6.498030    57A1     6.577734    21A2     6.577734  
      58A1     6.670341    59A1     6.813374    22A2     6.813374  
      60A1     6.930191    38B1     7.165001    38B2     7.165001  
      61A1     7.602500    39B1     7.698344    39B2     7.698344  
      62A1     8.977179    63A1     9.345614    23A2     9.345614  
      40B2     9.603789    40B1     9.603789    64A1    10.184478  
      65A1    20.789504    66A1    22.096923  

    Final Occupation by Irrep:
             A1    A2    B1    B2 
    DOCC [     7,    0,    2,    2 ]

  @DF-RHF Final Energy:  -435.36177635554895

   => Energetics <=

    Nuclear Repulsion Energy =             33.4857832767909400
    One-Electron Energy =                -666.4687200906522548
    Two-Electron Energy =                 197.6211604583124029
    Total Energy =                       -435.3617763555489546

Computation Completed


Properties will be evaluated at   0.000000,   0.000000,   0.000000 [a0]

Properties computed using the SCF density matrix

  Nuclear Dipole Moment: [e a0]
     X:     0.0000      Y:     0.0000      Z:     0.0109

  Electronic Dipole Moment: [e a0]
     X:     0.0000      Y:     0.0000      Z:     0.6693

  Dipole Moment: [e a0]
     X:     0.0000      Y:     0.0000      Z:     0.6802     Total:     0.6802

  Dipole Moment: [D]
     X:     0.0000      Y:     0.0000      Z:     1.7290     Total:     1.7290


*** tstop() called on bp1-compute00147.data.bp.acrc.priv at Mon Apr 19 16:12:34 2021
Module time:
	user time   =      28.85 seconds =       0.48 minutes
	system time =       1.41 seconds =       0.02 minutes
	total time  =          2 seconds =       0.03 minutes
Total time:
	user time   =      28.85 seconds =       0.48 minutes
	system time =       1.41 seconds =       0.02 minutes
	total time  =          2 seconds =       0.03 minutes

*** tstart() called on bp1-compute00147.data.bp.acrc.priv
*** at Mon Apr 19 16:12:34 2021


  //>>>>>>>>>>>>>>>>>>>>>>>>>>>>>>>>>>>//
  //               DFMP2               //
  //<<<<<<<<<<<<<<<<<<<<<<<<<<<<<<<<<<<//

   => Loading Basis Set <=

    Name: (AUG-CC-PV(Q+D)Z AUX)
    Role: RIFIT
    Keyword: DF_BASIS_MP2
    atoms 1 entry C          line   184 file /work/zw18965/.conda/envs/p4env/share/psi4/basis/aug-cc-pvqz-ri.gbs 
    atoms 2 entry S          line   824 file /work/zw18965/.conda/envs/p4env/share/psi4/basis/aug-cc-pvqz-ri.gbs 

	 --------------------------------------------------------
	                          DF-MP2                         
	      2nd-Order Density-Fitted Moller-Plesset Theory     
	              RMP2 Wavefunction,  24 Threads             
	                                                         
	        Rob Parrish, Justin Turney, Andy Simmonett,      
	           Ed Hohenstein, and C. David Sherrill          
	 --------------------------------------------------------

   => Auxiliary Basis Set <=

  Basis Set: (AUG-CC-PV(Q+D)Z AUX)
    Blend: AUG-CC-PVQZ-RI
    Number of shells: 80
    Number of basis function: 362
    Number of Cartesian functions: 505
    Spherical Harmonics?: true
    Max angular momentum: 5

	 --------------------------------------------------------
	                 NBF =   169, NAUX =   362
	 --------------------------------------------------------
	   CLASS    FOCC     OCC    AOCC    AVIR     VIR    FVIR
	   PAIRS       0      11      11     158     158       0
	 --------------------------------------------------------

  DFHelper Memory: AOs need 0.082 GiB; user supplied 100.583 GiB. Using in-core AOs.


         ------------------------------------------------------------
                                     CPHF                           
                                  Rob Parrish                       
         ------------------------------------------------------------

  ==> Geometry <==

    Molecular point group: c2v
    Full point group: C_inf_v

    Geometry (in Angstrom), charge = 0, multiplicity = 1:

       Center              X                  Y                   Z               Mass       
    ------------   -----------------  -----------------  -----------------  -----------------
         C            0.000000000000     0.000000000000    -1.103076804999    12.000000000000
         S            0.000000000000     0.000000000000     0.414015144274    31.972071174400

  Nuclear repulsion =   33.485783276790940
  Reference energy  = -435.361776355548955

  ==> Basis Set <==

  Basis Set: AUG-CC-PV(Q+D)Z
    Blend: AUG-CC-PV(Q+D)Z
    Number of shells: 43
    Number of basis function: 169
    Number of Cartesian functions: 220
    Spherical Harmonics?: true
    Max angular momentum: 4

  ==> CGRSolver (by Rob Parrish) <==

   Number of roots    =         1
   Preconditioning    =    JACOBI
   Convergence cutoff =     1E-06
   Maximum iterations =       100

  ==> CPHFRHamiltonian (by Rob Parrish) <== 

  ==> MemDFJK: Density-Fitted J/K Matrices <==

    J tasked:                   Yes
    K tasked:                   Yes
    wK tasked:                   No
    OpenMP threads:              24
    Memory [MiB]:            102996
    Algorithm:                 Core
    Schwarz Cutoff:           1E-12
    Mask sparsity (%):       0.0000
    Fitting Condition:        1E-10

   => Auxiliary Basis Set <=

  Basis Set: (AUG-CC-PV(Q+D)Z AUX)
    Blend: AUG-CC-PVQZ-JKFIT
    Number of shells: 80
    Number of basis function: 326
    Number of Cartesian functions: 445
    Spherical Harmonics?: true
    Max angular momentum: 5

  ==> CPHF Iterations <==

  => Iterations <=

             Iter  Converged  Remaining    Residual
  CGR           1          0          1   1.515E-01
  CGR           2          0          1   4.410E-02
  CGR           3          0          1   1.755E-02
  CGR           4          0          1   3.791E-03
  CGR           5          0          1   9.436E-04
  CGR           6          0          1   1.341E-04
  CGR           7          0          1   2.593E-05
  CGR           8          0          1   4.652E-06
  CGR           9          1          0   5.792E-07

    CGRSolver converged.

Problem determining natural orbital and density matrix symmetries.
Future calls to oeprop using this density will not work. Try disabling symmetry.

  ==> DFCorrGrad: Density-Fitted Correlated Gradients <==

    OpenMP threads:             24
    Integrals threads:          24
    Memory [GiB]:          100.583
    Schwarz Cutoff:          0E+00
    Fitting Condition:       1E-10

   => Auxiliary Basis Set <=

  Basis Set: (AUG-CC-PV(Q+D)Z AUX)
    Blend: AUG-CC-PVQZ-JKFIT
    Number of shells: 80
    Number of basis function: 326
    Number of Cartesian functions: 445
    Spherical Harmonics?: true
    Max angular momentum: 5

	-----------------------------------------------------------
	 ==================> DF-MP2 Energies <==================== 
	-----------------------------------------------------------
	 Reference Energy          =    -435.3617763555489546 [Eh]
	 Singles Energy            =      -0.0000000000000000 [Eh]
	 Same-Spin Energy          =      -0.1199996013142584 [Eh]
	 Opposite-Spin Energy      =      -0.3586535747468663 [Eh]
	 Correlation Energy        =      -0.4786531760611247 [Eh]
	 Total Energy              =    -435.8404295316100843 [Eh]
	-----------------------------------------------------------
	 ================> DF-SCS-MP2 Energies <================== 
	-----------------------------------------------------------
	 SCS Same-Spin Scale       =       0.3333333333333333 [-]
	 SCS Opposite-Spin Scale   =       1.2000000000000000 [-]
	 SCS Same-Spin Energy      =      -0.0399998671047528 [Eh]
	 SCS Opposite-Spin Energy  =      -0.4303842896962396 [Eh]
	 SCS Correlation Energy    =      -0.4703841568009924 [Eh]
	 SCS Total Energy          =    -435.8321605123499580 [Eh]
	-----------------------------------------------------------


  -Total Gradient:
     Atom            X                  Y                   Z
    ------   -----------------  -----------------  -----------------
       1        0.000000000000    -0.000000000000     0.016436756510
       2        0.000000000000     0.000000000000    -0.016436756516


*** tstop() called on bp1-compute00147.data.bp.acrc.priv at Mon Apr 19 16:12:40 2021
Module time:
	user time   =      74.92 seconds =       1.25 minutes
	system time =       4.15 seconds =       0.07 minutes
	total time  =          6 seconds =       0.10 minutes
Total time:
	user time   =     103.78 seconds =       1.73 minutes
	system time =       5.56 seconds =       0.09 minutes
	total time  =          8 seconds =       0.13 minutes

			-----------------------------------------
			 OPTKING 2.0: for geometry optimizations 
			  - R.A. King,  Bethel University        
			-----------------------------------------

	Internal coordinates to be generated automatically.
	Detected frag 1 with atoms:  1 2
	---Fragment 1 Bond Connectivity---
	 1 : 2
	 2 : 1

	---Fragment 1 Geometry and Gradient---
	 C           0.0000000000        0.0000000000       -2.0845130568
	 S           0.0000000000        0.0000000000        0.7823752345
	             0.0000000000       -0.0000000000        0.0164367565
	             0.0000000000        0.0000000000       -0.0164367565

	Previous optimization step data not found.  Starting new optimization.

	---Fragment 1 Intrafragment Coordinates---
	 - Coordinate -           - BOHR/RAD -       - ANG/DEG -
	 R(1,2)           =         2.866888	       1.517092

	Current energy   :      -435.8404295316

	Generating empirical Hessian (Schlegel '84) for each fragment.
	Taking RFO optimization step.
	Going to follow RFO solution 1.
	Using RFO vector 1.
	Norm of target step-size    0.02305
	Projected energy change by RFO approximation:        -0.0001131825

	Back-transformation to cartesian coordinates...
	Successfully converged to displaced geometry.

	--- Internal Coordinate Step in ANG or DEG, aJ/ANG or AJ/DEG ---
	 ---------------------------------------------------------------------------
	   Coordinate                Previous        Force       Change         New 
	   ----------                --------       ------       ------       ------
	    1 R(1,2)          =      1.517092     0.135418     0.012195     1.529287
	 ---------------------------------------------------------------------------
	Successfully symmetrized geometry.

  ==> Convergence Check <==

  Measures of convergence in internal coordinates in au.
  Criteria marked as inactive (o), active & met (*), and active & unmet ( ).
  --------------------------------------------------------------------------------------------- ~
   Step     Total Energy     Delta E     MAX Force     RMS Force      MAX Disp      RMS Disp    ~
  --------------------------------------------------------------------------------------------- ~
    Convergence Criteria    1.00e-06 *    3.00e-04 *             o    1.20e-03 *             o  ~
  --------------------------------------------------------------------------------------------- ~
      1    -435.84042953   -4.36e+02      1.64e-02      1.64e-02 o    2.30e-02      2.30e-02 o  ~
  ---------------------------------------------------------------------------------------------

	Writing optimization data to binary file.
	Structure for next step:
	Cartesian Geometry (in Angstrom)
	    C     0.0000000000   0.0000000000  -1.1091745010
	    S     0.0000000000   0.0000000000   0.4201128430
			--------------------------
			 OPTKING Finished Execution 
			--------------------------

    Structure for next step:
    Molecular point group: c2v
    Full point group: C_inf_v

    Geometry (in Angstrom), charge = 0, multiplicity = 1:

    C            0.000000000000     0.000000000000    -1.111944074860
    S            0.000000000000     0.000000000000     0.417343275183

gradient() will perform analytic gradient computation.
    SCF Algorithm Type (re)set to DF.

*** tstart() called on bp1-compute00147.data.bp.acrc.priv
*** at Mon Apr 19 16:12:40 2021

   => Loading Basis Set <=

    Name: AUG-CC-PV(Q+D)Z
    Role: ORBITAL
    Keyword: BASIS
    atoms 1 entry C          line   319 file /work/zw18965/.conda/envs/p4env/share/psi4/basis/aug-cc-pv_qpd_z.gbs 
    atoms 2 entry S          line  1148 file /work/zw18965/.conda/envs/p4env/share/psi4/basis/aug-cc-pv_qpd_z.gbs 


         ---------------------------------------------------------
                                   SCF
               by Justin Turney, Rob Parrish, Andy Simmonett
                          and Daniel G. A. Smith
                              RHF Reference
                       24 Threads, 137329 MiB Core
         ---------------------------------------------------------

  ==> Geometry <==

    Molecular point group: c2v
    Full point group: C_inf_v

    Geometry (in Angstrom), charge = 0, multiplicity = 1:

       Center              X                  Y                   Z               Mass       
    ------------   -----------------  -----------------  -----------------  -----------------
         C            0.000000000000     0.000000000000    -1.111944074860    12.000000000000
         S            0.000000000000     0.000000000000     0.417343275183    31.972071174400

  Running in c2v symmetry.

  Rotational constants: A = ************  B =      0.82612  C =      0.82612 [cm^-1]
  Rotational constants: A = ************  B =  24766.45870  C =  24766.45870 [MHz]
  Nuclear repulsion =   33.218748734744125

  Charge       = 0
  Multiplicity = 1
  Electrons    = 22
  Nalpha       = 11
  Nbeta        = 11

  ==> Algorithm <==

  SCF Algorithm Type is DF.
  DIIS enabled.
  MOM disabled.
  Fractional occupation disabled.
  Guess Type is READ.
  Energy threshold   = 1.00e-10
  Density threshold  = 1.00e-10
  Integral threshold = 0.00e+00

  ==> Primary Basis <==

  Basis Set: AUG-CC-PV(Q+D)Z
    Blend: AUG-CC-PV(Q+D)Z
    Number of shells: 43
    Number of basis function: 169
    Number of Cartesian functions: 220
    Spherical Harmonics?: true
    Max angular momentum: 4

   => Loading Basis Set <=

    Name: (AUG-CC-PV(Q+D)Z AUX)
    Role: JKFIT
    Keyword: DF_BASIS_SCF
    atoms 1 entry C          line   178 file /work/zw18965/.conda/envs/p4env/share/psi4/basis/aug-cc-pvqz-jkfit.gbs 
    atoms 2 entry S          line   810 file /work/zw18965/.conda/envs/p4env/share/psi4/basis/aug-cc-pvqz-jkfit.gbs 

   => Loading Basis Set <=

    Name: AUG-CC-PV(Q+D)Z
    Role: ORBITAL
    Keyword: BASIS
    atoms 1 entry C          line   319 file /work/zw18965/.conda/envs/p4env/share/psi4/basis/aug-cc-pv_qpd_z.gbs 
    atoms 2 entry S          line  1148 file /work/zw18965/.conda/envs/p4env/share/psi4/basis/aug-cc-pv_qpd_z.gbs 

  Reading orbitals from file 180, no projection.

  ==> Pre-Iterations <==

   -------------------------------------------------------
    Irrep   Nso     Nmo     Nalpha   Nbeta   Ndocc  Nsocc
   -------------------------------------------------------
     A1        66      66       0       0       0       0
     A2        23      23       0       0       0       0
     B1        40      40       0       0       0       0
     B2        40      40       0       0       0       0
   -------------------------------------------------------
    Total     169     169      11      11      11       0
   -------------------------------------------------------

  ==> Integral Setup <==

  DFHelper Memory: AOs need 0.082 GiB; user supplied 100.583 GiB. Using in-core AOs.

  ==> MemDFJK: Density-Fitted J/K Matrices <==

    J tasked:                   Yes
    K tasked:                   Yes
    wK tasked:                   No
    OpenMP threads:              24
    Memory [MiB]:            102996
    Algorithm:                 Core
    Schwarz Cutoff:           1E-12
    Mask sparsity (%):       0.0000
    Fitting Condition:        1E-10

   => Auxiliary Basis Set <=

  Basis Set: (AUG-CC-PV(Q+D)Z AUX)
    Blend: AUG-CC-PVQZ-JKFIT
    Number of shells: 80
    Number of basis function: 326
    Number of Cartesian functions: 445
    Spherical Harmonics?: true
    Max angular momentum: 5

  Minimum eigenvalue in the overlap matrix is 3.6613167008E-05.
  Using Symmetric Orthogonalization.

  SCF Guess: Orbitals guess was supplied from a previous computation.

  ==> Iterations <==

                           Total Energy        Delta E     RMS |[F,P]|

   @DF-RHF iter   0:  -435.35425240849548   -4.35354e+02   4.91784e-04 
   @DF-RHF iter   1:  -435.36138799904580   -7.13559e-03   5.09493e-05 DIIS
   @DF-RHF iter   2:  -435.36139604618694   -8.04714e-06   3.19561e-05 DIIS
   @DF-RHF iter   3:  -435.36140065915640   -4.61297e-06   8.33751e-06 DIIS
   @DF-RHF iter   4:  -435.36140096376630   -3.04610e-07   1.92559e-06 DIIS
   @DF-RHF iter   5:  -435.36140099839287   -3.46266e-08   7.28987e-07 DIIS
   @DF-RHF iter   6:  -435.36140100390674   -5.51387e-09   1.87641e-07 DIIS
   @DF-RHF iter   7:  -435.36140100446971   -5.62977e-10   4.89242e-08 DIIS
   @DF-RHF iter   8:  -435.36140100450262   -3.29123e-11   4.55562e-09 DIIS
   @DF-RHF iter   9:  -435.36140100450314   -5.11591e-13   7.95460e-10 DIIS
   @DF-RHF iter  10:  -435.36140100450302    1.13687e-13   1.50212e-10 DIIS
   @DF-RHF iter  11:  -435.36140100450302    0.00000e+00   2.27511e-11 DIIS
  Energy and wave function converged.


  ==> Post-Iterations <==

    Orbital Energies [Eh]
    ---------------------

    Doubly Occupied:                                                      

       1A1   -91.999681     2A1   -11.352492     3A1    -9.006962  
       4A1    -6.687143     1B2    -6.686416     1B1    -6.686416  
       5A1    -1.102405     6A1    -0.692138     7A1    -0.470143  
       2B2    -0.464199     2B1    -0.464199  

    Virtual:                                                              

       8A1     0.046063     3B2     0.046490     3B1     0.046490  
       9A1     0.076994     4B1     0.078228     4B2     0.078228  
      10A1     0.098294     5B2     0.108085     5B1     0.108085  
      11A1     0.165852    12A1     0.191281     1A2     0.191281  
      13A1     0.220409     6B2     0.271154     6B1     0.271154  
      14A1     0.283183     2A2     0.286603    15A1     0.286603  
       7B1     0.296892     7B2     0.296892    16A1     0.349573  
       8B1     0.393170     8B2     0.393170    17A1     0.458440  
      18A1     0.499400    19A1     0.503616     3A2     0.503616  
      20A1     0.536397     9B2     0.544766     9B1     0.544766  
      10B1     0.549469    10B2     0.549469    11B1     0.586589  
      11B2     0.586589     4A2     0.615489    21A1     0.615489  
      22A1     0.695170    12B1     0.747401    12B2     0.747401  
      23A1     0.820974    13B1     0.834822    13B2     0.834822  
       5A2     0.835705    24A1     0.835705    14B1     0.927795  
      14B2     0.927795    25A1     0.982532     6A2     1.049754  
      26A1     1.049754    27A1     1.068569    28A1     1.129653  
      15B1     1.186544    15B2     1.186544    29A1     1.299093  
       7A2     1.299093    16B2     1.391775    16B1     1.391775  
      30A1     1.423454    31A1     1.450635     8A2     1.450635  
      17B1     1.491181    17B2     1.491181    18B2     1.497605  
      18B1     1.497605     9A2     1.563242    32A1     1.563242  
      19B1     1.578709    19B2     1.578709    20B1     1.598871  
      20B2     1.598871    33A1     1.655247    34A1     1.756690  
      21B1     1.827368    21B2     1.827368    10A2     1.860529  
      35A1     1.860529    36A1     2.077464    11A2     2.178632  
      37A1     2.178632    38A1     2.220654    12A2     2.274322  
      39A1     2.274322    22B1     2.283638    22B2     2.283638  
      40A1     2.316382    23B1     2.321809    23B2     2.321809  
      24B1     2.443044    24B2     2.443044    13A2     2.497293  
      41A1     2.497293    25B2     2.510138    25B1     2.510138  
      42A1     2.533588    43A1     2.778857    26B1     2.851637  
      26B2     2.851637    14A2     2.956699    44A1     2.956699  
      27B2     3.033636    27B1     3.033636    45A1     3.055099  
      15A2     3.213069    46A1     3.213069    28B2     3.462213  
      28B1     3.462213    47A1     3.543633    29B2     3.668574  
      29B1     3.668574    16A2     3.733263    48A1     3.733263  
      49A1     3.819517    17A2     3.819517    30B1     3.882121  
      30B2     3.882121    31B2     4.013132    31B1     4.013132  
      50A1     4.016972    51A1     4.212857    18A2     4.221101  
      52A1     4.221101    53A1     4.566843    32B2     4.647773  
      32B1     4.647773    33B1     5.914737    33B2     5.914737  
      19A2     5.943104    54A1     5.943104    34B2     6.113266  
      34B1     6.113266    35B1     6.193130    35B2     6.193130  
      55A1     6.281504    20A2     6.281504    36B1     6.361986  
      36B2     6.361986    56A1     6.365006    37B2     6.494477  
      37B1     6.494477    21A2     6.566749    57A1     6.566749  
      58A1     6.662651    22A2     6.801360    59A1     6.801360  
      60A1     6.908074    38B1     7.150562    38B2     7.150562  
      61A1     7.576959    39B1     7.664168    39B2     7.664168  
      62A1     8.962786    63A1     9.344561    23A2     9.344561  
      40B2     9.597515    40B1     9.597515    64A1    10.156475  
      65A1    20.679427    66A1    22.061055  

    Final Occupation by Irrep:
             A1    A2    B1    B2 
    DOCC [     7,    0,    2,    2 ]

  @DF-RHF Final Energy:  -435.36140100450302

   => Energetics <=

    Nuclear Repulsion Energy =             33.2187487347441248
    One-Electron Energy =                -665.9359125268315438
    Two-Electron Energy =                 197.3557627875843821
    Total Energy =                       -435.3614010045030227

Computation Completed


Properties will be evaluated at   0.000000,   0.000000,   0.000000 [a0]

Properties computed using the SCF density matrix

  Nuclear Dipole Moment: [e a0]
     X:     0.0000      Y:     0.0000      Z:     0.0110

  Electronic Dipole Moment: [e a0]
     X:     0.0000      Y:     0.0000      Z:     0.6426

  Dipole Moment: [e a0]
     X:     0.0000      Y:     0.0000      Z:     0.6536     Total:     0.6536

  Dipole Moment: [D]
     X:     0.0000      Y:     0.0000      Z:     1.6612     Total:     1.6612


*** tstop() called on bp1-compute00147.data.bp.acrc.priv at Mon Apr 19 16:12:41 2021
Module time:
	user time   =      17.01 seconds =       0.28 minutes
	system time =       0.73 seconds =       0.01 minutes
	total time  =          1 seconds =       0.02 minutes
Total time:
	user time   =     121.27 seconds =       2.02 minutes
	system time =       6.33 seconds =       0.11 minutes
	total time  =          9 seconds =       0.15 minutes

*** tstart() called on bp1-compute00147.data.bp.acrc.priv
*** at Mon Apr 19 16:12:41 2021


  //>>>>>>>>>>>>>>>>>>>>>>>>>>>>>>>>>>>//
  //               DFMP2               //
  //<<<<<<<<<<<<<<<<<<<<<<<<<<<<<<<<<<<//

   => Loading Basis Set <=

    Name: (AUG-CC-PV(Q+D)Z AUX)
    Role: RIFIT
    Keyword: DF_BASIS_MP2
    atoms 1 entry C          line   184 file /work/zw18965/.conda/envs/p4env/share/psi4/basis/aug-cc-pvqz-ri.gbs 
    atoms 2 entry S          line   824 file /work/zw18965/.conda/envs/p4env/share/psi4/basis/aug-cc-pvqz-ri.gbs 

	 --------------------------------------------------------
	                          DF-MP2                         
	      2nd-Order Density-Fitted Moller-Plesset Theory     
	              RMP2 Wavefunction,  24 Threads             
	                                                         
	        Rob Parrish, Justin Turney, Andy Simmonett,      
	           Ed Hohenstein, and C. David Sherrill          
	 --------------------------------------------------------

   => Auxiliary Basis Set <=

  Basis Set: (AUG-CC-PV(Q+D)Z AUX)
    Blend: AUG-CC-PVQZ-RI
    Number of shells: 80
    Number of basis function: 362
    Number of Cartesian functions: 505
    Spherical Harmonics?: true
    Max angular momentum: 5

	 --------------------------------------------------------
	                 NBF =   169, NAUX =   362
	 --------------------------------------------------------
	   CLASS    FOCC     OCC    AOCC    AVIR     VIR    FVIR
	   PAIRS       0      11      11     158     158       0
	 --------------------------------------------------------

  DFHelper Memory: AOs need 0.082 GiB; user supplied 100.583 GiB. Using in-core AOs.


         ------------------------------------------------------------
                                     CPHF                           
                                  Rob Parrish                       
         ------------------------------------------------------------

  ==> Geometry <==

    Molecular point group: c2v
    Full point group: C_inf_v

    Geometry (in Angstrom), charge = 0, multiplicity = 1:

       Center              X                  Y                   Z               Mass       
    ------------   -----------------  -----------------  -----------------  -----------------
         C            0.000000000000     0.000000000000    -1.111944074860    12.000000000000
         S            0.000000000000     0.000000000000     0.417343275183    31.972071174400

  Nuclear repulsion =   33.218748734744125
  Reference energy  = -435.361401004503023

  ==> Basis Set <==

  Basis Set: AUG-CC-PV(Q+D)Z
    Blend: AUG-CC-PV(Q+D)Z
    Number of shells: 43
    Number of basis function: 169
    Number of Cartesian functions: 220
    Spherical Harmonics?: true
    Max angular momentum: 4

  ==> CGRSolver (by Rob Parrish) <==

   Number of roots    =         1
   Preconditioning    =    JACOBI
   Convergence cutoff =     1E-06
   Maximum iterations =       100

  ==> CPHFRHamiltonian (by Rob Parrish) <== 

  ==> MemDFJK: Density-Fitted J/K Matrices <==

    J tasked:                   Yes
    K tasked:                   Yes
    wK tasked:                   No
    OpenMP threads:              24
    Memory [MiB]:            102996
    Algorithm:                 Core
    Schwarz Cutoff:           1E-12
    Mask sparsity (%):       0.0000
    Fitting Condition:        1E-10

   => Auxiliary Basis Set <=

  Basis Set: (AUG-CC-PV(Q+D)Z AUX)
    Blend: AUG-CC-PVQZ-JKFIT
    Number of shells: 80
    Number of basis function: 326
    Number of Cartesian functions: 445
    Spherical Harmonics?: true
    Max angular momentum: 5

  ==> CPHF Iterations <==

  => Iterations <=

             Iter  Converged  Remaining    Residual
  CGR           1          0          1   1.549E-01
  CGR           2          0          1   4.577E-02
  CGR           3          0          1   1.834E-02
  CGR           4          0          1   3.945E-03
  CGR           5          0          1   9.756E-04
  CGR           6          0          1   1.393E-04
  CGR           7          0          1   2.659E-05
  CGR           8          0          1   4.678E-06
  CGR           9          1          0   5.935E-07

    CGRSolver converged.

Problem determining natural orbital and density matrix symmetries.
Future calls to oeprop using this density will not work. Try disabling symmetry.

  ==> DFCorrGrad: Density-Fitted Correlated Gradients <==

    OpenMP threads:             24
    Integrals threads:          24
    Memory [GiB]:          100.583
    Schwarz Cutoff:          0E+00
    Fitting Condition:       1E-10

   => Auxiliary Basis Set <=

  Basis Set: (AUG-CC-PV(Q+D)Z AUX)
    Blend: AUG-CC-PVQZ-JKFIT
    Number of shells: 80
    Number of basis function: 326
    Number of Cartesian functions: 445
    Spherical Harmonics?: true
    Max angular momentum: 5

	-----------------------------------------------------------
	 ==================> DF-MP2 Energies <==================== 
	-----------------------------------------------------------
	 Reference Energy          =    -435.3614010045030227 [Eh]
	 Singles Energy            =      -0.0000000000000000 [Eh]
	 Same-Spin Energy          =      -0.1201441522146909 [Eh]
	 Opposite-Spin Energy      =      -0.3591033861562186 [Eh]
	 Correlation Energy        =      -0.4792475383709094 [Eh]
	 Total Energy              =    -435.8406485428739074 [Eh]
	-----------------------------------------------------------
	 ================> DF-SCS-MP2 Energies <================== 
	-----------------------------------------------------------
	 SCS Same-Spin Scale       =       0.3333333333333333 [-]
	 SCS Opposite-Spin Scale   =       1.2000000000000000 [-]
	 SCS Same-Spin Energy      =      -0.0400480507382303 [Eh]
	 SCS Opposite-Spin Energy  =      -0.4309240633874623 [Eh]
	 SCS Correlation Energy    =      -0.4709721141256925 [Eh]
	 SCS Total Energy          =    -435.8323731186287091 [Eh]
	-----------------------------------------------------------


  -Total Gradient:
     Atom            X                  Y                   Z
    ------   -----------------  -----------------  -----------------
       1        0.000000000000     0.000000000000     0.002720921164
       2       -0.000000000000     0.000000000000    -0.002720921174


*** tstop() called on bp1-compute00147.data.bp.acrc.priv at Mon Apr 19 16:12:48 2021
Module time:
	user time   =      73.31 seconds =       1.22 minutes
	system time =       3.92 seconds =       0.07 minutes
	total time  =          7 seconds =       0.12 minutes
Total time:
	user time   =     194.58 seconds =       3.24 minutes
	system time =      10.25 seconds =       0.17 minutes
	total time  =         16 seconds =       0.27 minutes

			-----------------------------------------
			 OPTKING 2.0: for geometry optimizations 
			  - R.A. King,  Bethel University        
			-----------------------------------------

	Previous internal coordinate definitions found.
	---Fragment 1 Geometry and Gradient---
	 C           0.0000000000        0.0000000000       -2.1012697683
	 S           0.0000000000        0.0000000000        0.7886644904
	             0.0000000000        0.0000000000        0.0027209212
	            -0.0000000000        0.0000000000       -0.0027209212

	---Fragment 1 Intrafragment Coordinates---
	 - Coordinate -           - BOHR/RAD -       - ANG/DEG -
	 R(1,2)           =         2.889934	       1.529287

	Current energy   :      -435.8406485429

	Energy change for the previous step:
		Projected    :        -0.0001131825
		Actual       :        -0.0002190113
	Energy ratio indicates good step: Trust radius increased to 1.000e+00.


	Performing BFGS update.
	Previous computed or guess Hessian on step 1.
	Steps to be used in Hessian update: 1
	Taking RFO optimization step.
	Going to follow RFO solution 1.
	Using RFO vector 1.
	Norm of target step-size    0.00457
	Projected energy change by RFO approximation:        -0.0000019889

	Back-transformation to cartesian coordinates...
	Successfully converged to displaced geometry.

	--- Internal Coordinate Step in ANG or DEG, aJ/ANG or AJ/DEG ---
	 ---------------------------------------------------------------------------
	   Coordinate                Previous        Force       Change         New 
	   ----------                --------       ------       ------       ------
	    1 R(1,2)          =      1.529287     0.022417     0.002419     1.531707
	 ---------------------------------------------------------------------------
	Successfully symmetrized geometry.

  ==> Convergence Check <==

  Measures of convergence in internal coordinates in au.
  Criteria marked as inactive (o), active & met (*), and active & unmet ( ).
  ---------------------------------------------------------------------------------------------
   Step     Total Energy     Delta E     MAX Force     RMS Force      MAX Disp      RMS Disp   
  ---------------------------------------------------------------------------------------------
    Convergence Criteria    1.00e-06 *    3.00e-04 *             o    1.20e-03 *             o
  ---------------------------------------------------------------------------------------------
      2    -435.84064854   -2.19e-04      2.72e-03      2.72e-03 o    4.57e-03      4.57e-03 o  ~
  ---------------------------------------------------------------------------------------------

	Writing optimization data to binary file.
	Structure for next step:
	Cartesian Geometry (in Angstrom)
	    C     0.0000000000   0.0000000000  -1.1131536953
	    S     0.0000000000   0.0000000000   0.4185528984
			--------------------------
			 OPTKING Finished Execution 
			--------------------------

    Structure for next step:
    Molecular point group: c2v
    Full point group: C_inf_v

    Geometry (in Angstrom), charge = 0, multiplicity = 1:

    C            0.000000000000     0.000000000000    -1.113703110121
    S            0.000000000000     0.000000000000     0.418003489625

gradient() will perform analytic gradient computation.
    SCF Algorithm Type (re)set to DF.

*** tstart() called on bp1-compute00147.data.bp.acrc.priv
*** at Mon Apr 19 16:12:48 2021

   => Loading Basis Set <=

    Name: AUG-CC-PV(Q+D)Z
    Role: ORBITAL
    Keyword: BASIS
    atoms 1 entry C          line   319 file /work/zw18965/.conda/envs/p4env/share/psi4/basis/aug-cc-pv_qpd_z.gbs 
    atoms 2 entry S          line  1148 file /work/zw18965/.conda/envs/p4env/share/psi4/basis/aug-cc-pv_qpd_z.gbs 


         ---------------------------------------------------------
                                   SCF
               by Justin Turney, Rob Parrish, Andy Simmonett
                          and Daniel G. A. Smith
                              RHF Reference
                       24 Threads, 137329 MiB Core
         ---------------------------------------------------------

  ==> Geometry <==

    Molecular point group: c2v
    Full point group: C_inf_v

    Geometry (in Angstrom), charge = 0, multiplicity = 1:

       Center              X                  Y                   Z               Mass       
    ------------   -----------------  -----------------  -----------------  -----------------
         C            0.000000000000     0.000000000000    -1.113703110121    12.000000000000
         S            0.000000000000     0.000000000000     0.418003489625    31.972071174400

  Running in c2v symmetry.

  Rotational constants: A = ************  B =      0.82351  C =      0.82351 [cm^-1]
  Rotational constants: A = ************  B =  24688.28585  C =  24688.28585 [MHz]
  Nuclear repulsion =   33.166281475005817

  Charge       = 0
  Multiplicity = 1
  Electrons    = 22
  Nalpha       = 11
  Nbeta        = 11

  ==> Algorithm <==

  SCF Algorithm Type is DF.
  DIIS enabled.
  MOM disabled.
  Fractional occupation disabled.
  Guess Type is READ.
  Energy threshold   = 1.00e-10
  Density threshold  = 1.00e-10
  Integral threshold = 0.00e+00

  ==> Primary Basis <==

  Basis Set: AUG-CC-PV(Q+D)Z
    Blend: AUG-CC-PV(Q+D)Z
    Number of shells: 43
    Number of basis function: 169
    Number of Cartesian functions: 220
    Spherical Harmonics?: true
    Max angular momentum: 4

   => Loading Basis Set <=

    Name: (AUG-CC-PV(Q+D)Z AUX)
    Role: JKFIT
    Keyword: DF_BASIS_SCF
    atoms 1 entry C          line   178 file /work/zw18965/.conda/envs/p4env/share/psi4/basis/aug-cc-pvqz-jkfit.gbs 
    atoms 2 entry S          line   810 file /work/zw18965/.conda/envs/p4env/share/psi4/basis/aug-cc-pvqz-jkfit.gbs 

   => Loading Basis Set <=

    Name: AUG-CC-PV(Q+D)Z
    Role: ORBITAL
    Keyword: BASIS
    atoms 1 entry C          line   319 file /work/zw18965/.conda/envs/p4env/share/psi4/basis/aug-cc-pv_qpd_z.gbs 
    atoms 2 entry S          line  1148 file /work/zw18965/.conda/envs/p4env/share/psi4/basis/aug-cc-pv_qpd_z.gbs 

  Reading orbitals from file 180, no projection.

  ==> Pre-Iterations <==

   -------------------------------------------------------
    Irrep   Nso     Nmo     Nalpha   Nbeta   Ndocc  Nsocc
   -------------------------------------------------------
     A1        66      66       0       0       0       0
     A2        23      23       0       0       0       0
     B1        40      40       0       0       0       0
     B2        40      40       0       0       0       0
   -------------------------------------------------------
    Total     169     169      11      11      11       0
   -------------------------------------------------------

  ==> Integral Setup <==

  DFHelper Memory: AOs need 0.082 GiB; user supplied 100.583 GiB. Using in-core AOs.

  ==> MemDFJK: Density-Fitted J/K Matrices <==

    J tasked:                   Yes
    K tasked:                   Yes
    wK tasked:                   No
    OpenMP threads:              24
    Memory [MiB]:            102996
    Algorithm:                 Core
    Schwarz Cutoff:           1E-12
    Mask sparsity (%):       0.0000
    Fitting Condition:        1E-10

   => Auxiliary Basis Set <=

  Basis Set: (AUG-CC-PV(Q+D)Z AUX)
    Blend: AUG-CC-PVQZ-JKFIT
    Number of shells: 80
    Number of basis function: 326
    Number of Cartesian functions: 445
    Spherical Harmonics?: true
    Max angular momentum: 5

  Minimum eigenvalue in the overlap matrix is 3.6841026428E-05.
  Using Symmetric Orthogonalization.

  SCF Guess: Orbitals guess was supplied from a previous computation.

  ==> Iterations <==

                           Total Energy        Delta E     RMS |[F,P]|

   @DF-RHF iter   0:  -435.35987690284094   -4.35360e+02   9.70191e-05 
   @DF-RHF iter   1:  -435.36128723389038   -1.41033e-03   1.00736e-05 DIIS
   @DF-RHF iter   2:  -435.36128754916507   -3.15275e-07   6.32672e-06 DIIS
   @DF-RHF iter   3:  -435.36128772995028   -1.80785e-07   1.64716e-06 DIIS
   @DF-RHF iter   4:  -435.36128774182617   -1.18759e-08   3.80594e-07 DIIS
   @DF-RHF iter   5:  -435.36128774318581   -1.35964e-09   1.44130e-07 DIIS
   @DF-RHF iter   6:  -435.36128774340085   -2.15039e-10   3.72221e-08 DIIS
   @DF-RHF iter   7:  -435.36128774342251   -2.16573e-11   9.71110e-09 DIIS
   @DF-RHF iter   8:  -435.36128774342433   -1.81899e-12   9.02572e-10 DIIS
   @DF-RHF iter   9:  -435.36128774342433    0.00000e+00   1.56640e-10 DIIS
   @DF-RHF iter  10:  -435.36128774342387    4.54747e-13   2.95838e-11 DIIS
  Energy and wave function converged.


  ==> Post-Iterations <==

    Orbital Energies [Eh]
    ---------------------

    Doubly Occupied:                                                      

       1A1   -91.999863     2A1   -11.353373     3A1    -9.006997  
       4A1    -6.687168     1B1    -6.686462     1B2    -6.686462  
       5A1    -1.101539     6A1    -0.692351     7A1    -0.470337  
       2B1    -0.463714     2B2    -0.463714  

    Virtual:                                                              

       8A1     0.046096     3B1     0.046205     3B2     0.046205  
       9A1     0.076938     4B2     0.078248     4B1     0.078248  
      10A1     0.098293     5B1     0.108013     5B2     0.108013  
      11A1     0.165832    12A1     0.191309     1A2     0.191309  
      13A1     0.220406     6B1     0.271126     6B2     0.271126  
      14A1     0.283053     2A2     0.286568    15A1     0.286568  
       7B1     0.296869     7B2     0.296869    16A1     0.349236  
       8B2     0.393299     8B1     0.393299    17A1     0.458593  
      18A1     0.499379    19A1     0.503756     3A2     0.503756  
      20A1     0.536030     9B2     0.544843     9B1     0.544843  
      10B1     0.549377    10B2     0.549377    11B1     0.586293  
      11B2     0.586293     4A2     0.615545    21A1     0.615545  
      22A1     0.694697    12B1     0.747076    12B2     0.747076  
      23A1     0.820546    13B2     0.834565    13B1     0.834565  
      24A1     0.835437     5A2     0.835437    14B2     0.927614  
      14B1     0.927614    25A1     0.982225    26A1     1.049287  
       6A2     1.049287    27A1     1.068379    28A1     1.129364  
      15B1     1.186587    15B2     1.186587    29A1     1.299332  
       7A2     1.299332    16B1     1.391259    16B2     1.391259  
      30A1     1.422789    31A1     1.450782     8A2     1.450782  
      17B2     1.491606    17B1     1.491606    18B1     1.497761  
      18B2     1.497761     9A2     1.563212    32A1     1.563212  
      19B1     1.578487    19B2     1.578487    20B1     1.598684  
      20B2     1.598684    33A1     1.654220    34A1     1.755939  
      21B1     1.826010    21B2     1.826010    35A1     1.859976  
      10A2     1.859976    36A1     2.078085    37A1     2.178122  
      11A2     2.178122    38A1     2.220410    12A2     2.273691  
      39A1     2.273691    22B1     2.283154    22B2     2.283154  
      40A1     2.316288    23B1     2.321362    23B2     2.321362  
      24B1     2.442594    24B2     2.442594    41A1     2.496521  
      13A2     2.496521    25B2     2.508712    25B1     2.508712  
      42A1     2.532533    43A1     2.777654    26B1     2.851189  
      26B2     2.851189    14A2     2.956073    44A1     2.956073  
      27B1     3.031529    27B2     3.031529    45A1     3.053327  
      46A1     3.211868    15A2     3.211868    28B1     3.461166  
      28B2     3.461166    47A1     3.542467    29B1     3.668827  
      29B2     3.668827    16A2     3.733089    48A1     3.733089  
      17A2     3.819752    49A1     3.819752    30B1     3.881860  
      30B2     3.881860    31B1     4.012236    31B2     4.012236  
      50A1     4.012343    51A1     4.212505    52A1     4.218846  
      18A2     4.218846    53A1     4.565575    32B2     4.646269  
      32B1     4.646269    33B1     5.912076    33B2     5.912076  
      54A1     5.942568    19A2     5.942568    34B1     6.111971  
      34B2     6.111971    35B1     6.191770    35B2     6.191770  
      55A1     6.280502    20A2     6.280502    36B1     6.361422  
      36B2     6.361422    56A1     6.365520    37B1     6.493777  
      37B2     6.493777    21A2     6.564610    57A1     6.564610  
      58A1     6.660720    59A1     6.799005    22A2     6.799005  
      60A1     6.904125    38B1     7.147681    38B2     7.147681  
      61A1     7.572086    39B1     7.657449    39B2     7.657449  
      62A1     8.959689    23A2     9.344361    63A1     9.344361  
      40B1     9.596366    40B2     9.596366    64A1    10.150902  
      65A1    20.658062    66A1    22.054350  

    Final Occupation by Irrep:
             A1    A2    B1    B2 
    DOCC [     7,    0,    2,    2 ]

  @DF-RHF Final Energy:  -435.36128774342387

   => Energetics <=

    Nuclear Repulsion Energy =             33.1662814750058175
    One-Electron Energy =                -665.8311791957368087
    Two-Electron Energy =                 197.3036099773071328
    Total Energy =                       -435.3612877434238726

Computation Completed


Properties will be evaluated at   0.000000,   0.000000,   0.000000 [a0]

Properties computed using the SCF density matrix

  Nuclear Dipole Moment: [e a0]
     X:     0.0000      Y:     0.0000      Z:     0.0110

  Electronic Dipole Moment: [e a0]
     X:     0.0000      Y:     0.0000      Z:     0.6372

  Dipole Moment: [e a0]
     X:     0.0000      Y:     0.0000      Z:     0.6483     Total:     0.6483

  Dipole Moment: [D]
     X:     0.0000      Y:     0.0000      Z:     1.6477     Total:     1.6477


*** tstop() called on bp1-compute00147.data.bp.acrc.priv at Mon Apr 19 16:12:49 2021
Module time:
	user time   =      17.56 seconds =       0.29 minutes
	system time =       0.69 seconds =       0.01 minutes
	total time  =          1 seconds =       0.02 minutes
Total time:
	user time   =     212.86 seconds =       3.55 minutes
	system time =      10.98 seconds =       0.18 minutes
	total time  =         17 seconds =       0.28 minutes

*** tstart() called on bp1-compute00147.data.bp.acrc.priv
*** at Mon Apr 19 16:12:49 2021


  //>>>>>>>>>>>>>>>>>>>>>>>>>>>>>>>>>>>//
  //               DFMP2               //
  //<<<<<<<<<<<<<<<<<<<<<<<<<<<<<<<<<<<//

   => Loading Basis Set <=

    Name: (AUG-CC-PV(Q+D)Z AUX)
    Role: RIFIT
    Keyword: DF_BASIS_MP2
    atoms 1 entry C          line   184 file /work/zw18965/.conda/envs/p4env/share/psi4/basis/aug-cc-pvqz-ri.gbs 
    atoms 2 entry S          line   824 file /work/zw18965/.conda/envs/p4env/share/psi4/basis/aug-cc-pvqz-ri.gbs 

	 --------------------------------------------------------
	                          DF-MP2                         
	      2nd-Order Density-Fitted Moller-Plesset Theory     
	              RMP2 Wavefunction,  24 Threads             
	                                                         
	        Rob Parrish, Justin Turney, Andy Simmonett,      
	           Ed Hohenstein, and C. David Sherrill          
	 --------------------------------------------------------

   => Auxiliary Basis Set <=

  Basis Set: (AUG-CC-PV(Q+D)Z AUX)
    Blend: AUG-CC-PVQZ-RI
    Number of shells: 80
    Number of basis function: 362
    Number of Cartesian functions: 505
    Spherical Harmonics?: true
    Max angular momentum: 5

	 --------------------------------------------------------
	                 NBF =   169, NAUX =   362
	 --------------------------------------------------------
	   CLASS    FOCC     OCC    AOCC    AVIR     VIR    FVIR
	   PAIRS       0      11      11     158     158       0
	 --------------------------------------------------------

  DFHelper Memory: AOs need 0.082 GiB; user supplied 100.583 GiB. Using in-core AOs.


         ------------------------------------------------------------
                                     CPHF                           
                                  Rob Parrish                       
         ------------------------------------------------------------

  ==> Geometry <==

    Molecular point group: c2v
    Full point group: C_inf_v

    Geometry (in Angstrom), charge = 0, multiplicity = 1:

       Center              X                  Y                   Z               Mass       
    ------------   -----------------  -----------------  -----------------  -----------------
         C            0.000000000000     0.000000000000    -1.113703110121    12.000000000000
         S            0.000000000000     0.000000000000     0.418003489625    31.972071174400

  Nuclear repulsion =   33.166281475005817
  Reference energy  = -435.361287743423873

  ==> Basis Set <==

  Basis Set: AUG-CC-PV(Q+D)Z
    Blend: AUG-CC-PV(Q+D)Z
    Number of shells: 43
    Number of basis function: 169
    Number of Cartesian functions: 220
    Spherical Harmonics?: true
    Max angular momentum: 4

  ==> CGRSolver (by Rob Parrish) <==

   Number of roots    =         1
   Preconditioning    =    JACOBI
   Convergence cutoff =     1E-06
   Maximum iterations =       100

  ==> CPHFRHamiltonian (by Rob Parrish) <== 

  ==> MemDFJK: Density-Fitted J/K Matrices <==

    J tasked:                   Yes
    K tasked:                   Yes
    wK tasked:                   No
    OpenMP threads:              24
    Memory [MiB]:            102996
    Algorithm:                 Core
    Schwarz Cutoff:           1E-12
    Mask sparsity (%):       0.0000
    Fitting Condition:        1E-10

   => Auxiliary Basis Set <=

  Basis Set: (AUG-CC-PV(Q+D)Z AUX)
    Blend: AUG-CC-PVQZ-JKFIT
    Number of shells: 80
    Number of basis function: 326
    Number of Cartesian functions: 445
    Spherical Harmonics?: true
    Max angular momentum: 5

  ==> CPHF Iterations <==

  => Iterations <=

             Iter  Converged  Remaining    Residual
  CGR           1          0          1   1.556E-01
  CGR           2          0          1   4.611E-02
  CGR           3          0          1   1.851E-02
  CGR           4          0          1   3.975E-03
  CGR           5          0          1   9.821E-04
  CGR           6          0          1   1.404E-04
  CGR           7          0          1   2.672E-05
  CGR           8          0          1   4.684E-06
  CGR           9          1          0   5.964E-07

    CGRSolver converged.

  ==> DFCorrGrad: Density-Fitted Correlated Gradients <==

    OpenMP threads:             24
    Integrals threads:          24
    Memory [GiB]:          100.583
    Schwarz Cutoff:          0E+00
    Fitting Condition:       1E-10

   => Auxiliary Basis Set <=

  Basis Set: (AUG-CC-PV(Q+D)Z AUX)
    Blend: AUG-CC-PVQZ-JKFIT
    Number of shells: 80
    Number of basis function: 326
    Number of Cartesian functions: 445
    Spherical Harmonics?: true
    Max angular momentum: 5

	-----------------------------------------------------------
	 ==================> DF-MP2 Energies <==================== 
	-----------------------------------------------------------
	 Reference Energy          =    -435.3612877434238726 [Eh]
	 Singles Energy            =      -0.0000000000000000 [Eh]
	 Same-Spin Energy          =      -0.1201735158491325 [Eh]
	 Opposite-Spin Energy      =      -0.3591937336842853 [Eh]
	 Correlation Energy        =      -0.4793672495334178 [Eh]
	 Total Energy              =    -435.8406549929572975 [Eh]
	-----------------------------------------------------------
	 ================> DF-SCS-MP2 Energies <================== 
	-----------------------------------------------------------
	 SCS Same-Spin Scale       =       0.3333333333333333 [-]
	 SCS Opposite-Spin Scale   =       1.2000000000000000 [-]
	 SCS Same-Spin Energy      =      -0.0400578386163775 [Eh]
	 SCS Opposite-Spin Energy  =      -0.4310324804211423 [Eh]
	 SCS Correlation Energy    =      -0.4710903190375199 [Eh]
	 SCS Total Energy          =    -435.8323780624613732 [Eh]
	-----------------------------------------------------------


  -Total Gradient:
     Atom            X                  Y                   Z
    ------   -----------------  -----------------  -----------------
       1       -0.000000000000    -0.000000000000     0.000106488220
       2        0.000000000000     0.000000000000    -0.000106488235


*** tstop() called on bp1-compute00147.data.bp.acrc.priv at Mon Apr 19 16:12:55 2021
Module time:
	user time   =      73.70 seconds =       1.23 minutes
	system time =       3.85 seconds =       0.06 minutes
	total time  =          6 seconds =       0.10 minutes
Total time:
	user time   =     286.57 seconds =       4.78 minutes
	system time =      14.83 seconds =       0.25 minutes
	total time  =         23 seconds =       0.38 minutes

			-----------------------------------------
			 OPTKING 2.0: for geometry optimizations 
			  - R.A. King,  Bethel University        
			-----------------------------------------

	Previous internal coordinate definitions found.
	---Fragment 1 Geometry and Gradient---
	 C           0.0000000000        0.0000000000       -2.1045938632
	 S           0.0000000000        0.0000000000        0.7899121149
	            -0.0000000000       -0.0000000000        0.0001064882
	             0.0000000000        0.0000000000       -0.0001064882

	---Fragment 1 Intrafragment Coordinates---
	 - Coordinate -           - BOHR/RAD -       - ANG/DEG -
	 R(1,2)           =         2.894506	       1.531707

	Current energy   :      -435.8406549930

	Energy change for the previous step:
		Projected    :        -0.0000019889
		Actual       :        -0.0000064501

	Performing BFGS update.
	Previous computed or guess Hessian on step 1.
	Steps to be used in Hessian update: 2 1
	Taking RFO optimization step.
	Going to follow RFO solution 1.
	Using RFO vector 1.
	Norm of target step-size    0.00018
	Projected energy change by RFO approximation:        -0.0000000030

	Back-transformation to cartesian coordinates...
	Successfully converged to displaced geometry.

	--- Internal Coordinate Step in ANG or DEG, aJ/ANG or AJ/DEG ---
	 ---------------------------------------------------------------------------
	   Coordinate                Previous        Force       Change         New 
	   ----------                --------       ------       ------       ------
	    1 R(1,2)          =      1.531707     0.000877     0.000095     1.531802
	 ---------------------------------------------------------------------------
	Successfully symmetrized geometry.

  ==> Convergence Check <==

  Measures of convergence in internal coordinates in au.
  Criteria marked as inactive (o), active & met (*), and active & unmet ( ).
  ---------------------------------------------------------------------------------------------
   Step     Total Energy     Delta E     MAX Force     RMS Force      MAX Disp      RMS Disp   
  ---------------------------------------------------------------------------------------------
    Convergence Criteria    1.00e-06 *    3.00e-04 *             o    1.20e-03 *             o
  ---------------------------------------------------------------------------------------------
      3    -435.84065499   -6.45e-06      1.06e-04 *    1.06e-04 o    1.80e-04 *    1.80e-04 o  ~
  ---------------------------------------------------------------------------------------------


  **** Optimization is complete! (in 3 steps) ****

  ==> Optimization Summary <==

  Measures of convergence in internal coordinates in au.
  --------------------------------------------------------------------------------------------------------------- ~
   Step         Total Energy             Delta E       MAX Force       RMS Force        MAX Disp        RMS Disp  ~
  --------------------------------------------------------------------------------------------------------------- ~
      1    -435.840429531610   -435.840429531610      0.01643676      0.01643676      0.02304597      0.02304597  ~
      2    -435.840648542874     -0.000219011264      0.00272092      0.00272092      0.00457172      0.00457172  ~
      3    -435.840654992957     -0.000006450083      0.00010649      0.00010649      0.00018009      0.00018009  ~
  --------------------------------------------------------------------------------------------------------------- ~

	Writing optimization data to binary file.
	Final energy is   -435.8406549929573
	Final (previous) structure:
	Cartesian Geometry (in Angstrom)
	    C     0.0000000000   0.0000000000  -1.1137031057
	    S     0.0000000000   0.0000000000   0.4180034880
	Saving final (previous) structure.
			--------------------------
			 OPTKING Finished Execution 
			--------------------------

    Final optimized geometry and variables:
    Molecular point group: c2v
    Full point group: C_inf_v

    Geometry (in Angstrom), charge = 0, multiplicity = 1:

    C            0.000000000000     0.000000000000    -1.113703110121
    S            0.000000000000     0.000000000000     0.418003489625

	Removing binary optimization data file.
	Cleaning optimization helper files.
gradient() will perform analytic gradient computation.
    SCF Algorithm Type (re)set to DF.

*** tstart() called on bp1-compute00147.data.bp.acrc.priv
*** at Mon Apr 19 16:12:55 2021

   => Loading Basis Set <=

    Name: AUG-CC-PV(Q+D)Z
    Role: ORBITAL
    Keyword: BASIS
    atoms 1 entry C          line   319 file /work/zw18965/.conda/envs/p4env/share/psi4/basis/aug-cc-pv_qpd_z.gbs 
    atoms 2 entry S          line  1148 file /work/zw18965/.conda/envs/p4env/share/psi4/basis/aug-cc-pv_qpd_z.gbs 


         ---------------------------------------------------------
                                   SCF
               by Justin Turney, Rob Parrish, Andy Simmonett
                          and Daniel G. A. Smith
                              RHF Reference
                       24 Threads, 137329 MiB Core
         ---------------------------------------------------------

  ==> Geometry <==

    Molecular point group: c2v
    Full point group: C_inf_v

    Geometry (in Angstrom), charge = 0, multiplicity = 1:

       Center              X                  Y                   Z               Mass       
    ------------   -----------------  -----------------  -----------------  -----------------
         C            0.000000000000     0.000000000000    -1.113703110121    12.000000000000
         S            0.000000000000     0.000000000000     0.418003489625    31.972071174400

  Running in c2v symmetry.

  Rotational constants: A = ************  B =      0.82351  C =      0.82351 [cm^-1]
  Rotational constants: A = ************  B =  24688.28585  C =  24688.28585 [MHz]
  Nuclear repulsion =   33.166281475005817

  Charge       = 0
  Multiplicity = 1
  Electrons    = 22
  Nalpha       = 11
  Nbeta        = 11

  ==> Algorithm <==

  SCF Algorithm Type is DF.
  DIIS enabled.
  MOM disabled.
  Fractional occupation disabled.
  Guess Type is SAD.
  Energy threshold   = 1.00e-10
  Density threshold  = 1.00e-10
  Integral threshold = 0.00e+00

  ==> Primary Basis <==

  Basis Set: AUG-CC-PV(Q+D)Z
    Blend: AUG-CC-PV(Q+D)Z
    Number of shells: 43
    Number of basis function: 169
    Number of Cartesian functions: 220
    Spherical Harmonics?: true
    Max angular momentum: 4

   => Loading Basis Set <=

    Name: (AUG-CC-PV(Q+D)Z AUX)
    Role: JKFIT
    Keyword: DF_BASIS_SCF
    atoms 1 entry C          line   178 file /work/zw18965/.conda/envs/p4env/share/psi4/basis/aug-cc-pvqz-jkfit.gbs 
    atoms 2 entry S          line   810 file /work/zw18965/.conda/envs/p4env/share/psi4/basis/aug-cc-pvqz-jkfit.gbs 

  ==> Pre-Iterations <==

   -------------------------------------------------------
    Irrep   Nso     Nmo     Nalpha   Nbeta   Ndocc  Nsocc
   -------------------------------------------------------
     A1        66      66       0       0       0       0
     A2        23      23       0       0       0       0
     B1        40      40       0       0       0       0
     B2        40      40       0       0       0       0
   -------------------------------------------------------
    Total     169     169      11      11      11       0
   -------------------------------------------------------

  ==> Integral Setup <==

  DFHelper Memory: AOs need 0.082 GiB; user supplied 100.583 GiB. Using in-core AOs.

  ==> MemDFJK: Density-Fitted J/K Matrices <==

    J tasked:                   Yes
    K tasked:                   Yes
    wK tasked:                   No
    OpenMP threads:              24
    Memory [MiB]:            102996
    Algorithm:                 Core
    Schwarz Cutoff:           1E-12
    Mask sparsity (%):       0.0000
    Fitting Condition:        1E-10

   => Auxiliary Basis Set <=

  Basis Set: (AUG-CC-PV(Q+D)Z AUX)
    Blend: AUG-CC-PVQZ-JKFIT
    Number of shells: 80
    Number of basis function: 326
    Number of Cartesian functions: 445
    Spherical Harmonics?: true
    Max angular momentum: 5

  Minimum eigenvalue in the overlap matrix is 3.6841026428E-05.
  Using Symmetric Orthogonalization.

  SCF Guess: Superposition of Atomic Densities via on-the-fly atomic UHF.

  ==> Iterations <==

                           Total Energy        Delta E     RMS |[F,P]|

   @DF-RHF iter SAD:  -434.68428509114250   -4.34684e+02   0.00000e+00 
   @DF-RHF iter   1:  -435.33952148223233   -6.55236e-01   2.09534e-03 DIIS
   @DF-RHF iter   2:  -435.35209198612660   -1.25705e-02   1.41538e-03 DIIS
   @DF-RHF iter   3:  -435.36021896968037   -8.12698e-03   3.14975e-04 DIIS
   @DF-RHF iter   4:  -435.36106616897462   -8.47199e-04   1.30572e-04 DIIS
   @DF-RHF iter   5:  -435.36126524279439   -1.99074e-04   3.98694e-05 DIIS
   @DF-RHF iter   6:  -435.36128731175540   -2.20690e-05   6.57936e-06 DIIS
   @DF-RHF iter   7:  -435.36128771068115   -3.98926e-07   1.69759e-06 DIIS
   @DF-RHF iter   8:  -435.36128774217605   -3.14949e-08   3.60219e-07 DIIS
   @DF-RHF iter   9:  -435.36128774339386   -1.21781e-09   5.09131e-08 DIIS
   @DF-RHF iter  10:  -435.36128774342393   -3.00702e-11   5.04596e-09 DIIS
   @DF-RHF iter  11:  -435.36128774342416   -2.27374e-13   7.49559e-10 DIIS
   @DF-RHF iter  12:  -435.36128774342455   -3.97904e-13   2.00535e-10 DIIS
   @DF-RHF iter  13:  -435.36128774342404    5.11591e-13   5.35998e-11 DIIS
  Energy and wave function converged.


  ==> Post-Iterations <==

    Orbital Energies [Eh]
    ---------------------

    Doubly Occupied:                                                      

       1A1   -91.999863     2A1   -11.353373     3A1    -9.006997  
       4A1    -6.687168     1B2    -6.686462     1B1    -6.686462  
       5A1    -1.101539     6A1    -0.692351     7A1    -0.470337  
       2B2    -0.463714     2B1    -0.463714  

    Virtual:                                                              

       8A1     0.046096     3B2     0.046205     3B1     0.046205  
       9A1     0.076938     4B1     0.078248     4B2     0.078248  
      10A1     0.098293     5B2     0.108013     5B1     0.108013  
      11A1     0.165832    12A1     0.191309     1A2     0.191309  
      13A1     0.220406     6B2     0.271126     6B1     0.271126  
      14A1     0.283053     2A2     0.286568    15A1     0.286568  
       7B2     0.296869     7B1     0.296869    16A1     0.349236  
       8B1     0.393299     8B2     0.393299    17A1     0.458593  
      18A1     0.499379    19A1     0.503756     3A2     0.503756  
      20A1     0.536030     9B2     0.544843     9B1     0.544843  
      10B1     0.549377    10B2     0.549377    11B2     0.586293  
      11B1     0.586293     4A2     0.615545    21A1     0.615545  
      22A1     0.694697    12B2     0.747076    12B1     0.747076  
      23A1     0.820546    13B2     0.834565    13B1     0.834565  
      24A1     0.835437     5A2     0.835437    14B1     0.927614  
      14B2     0.927614    25A1     0.982225    26A1     1.049287  
       6A2     1.049287    27A1     1.068379    28A1     1.129364  
      15B1     1.186587    15B2     1.186587    29A1     1.299332  
       7A2     1.299332    16B2     1.391259    16B1     1.391259  
      30A1     1.422789    31A1     1.450782     8A2     1.450782  
      17B2     1.491606    17B1     1.491606    18B1     1.497761  
      18B2     1.497761     9A2     1.563212    32A1     1.563212  
      19B1     1.578487    19B2     1.578487    20B2     1.598684  
      20B1     1.598684    33A1     1.654220    34A1     1.755939  
      21B2     1.826010    21B1     1.826010    35A1     1.859976  
      10A2     1.859976    36A1     2.078085    37A1     2.178122  
      11A2     2.178122    38A1     2.220410    12A2     2.273691  
      39A1     2.273691    22B1     2.283154    22B2     2.283154  
      40A1     2.316288    23B1     2.321362    23B2     2.321362  
      24B1     2.442594    24B2     2.442594    41A1     2.496521  
      13A2     2.496521    25B2     2.508712    25B1     2.508712  
      42A1     2.532533    43A1     2.777654    26B2     2.851189  
      26B1     2.851189    14A2     2.956073    44A1     2.956073  
      27B1     3.031529    27B2     3.031529    45A1     3.053327  
      46A1     3.211868    15A2     3.211868    28B2     3.461166  
      28B1     3.461166    47A1     3.542467    29B1     3.668827  
      29B2     3.668827    16A2     3.733089    48A1     3.733089  
      17A2     3.819752    49A1     3.819752    30B1     3.881860  
      30B2     3.881860    31B2     4.012236    31B1     4.012236  
      50A1     4.012343    51A1     4.212505    52A1     4.218846  
      18A2     4.218846    53A1     4.565575    32B2     4.646269  
      32B1     4.646269    33B2     5.912076    33B1     5.912076  
      54A1     5.942568    19A2     5.942568    34B1     6.111971  
      34B2     6.111971    35B1     6.191770    35B2     6.191770  
      55A1     6.280502    20A2     6.280502    36B1     6.361422  
      36B2     6.361422    56A1     6.365520    37B1     6.493777  
      37B2     6.493777    21A2     6.564610    57A1     6.564610  
      58A1     6.660720    59A1     6.799005    22A2     6.799005  
      60A1     6.904125    38B1     7.147681    38B2     7.147681  
      61A1     7.572086    39B1     7.657449    39B2     7.657449  
      62A1     8.959689    23A2     9.344361    63A1     9.344361  
      40B2     9.596366    40B1     9.596366    64A1    10.150902  
      65A1    20.658062    66A1    22.054350  

    Final Occupation by Irrep:
             A1    A2    B1    B2 
    DOCC [     7,    0,    2,    2 ]

  @DF-RHF Final Energy:  -435.36128774342404

   => Energetics <=

    Nuclear Repulsion Energy =             33.1662814750058175
    One-Electron Energy =                -665.8311791915105005
    Two-Electron Energy =                 197.3036099730806541
    Total Energy =                       -435.3612877434240431

Computation Completed


Properties will be evaluated at   0.000000,   0.000000,   0.000000 [a0]

Properties computed using the SCF density matrix

  Nuclear Dipole Moment: [e a0]
     X:     0.0000      Y:     0.0000      Z:     0.0110

  Electronic Dipole Moment: [e a0]
     X:     0.0000      Y:     0.0000      Z:     0.6372

  Dipole Moment: [e a0]
     X:     0.0000      Y:     0.0000      Z:     0.6483     Total:     0.6483

  Dipole Moment: [D]
     X:     0.0000      Y:     0.0000      Z:     1.6477     Total:     1.6477


*** tstop() called on bp1-compute00147.data.bp.acrc.priv at Mon Apr 19 16:12:57 2021
Module time:
	user time   =      31.49 seconds =       0.52 minutes
	system time =       1.16 seconds =       0.02 minutes
	total time  =          2 seconds =       0.03 minutes
Total time:
	user time   =     318.96 seconds =       5.32 minutes
	system time =      16.04 seconds =       0.27 minutes
	total time  =         25 seconds =       0.42 minutes

*** tstart() called on bp1-compute00147.data.bp.acrc.priv
*** at Mon Apr 19 16:12:57 2021


  //>>>>>>>>>>>>>>>>>>>>>>>>>>>>>>>>>>>//
  //               DFMP2               //
  //<<<<<<<<<<<<<<<<<<<<<<<<<<<<<<<<<<<//

   => Loading Basis Set <=

    Name: (AUG-CC-PV(Q+D)Z AUX)
    Role: RIFIT
    Keyword: DF_BASIS_MP2
    atoms 1 entry C          line   184 file /work/zw18965/.conda/envs/p4env/share/psi4/basis/aug-cc-pvqz-ri.gbs 
    atoms 2 entry S          line   824 file /work/zw18965/.conda/envs/p4env/share/psi4/basis/aug-cc-pvqz-ri.gbs 

	 --------------------------------------------------------
	                          DF-MP2                         
	      2nd-Order Density-Fitted Moller-Plesset Theory     
	              RMP2 Wavefunction,  24 Threads             
	                                                         
	        Rob Parrish, Justin Turney, Andy Simmonett,      
	           Ed Hohenstein, and C. David Sherrill          
	 --------------------------------------------------------

   => Auxiliary Basis Set <=

  Basis Set: (AUG-CC-PV(Q+D)Z AUX)
    Blend: AUG-CC-PVQZ-RI
    Number of shells: 80
    Number of basis function: 362
    Number of Cartesian functions: 505
    Spherical Harmonics?: true
    Max angular momentum: 5

	 --------------------------------------------------------
	                 NBF =   169, NAUX =   362
	 --------------------------------------------------------
	   CLASS    FOCC     OCC    AOCC    AVIR     VIR    FVIR
	   PAIRS       0      11      11     158     158       0
	 --------------------------------------------------------

  DFHelper Memory: AOs need 0.082 GiB; user supplied 100.583 GiB. Using in-core AOs.


         ------------------------------------------------------------
                                     CPHF                           
                                  Rob Parrish                       
         ------------------------------------------------------------

  ==> Geometry <==

    Molecular point group: c2v
    Full point group: C_inf_v

    Geometry (in Angstrom), charge = 0, multiplicity = 1:

       Center              X                  Y                   Z               Mass       
    ------------   -----------------  -----------------  -----------------  -----------------
         C            0.000000000000     0.000000000000    -1.113703110121    12.000000000000
         S            0.000000000000     0.000000000000     0.418003489625    31.972071174400

  Nuclear repulsion =   33.166281475005817
  Reference energy  = -435.361287743424043

  ==> Basis Set <==

  Basis Set: AUG-CC-PV(Q+D)Z
    Blend: AUG-CC-PV(Q+D)Z
    Number of shells: 43
    Number of basis function: 169
    Number of Cartesian functions: 220
    Spherical Harmonics?: true
    Max angular momentum: 4

  ==> CGRSolver (by Rob Parrish) <==

   Number of roots    =         1
   Preconditioning    =    JACOBI
   Convergence cutoff =     1E-06
   Maximum iterations =       100

  ==> CPHFRHamiltonian (by Rob Parrish) <== 

  ==> MemDFJK: Density-Fitted J/K Matrices <==

    J tasked:                   Yes
    K tasked:                   Yes
    wK tasked:                   No
    OpenMP threads:              24
    Memory [MiB]:            102996
    Algorithm:                 Core
    Schwarz Cutoff:           1E-12
    Mask sparsity (%):       0.0000
    Fitting Condition:        1E-10

   => Auxiliary Basis Set <=

  Basis Set: (AUG-CC-PV(Q+D)Z AUX)
    Blend: AUG-CC-PVQZ-JKFIT
    Number of shells: 80
    Number of basis function: 326
    Number of Cartesian functions: 445
    Spherical Harmonics?: true
    Max angular momentum: 5

  ==> CPHF Iterations <==

  => Iterations <=

             Iter  Converged  Remaining    Residual
  CGR           1          0          1   1.556E-01
  CGR           2          0          1   4.611E-02
  CGR           3          0          1   1.851E-02
  CGR           4          0          1   3.975E-03
  CGR           5          0          1   9.821E-04
  CGR           6          0          1   1.404E-04
[...]
   @DF-RHF iter   4:  -435.36111036849189   -8.44472e-04   1.30363e-04 DIIS
   @DF-RHF iter   5:  -435.36130873036876   -1.98362e-04   3.98168e-05 DIIS
   @DF-RHF iter   6:  -435.36133070981106   -2.19794e-05   6.57622e-06 DIIS
   @DF-RHF iter   7:  -435.36133110763052   -3.97819e-07   1.69626e-06 DIIS
   @DF-RHF iter   8:  -435.36133113907346   -3.14429e-08   3.59598e-07 DIIS
   @DF-RHF iter   9:  -435.36133114028803   -1.21457e-09   5.08709e-08 DIIS
   @DF-RHF iter  10:  -435.36133114031878   -3.07523e-11   5.03571e-09 DIIS
   @DF-RHF iter  11:  -435.36133114031901   -2.27374e-13   7.38884e-10 DIIS
   @DF-RHF iter  12:  -435.36133114031878    2.27374e-13   1.83044e-10 DIIS
   @DF-RHF iter  13:  -435.36133114031873    5.68434e-14   2.07010e-11 DIIS
  Energy and wave function converged.


  ==> Post-Iterations <==

    Orbital Energies [Eh]
    ---------------------

    Doubly Occupied:                                                      

       1A1   -91.999796     2A1   -11.353047     3A1    -9.006984  
       4A1    -6.687159     1B2    -6.686445     1B1    -6.686445  
       5A1    -1.101859     6A1    -0.692272     7A1    -0.470265  
       2B2    -0.463893     2B1    -0.463893  

    Virtual:                                                              

       8A1     0.046084     3B2     0.046311     3B1     0.046311  
       9A1     0.076959     4B1     0.078240     4B2     0.078240  
      10A1     0.098293     5B2     0.108040     5B1     0.108040  
      11A1     0.165840    12A1     0.191298     1A2     0.191298  
      13A1     0.220407     6B2     0.271136     6B1     0.271136  
      14A1     0.283102     2A2     0.286581    15A1     0.286581  
       7B2     0.296877     7B1     0.296877    16A1     0.349361  
       8B2     0.393251     8B1     0.393251    17A1     0.458536  
      18A1     0.499386    19A1     0.503704     3A2     0.503704  
      20A1     0.536166     9B2     0.544814     9B1     0.544814  
      10B2     0.549411    10B1     0.549411    11B2     0.586403  
      11B1     0.586403     4A2     0.615524    21A1     0.615524  
      22A1     0.694872    12B2     0.747196    12B1     0.747196  
      23A1     0.820704    13B2     0.834660    13B1     0.834660  
      24A1     0.835536     5A2     0.835536    14B1     0.927681  
      14B2     0.927681    25A1     0.982339    26A1     1.049460  
       6A2     1.049460    27A1     1.068451    28A1     1.129469  
      15B2     1.186571    15B1     1.186571    29A1     1.299244  
       7A2     1.299244    16B2     1.391450    16B1     1.391450  
      30A1     1.423034    31A1     1.450728     8A2     1.450728  
      17B2     1.491449    17B1     1.491449    18B2     1.497703  
      18B1     1.497703     9A2     1.563223    32A1     1.563223  
      19B1     1.578570    19B2     1.578570    20B2     1.598753  
      20B1     1.598753    33A1     1.654599    34A1     1.756217  
      21B2     1.826512    21B1     1.826512    35A1     1.860181  
      10A2     1.860181    36A1     2.077856    37A1     2.178311  
      11A2     2.178311    38A1     2.220502    39A1     2.273925  
      12A2     2.273925    22B2     2.283334    22B1     2.283334  
      40A1     2.316322    23B2     2.321528    23B1     2.321528  
      24B1     2.442761    24B2     2.442761    41A1     2.496807  
      13A2     2.496807    25B2     2.509240    25B1     2.509240  
      42A1     2.532923    43A1     2.778100    26B2     2.851356  
      26B1     2.851356    44A1     2.956306    14A2     2.956306  
      27B2     3.032307    27B1     3.032307    45A1     3.053981  
      15A2     3.212313    46A1     3.212313    28B2     3.461552  
      28B1     3.461552    47A1     3.542901    29B2     3.668734  
      29B1     3.668734    16A2     3.733153    48A1     3.733153  
      17A2     3.819665    49A1     3.819665    30B1     3.881956  
      30B2     3.881956    31B2     4.012567    31B1     4.012567  
      50A1     4.014055    51A1     4.212646    52A1     4.219680  
      18A2     4.219680    53A1     4.566029    32B2     4.646828  
      32B1     4.646828    33B2     5.913061    33B1     5.913061  
      19A2     5.942767    54A1     5.942767    34B1     6.112450  
      34B2     6.112450    35B1     6.192271    35B2     6.192271  
      55A1     6.280874    20A2     6.280874    36B1     6.361632  
      36B2     6.361632    56A1     6.365334    37B2     6.494036  
      37B1     6.494036    57A1     6.565400    21A2     6.565400  
      58A1     6.661451    22A2     6.799876    59A1     6.799876  
      60A1     6.905570    38B1     7.148749    38B2     7.148749  
      61A1     7.573883    39B1     7.659934    39B2     7.659934  
      62A1     8.960845    63A1     9.344435    23A2     9.344435  
      40B2     9.596788    40B1     9.596788    64A1    10.152966  
      65A1    20.665955    66A1    22.056816  

    Final Occupation by Irrep:
             A1    A2    B1    B2 
    DOCC [     7,    0,    2,    2 ]

  @DF-RHF Final Energy:  -435.36133114031873

   => Energetics <=

    Nuclear Repulsion Energy =             33.1856884943295327
    One-Electron Energy =                -665.8699205685260267
    Two-Electron Energy =                 197.3229009338778042
    Total Energy =                       -435.3613311403187254

Computation Completed


Properties will be evaluated at   0.000000,   0.000000,   0.000000 [a0]

Properties computed using the SCF density matrix

  Nuclear Dipole Moment: [e a0]
     X:     0.0000      Y:     0.0000      Z:     0.0110

  Electronic Dipole Moment: [e a0]
     X:     0.0000      Y:     0.0000      Z:     0.6392

  Dipole Moment: [e a0]
     X:     0.0000      Y:     0.0000      Z:     0.6502     Total:     0.6502

  Dipole Moment: [D]
     X:     0.0000      Y:     0.0000      Z:     1.6527     Total:     1.6527


*** tstop() called on bp1-compute00147.data.bp.acrc.priv at Mon Apr 19 16:13:21 2021
Module time:
	user time   =      32.21 seconds =       0.54 minutes
	system time =       1.17 seconds =       0.02 minutes
	total time  =          1 seconds =       0.02 minutes
Total time:
	user time   =     634.97 seconds =      10.58 minutes
	system time =      31.56 seconds =       0.53 minutes
	total time  =         49 seconds =       0.82 minutes

*** tstart() called on bp1-compute00147.data.bp.acrc.priv
*** at Mon Apr 19 16:13:21 2021


  //>>>>>>>>>>>>>>>>>>>>>>>>>>>>>>>>>>>//
  //               DFMP2               //
  //<<<<<<<<<<<<<<<<<<<<<<<<<<<<<<<<<<<//

   => Loading Basis Set <=

    Name: (AUG-CC-PV(Q+D)Z AUX)
    Role: RIFIT
    Keyword: DF_BASIS_MP2
    atoms 1 entry C          line   184 file /work/zw18965/.conda/envs/p4env/share/psi4/basis/aug-cc-pvqz-ri.gbs 
    atoms 2 entry S          line   824 file /work/zw18965/.conda/envs/p4env/share/psi4/basis/aug-cc-pvqz-ri.gbs 

	 --------------------------------------------------------
	                          DF-MP2                         
	      2nd-Order Density-Fitted Moller-Plesset Theory     
	              RMP2 Wavefunction,  24 Threads             
	                                                         
	        Rob Parrish, Justin Turney, Andy Simmonett,      
	           Ed Hohenstein, and C. David Sherrill          
	 --------------------------------------------------------

   => Auxiliary Basis Set <=

  Basis Set: (AUG-CC-PV(Q+D)Z AUX)
    Blend: AUG-CC-PVQZ-RI
    Number of shells: 80
    Number of basis function: 362
    Number of Cartesian functions: 505
    Spherical Harmonics?: true
    Max angular momentum: 5

	 --------------------------------------------------------
	                 NBF =   169, NAUX =   362
	 --------------------------------------------------------
	   CLASS    FOCC     OCC    AOCC    AVIR     VIR    FVIR
	   PAIRS       0      11      11     158     158       0
	 --------------------------------------------------------

  DFHelper Memory: AOs need 0.082 GiB; user supplied 100.583 GiB. Using in-core AOs.


         ------------------------------------------------------------
                                     CPHF                           
                                  Rob Parrish                       
         ------------------------------------------------------------

  ==> Geometry <==

    Molecular point group: c2v
    Full point group: C_inf_v

    Geometry (in Angstrom), charge = 0, multiplicity = 1:

       Center              X                  Y                   Z               Mass       
    ------------   -----------------  -----------------  -----------------  -----------------
         C            0.000000000000     0.000000000000    -1.113051815579    12.000000000000
         S            0.000000000000     0.000000000000     0.417759040823    31.972071174400

  Nuclear repulsion =   33.185688494329533
  Reference energy  = -435.361331140318725

  ==> Basis Set <==

  Basis Set: AUG-CC-PV(Q+D)Z
    Blend: AUG-CC-PV(Q+D)Z
    Number of shells: 43
    Number of basis function: 169
    Number of Cartesian functions: 220
    Spherical Harmonics?: true
    Max angular momentum: 4

  ==> CGRSolver (by Rob Parrish) <==

   Number of roots    =         1
   Preconditioning    =    JACOBI
   Convergence cutoff =     1E-06
   Maximum iterations =       100

  ==> CPHFRHamiltonian (by Rob Parrish) <== 

  ==> MemDFJK: Density-Fitted J/K Matrices <==

    J tasked:                   Yes
    K tasked:                   Yes
    wK tasked:                   No
    OpenMP threads:              24
    Memory [MiB]:            102996
    Algorithm:                 Core
    Schwarz Cutoff:           1E-12
    Mask sparsity (%):       0.0000
    Fitting Condition:        1E-10

   => Auxiliary Basis Set <=

  Basis Set: (AUG-CC-PV(Q+D)Z AUX)
    Blend: AUG-CC-PVQZ-JKFIT
    Number of shells: 80
    Number of basis function: 326
    Number of Cartesian functions: 445
    Spherical Harmonics?: true
    Max angular momentum: 5

  ==> CPHF Iterations <==

  => Iterations <=

             Iter  Converged  Remaining    Residual
  CGR           1          0          1   1.553E-01
  CGR           2          0          1   4.598E-02
  CGR           3          0          1   1.844E-02
  CGR           4          0          1   3.964E-03
  CGR           5          0          1   9.797E-04
  CGR           6          0          1   1.400E-04
  CGR           7          0          1   2.667E-05
  CGR           8          0          1   4.682E-06
  CGR           9          1          0   5.953E-07

    CGRSolver converged.

Problem determining natural orbital and density matrix symmetries.
Future calls to oeprop using this density will not work. Try disabling symmetry.

  ==> DFCorrGrad: Density-Fitted Correlated Gradients <==

    OpenMP threads:             24
    Integrals threads:          24
    Memory [GiB]:          100.583
    Schwarz Cutoff:          0E+00
    Fitting Condition:       1E-10

   => Auxiliary Basis Set <=

  Basis Set: (AUG-CC-PV(Q+D)Z AUX)
    Blend: AUG-CC-PVQZ-JKFIT
    Number of shells: 80
    Number of basis function: 326
    Number of Cartesian functions: 445
    Spherical Harmonics?: true
    Max angular momentum: 5

	-----------------------------------------------------------
	 ==================> DF-MP2 Energies <==================== 
	-----------------------------------------------------------
	 Reference Energy          =    -435.3613311403187254 [Eh]
	 Singles Energy            =      -0.0000000000000000 [Eh]
	 Same-Spin Energy          =      -0.1201626176135752 [Eh]
	 Opposite-Spin Energy      =      -0.3591602395061211 [Eh]
	 Correlation Energy        =      -0.4793228571196964 [Eh]
	 Total Energy              =    -435.8406539974384373 [Eh]
	-----------------------------------------------------------
	 ================> DF-SCS-MP2 Energies <================== 
	-----------------------------------------------------------
	 SCS Same-Spin Scale       =       0.3333333333333333 [-]
	 SCS Opposite-Spin Scale   =       1.2000000000000000 [-]
	 SCS Same-Spin Energy      =      -0.0400542058711917 [Eh]
	 SCS Opposite-Spin Energy  =      -0.4309922874073453 [Eh]
	 SCS Correlation Energy    =      -0.4710464932785370 [Eh]
	 SCS Total Energy          =    -435.8323776335972752 [Eh]
	-----------------------------------------------------------


  -Total Gradient:
     Atom            X                  Y                   Z
    ------   -----------------  -----------------  -----------------
       1        0.000000000000     0.000000000000     0.001070480454
       2        0.000000000000    -0.000000000000    -0.001070480462


*** tstop() called on bp1-compute00147.data.bp.acrc.priv at Mon Apr 19 16:13:28 2021
Module time:
	user time   =      72.99 seconds =       1.22 minutes
	system time =       4.02 seconds =       0.07 minutes
	total time  =          7 seconds =       0.12 minutes
Total time:
	user time   =     707.97 seconds =      11.80 minutes
	system time =      35.58 seconds =       0.59 minutes
	total time  =         56 seconds =       0.93 minutes

         ----------------------------------------------------------
                                   FINDIF
                     R. A. King and Jonathon Misiewicz
         ---------------------------------------------------------

  Computing second-derivative from gradients using projected, 
  symmetry-adapted, cartesian coordinates.

  3 gradients passed in, including the reference geometry.
  Generating complete list of displacements from unique ones.


-------------------------------------------------------------


  ==> Harmonic Vibrational Analysis <==

  non-mass-weighted Hessian:       Symmetric? True   Hermitian? True   Lin Dep Dim?  5 (0)
  projection of translations (True) and rotations (True) removed 5 degrees of freedom (5)
  total projector:                 Symmetric? True   Hermitian? True   Lin Dep Dim?  5 (5)
  mass-weighted Hessian:           Symmetric? True   Hermitian? True   Lin Dep Dim?  5 (0)
  pre-proj  low-frequency mode:    0.0000i [cm^-1]
  pre-proj  low-frequency mode:    0.0000  [cm^-1]
  pre-proj  low-frequency mode:    0.0000  [cm^-1]
  pre-proj  low-frequency mode:    0.0000  [cm^-1]
  pre-proj  low-frequency mode:    0.0000  [cm^-1]
  pre-proj  all modes:['0.0000i' '0.0000' '0.0000' '0.0000' '0.0000' '1311.6929']
  projected mass-weighted Hessian: Symmetric? True   Hermitian? True   Lin Dep Dim?  5 (5)
  post-proj low-frequency mode:    0.0000i [cm^-1] (TR)
  post-proj low-frequency mode:    0.0000  [cm^-1] (TR)
  post-proj low-frequency mode:    0.0000  [cm^-1] (TR)
  post-proj low-frequency mode:    0.0000  [cm^-1] (TR)
  post-proj low-frequency mode:    0.0000  [cm^-1] (TR)
  post-proj  all modes:['0.0000i' '0.0000' '0.0000' '0.0000' '0.0000' '1311.6929']

  Vibration                       6           
  Freq [cm^-1]                1311.6929       
  Irrep                           A1          
  Reduced mass [u]             14.4661        
  Force const [mDyne/A]        14.6644        
  Turning point v=0 [a0]        0.0797        
  RMS dev v=0 [a0 u^1/2]        0.2142        
  Char temp [K]               1887.2341       
  ----------------------------------------------------------------------------------
      1   C                0.00  0.00  0.94   
      2   S                0.00  0.00 -0.35   

  ==> Thermochemistry Components <==

  Entropy, S
    Electronic S            0.000 [cal/(mol K)]        0.000 [J/(mol K)]       0.00000000 [mEh/K] (multiplicity = 1)
    Translational S        37.269 [cal/(mol K)]      155.933 [J/(mol K)]       0.05939180 [mEh/K] (mol. weight = 43.9721 [u], P = 101325.00 [Pa])
    Rotational S           12.972 [cal/(mol K)]       54.277 [J/(mol K)]       0.02067287 [mEh/K] (symmetry no. = 1)
    Vibrational S           0.026 [cal/(mol K)]        0.109 [J/(mol K)]       0.00004144 [mEh/K]
  Total S                  50.267 [cal/(mol K)]      210.319 [J/(mol K)]       0.08010611 [mEh/K]
  Correction S              0.000 [cal/(mol K)]        0.000 [J/(mol K)]       0.00000000 [mEh/K]

  Constant volume heat capacity, Cv
    Electronic Cv           0.000 [cal/(mol K)]        0.000 [J/(mol K)]       0.00000000 [mEh/K]
    Translational Cv        2.981 [cal/(mol K)]       12.472 [J/(mol K)]       0.00475022 [mEh/K]
    Rotational Cv           1.987 [cal/(mol K)]        8.314 [J/(mol K)]       0.00316681 [mEh/K]
    Vibrational Cv          0.142 [cal/(mol K)]        0.596 [J/(mol K)]       0.00022696 [mEh/K]
  Total Cv                  5.110 [cal/(mol K)]       21.382 [J/(mol K)]       0.00814399 [mEh/K]
  Correction Cv             0.000 [cal/(mol K)]        0.000 [J/(mol K)]       0.00000000 [mEh/K]

  Constant pressure heat capacity, Cp
    Electronic Cp           0.000 [cal/(mol K)]        0.000 [J/(mol K)]       0.00000000 [mEh/K]
    Translational Cp        4.968 [cal/(mol K)]       20.786 [J/(mol K)]       0.00791703 [mEh/K]
    Rotational Cp           1.987 [cal/(mol K)]        8.314 [J/(mol K)]       0.00316681 [mEh/K]
    Vibrational Cp          0.142 [cal/(mol K)]        0.596 [J/(mol K)]       0.00022696 [mEh/K]
  Total Cp                  7.098 [cal/(mol K)]       29.696 [J/(mol K)]       0.01131080 [mEh/K]
  Correction Cp             0.000 [cal/(mol K)]        0.000 [J/(mol K)]       0.00000000 [mEh/K]

  ==> Thermochemistry Energy Analysis <==

  Raw electronic energy, E0
  Total E0, Electronic energy at well bottom at 0 [K]                 -435.84065499 [Eh]

  Zero-point energy, ZPE_vib = Sum_i nu_i / 2
    Electronic ZPE          0.000 [kcal/mol]        0.000 [kJ/mol]       0.00000000 [Eh]
    Translational ZPE       0.000 [kcal/mol]        0.000 [kJ/mol]       0.00000000 [Eh]
    Rotational ZPE          0.000 [kcal/mol]        0.000 [kJ/mol]       0.00000000 [Eh]
    Vibrational ZPE         1.875 [kcal/mol]        7.846 [kJ/mol]       0.00298826 [Eh]         655.846 [cm^-1]
  Correction ZPE            1.875 [kcal/mol]        7.846 [kJ/mol]       0.00298826 [Eh]         655.846 [cm^-1]
  Total ZPE, Electronic energy at 0 [K]                               -435.83766674 [Eh]

  Thermal Energy, E (includes ZPE)
    Electronic E            0.000 [kcal/mol]        0.000 [kJ/mol]       0.00000000 [Eh]
    Translational E         0.889 [kcal/mol]        3.718 [kJ/mol]       0.00141628 [Eh]
    Rotational E            0.592 [kcal/mol]        2.479 [kJ/mol]       0.00094418 [Eh]
    Vibrational E           1.882 [kcal/mol]        7.874 [kJ/mol]       0.00299893 [Eh]
  Correction E              3.363 [kcal/mol]       14.071 [kJ/mol]       0.00535939 [Eh]
  Total E, Electronic energy at  298.15 [K]                           -435.83529560 [Eh]

  Enthalpy, H_trans = E_trans + k_B * T
    Electronic H            0.000 [kcal/mol]        0.000 [kJ/mol]       0.00000000 [Eh]
    Translational H         1.481 [kcal/mol]        6.197 [kJ/mol]       0.00236046 [Eh]
    Rotational H            0.592 [kcal/mol]        2.479 [kJ/mol]       0.00094418 [Eh]
    Vibrational H           1.882 [kcal/mol]        7.874 [kJ/mol]       0.00299893 [Eh]
  Correction H              3.956 [kcal/mol]       16.550 [kJ/mol]       0.00630357 [Eh]
  Total H, Enthalpy at  298.15 [K]                                    -435.83435142 [Eh]

  Gibbs free energy, G = H - T * S
    Electronic G            0.000 [kcal/mol]        0.000 [kJ/mol]       0.00000000 [Eh]
    Translational G        -9.631 [kcal/mol]      -40.294 [kJ/mol]      -0.01534720 [Eh]
    Rotational G           -3.275 [kcal/mol]      -13.704 [kJ/mol]      -0.00521943 [Eh]
    Vibrational G           1.874 [kcal/mol]        7.841 [kJ/mol]       0.00298657 [Eh]
  Correction G            -11.032 [kcal/mol]      -46.156 [kJ/mol]      -0.01758006 [Eh]
  Total G, Free enthalpy at  298.15 [K]                               -435.85823506 [Eh]

    Psi4 stopped on: Monday, 19 April 2021 04:13PM
    Psi4 wall time for execution: 0:00:55.95

*** Psi4 exiting successfully. Buy a developer a beer!
