
    -----------------------------------------------------------------------
          Psi4: An Open-Source Ab Initio Electronic Structure Package
                               Psi4 1.3.2 release

                         Git: Rev {HEAD} ecbda83 


    R. M. Parrish, L. A. Burns, D. G. A. Smith, A. C. Simmonett,
    A. E. DePrince III, E. G. Hohenstein, U. Bozkaya, A. Yu. Sokolov,
    R. Di Remigio, R. M. Richard, J. F. Gonthier, A. M. James,
    H. R. McAlexander, A. Kumar, M. Saitow, X. Wang, B. P. Pritchard,
    P. Verma, H. F. Schaefer III, K. Patkowski, R. A. King, E. F. Valeev,
    F. A. Evangelista, J. M. Turney, T. D. Crawford, and C. D. Sherrill,
    J. Chem. Theory Comput. 13(7) pp 3185--3197 (2017).
    (doi: 10.1021/acs.jctc.7b00174)


                         Additional Contributions by
    P. Kraus, H. Kruse, M. H. Lechner, M. C. Schieber, R. A. Shaw,
    A. Alenaizan, R. Galvelis, Z. L. Glick, S. Lehtola, and J. P. Misiewicz

    -----------------------------------------------------------------------


    Psi4 started on: Monday, 19 April 2021 04:12PM

    Process ID: 158715
    Host:       bp1-compute00138.data.bp.acrc.priv
    PSIDATADIR: /work/zw18965/.conda/envs/p4env/share/psi4
    Memory:     500.0 MiB
    Threads:    24
    
  ==> Input File <==

--------------------------------------------------------------------------
memory 144 GB

molecule {
0 1
C     0.006046262393  -0.000813292455  -0.000385939523
O     1.185352396207  -0.156985018164  -0.075819478883
H    -0.491575714541   0.971070572654  -0.181006017508
H    -0.699831331517  -0.813339488707   0.257219384156}

set basis aug-cc-pV(Q+d)Z
 
optimize("MP2")
frequencies("MP2")--------------------------------------------------------------------------

  Memory set to 134.110 GiB by Python driver.
gradient() will perform analytic gradient computation.
    SCF Algorithm Type (re)set to DF.

*** tstart() called on bp1-compute00138.data.bp.acrc.priv
*** at Mon Apr 19 16:12:41 2021

   => Loading Basis Set <=

    Name: AUG-CC-PV(Q+D)Z
    Role: ORBITAL
    Keyword: BASIS
    atoms 1   entry C          line   319 file /work/zw18965/.conda/envs/p4env/share/psi4/basis/aug-cc-pv_qpd_z.gbs 
    atoms 2   entry O          line   439 file /work/zw18965/.conda/envs/p4env/share/psi4/basis/aug-cc-pv_qpd_z.gbs 
    atoms 3-4 entry H          line    56 file /work/zw18965/.conda/envs/p4env/share/psi4/basis/aug-cc-pv_qpd_z.gbs 


         ---------------------------------------------------------
                                   SCF
               by Justin Turney, Rob Parrish, Andy Simmonett
                          and Daniel G. A. Smith
                              RHF Reference
                       24 Threads, 137329 MiB Core
         ---------------------------------------------------------

  ==> Geometry <==

    Molecular point group: c1
    Full point group: C1

    Geometry (in Angstrom), charge = 0, multiplicity = 1:

       Center              X                  Y                   Z               Mass       
    ------------   -----------------  -----------------  -----------------  -----------------
         C           -0.588125685496     0.077884198300     0.037618931056    12.000000000000
         O            0.591180448318    -0.078287527409    -0.037814608304    15.994914619570
         H           -1.085747662430     1.049768063409    -0.143001146929     1.007825032230
         H           -1.294003279406    -0.734641997952     0.295224254735     1.007825032230

  Running in c1 symmetry.

  Rotational constants: A =      9.78306  B =      1.31015  C =      1.15541 [cm^-1]
  Rotational constants: A = 293288.80556  B =  39277.16513  C =  34638.39918 [MHz]
  Nuclear repulsion =   31.516987981512315

  Charge       = 0
  Multiplicity = 1
  Electrons    = 16
  Nalpha       = 8
  Nbeta        = 8

  ==> Algorithm <==

  SCF Algorithm Type is DF.
  DIIS enabled.
  MOM disabled.
  Fractional occupation disabled.
  Guess Type is SAD.
  Energy threshold   = 1.00e-10
  Density threshold  = 1.00e-10
  Integral threshold = 0.00e+00

  ==> Primary Basis <==

  Basis Set: AUG-CC-PV(Q+D)Z
    Blend: AUG-CC-PV(Q+D)Z
    Number of shells: 68
    Number of basis function: 252
    Number of Cartesian functions: 320
    Spherical Harmonics?: true
    Max angular momentum: 4

   => Loading Basis Set <=

    Name: (AUG-CC-PV(Q+D)Z AUX)
    Role: JKFIT
    Keyword: DF_BASIS_SCF
    atoms 1   entry C          line   178 file /work/zw18965/.conda/envs/p4env/share/psi4/basis/aug-cc-pvqz-jkfit.gbs 
    atoms 2   entry O          line   318 file /work/zw18965/.conda/envs/p4env/share/psi4/basis/aug-cc-pvqz-jkfit.gbs 
    atoms 3-4 entry H          line    70 file /work/zw18965/.conda/envs/p4env/share/psi4/basis/aug-cc-pvqz-jkfit.gbs 

  ==> Pre-Iterations <==

   -------------------------------------------------------
    Irrep   Nso     Nmo     Nalpha   Nbeta   Ndocc  Nsocc
   -------------------------------------------------------
     A        252     252       0       0       0       0
   -------------------------------------------------------
    Total     252     252       8       8       8       0
   -------------------------------------------------------

  ==> Integral Setup <==

  DFHelper Memory: AOs need 0.235 GiB; user supplied 100.583 GiB. Using in-core AOs.

  ==> MemDFJK: Density-Fitted J/K Matrices <==

    J tasked:                   Yes
    K tasked:                   Yes
    wK tasked:                   No
    OpenMP threads:              24
    Memory [MiB]:            102996
    Algorithm:                 Core
    Schwarz Cutoff:           1E-12
    Mask sparsity (%):       0.0000
    Fitting Condition:        1E-10

   => Auxiliary Basis Set <=

  Basis Set: (AUG-CC-PV(Q+D)Z AUX)
    Blend: AUG-CC-PVQZ-JKFIT
    Number of shells: 104
    Number of basis function: 436
    Number of Cartesian functions: 598
    Spherical Harmonics?: true
    Max angular momentum: 5

  Minimum eigenvalue in the overlap matrix is 2.2346530080E-05.
  Using Symmetric Orthogonalization.

  SCF Guess: Superposition of Atomic Densities via on-the-fly atomic UHF.

  ==> Iterations <==

                           Total Energy        Delta E     RMS |[F,P]|

   @DF-RHF iter SAD:  -113.14468798173468   -1.13145e+02   0.00000e+00 
   @DF-RHF iter   1:  -113.86004827906569   -7.15360e-01   1.52785e-03 DIIS
   @DF-RHF iter   2:  -113.88919119212730   -2.91429e-02   1.24366e-03 DIIS
   @DF-RHF iter   3:  -113.92132754547657   -3.21364e-02   9.89852e-05 DIIS
   @DF-RHF iter   4:  -113.92184563072428   -5.18085e-04   2.70147e-05 DIIS
   @DF-RHF iter   5:  -113.92188424465475   -3.86139e-05   9.49142e-06 DIIS
   @DF-RHF iter   6:  -113.92189304835749   -8.80370e-06   4.78308e-06 DIIS
   @DF-RHF iter   7:  -113.92189512418538   -2.07583e-06   1.17371e-06 DIIS
   @DF-RHF iter   8:  -113.92189523183367   -1.07648e-07   1.11867e-07 DIIS
   @DF-RHF iter   9:  -113.92189523276106   -9.27386e-10   1.78239e-08 DIIS
   @DF-RHF iter  10:  -113.92189523277774   -1.66835e-11   3.55965e-09 DIIS
   @DF-RHF iter  11:  -113.92189523277824   -4.97380e-13   5.68023e-10 DIIS
   @DF-RHF iter  12:  -113.92189523277854   -2.98428e-13   8.72254e-11 DIIS
  Energy and wave function converged.


  ==> Post-Iterations <==

    Orbital Energies [Eh]
    ---------------------

    Doubly Occupied:                                                      

       1A    -20.576937     2A    -11.340360     3A     -1.415692  
       4A     -0.869768     5A     -0.693595     6A     -0.658882  
       7A     -0.544366     8A     -0.441283  

    Virtual:                                                              

       9A      0.023483    10A      0.038363    11A      0.056693  
      12A      0.067041    13A      0.118241    14A      0.118766  
      15A      0.119778    16A      0.146031    17A      0.168943  
      18A      0.176187    19A      0.184643    20A      0.206407  
      21A      0.211240    22A      0.222088    23A      0.261927  
      24A      0.271666    25A      0.276414    26A      0.293456  
      27A      0.297481    28A      0.323766    29A      0.325102  
      30A      0.352520    31A      0.398607    32A      0.405474  
      33A      0.433316    34A      0.450133    35A      0.509983  
      36A      0.520127    37A      0.552378    38A      0.554982  
      39A      0.576616    40A      0.616443    41A      0.625802  
      42A      0.656168    43A      0.664376    44A      0.671417  
      45A      0.677860    46A      0.714348    47A      0.732447  
      48A      0.736354    49A      0.741237    50A      0.751152  
      51A      0.764485    52A      0.775254    53A      0.828237  
      54A      0.832997    55A      0.841258    56A      0.878857  
      57A      0.884087    58A      0.945906    59A      0.950884  
      60A      0.975610    61A      1.016638    62A      1.057956  
      63A      1.062703    64A      1.082211    65A      1.111896  
      66A      1.161860    67A      1.193184    68A      1.302859  
      69A      1.312397    70A      1.389082    71A      1.389410  
      72A      1.447276    73A      1.473281    74A      1.510013  
      75A      1.532209    76A      1.554667    77A      1.573390  
      78A      1.579730    79A      1.581928    80A      1.618789  
      81A      1.626413    82A      1.638999    83A      1.679035  
      84A      1.702857    85A      1.738733    86A      1.789407  
      87A      1.826650    88A      1.832601    89A      1.834273  
      90A      1.878467    91A      1.909751    92A      1.910545  
      93A      1.950437    94A      1.968832    95A      1.980811  
      96A      1.992971    97A      2.009699    98A      2.031758  
      99A      2.061424   100A      2.069964   101A      2.094136  
     102A      2.137245   103A      2.144463   104A      2.173558  
     105A      2.198590   106A      2.207019   107A      2.312226  
     108A      2.399697   109A      2.473100   110A      2.475714  
     111A      2.477762   112A      2.480046   113A      2.569519  
     114A      2.657155   115A      2.659355   116A      2.758398  
     117A      2.758880   118A      2.762986   119A      2.797334  
     120A      2.810791   121A      2.838980   122A      2.916099  
     123A      2.919795   124A      2.933616   125A      3.088706  
     126A      3.105795   127A      3.229731   128A      3.326981  
     129A      3.388020   130A      3.395594   131A      3.477808  
     132A      3.556053   133A      3.697618   134A      3.729829  
     135A      3.847180   136A      3.854899   137A      3.856779  
     138A      3.864711   139A      3.977962   140A      3.980690  
     141A      3.981763   142A      4.051772   143A      4.090424  
     144A      4.173099   145A      4.193088   146A      4.239953  
     147A      4.248915   148A      4.323960   149A      4.351379  
     150A      4.360951   151A      4.362481   152A      4.373627  
     153A      4.386023   154A      4.426022   155A      4.618800  
     156A      4.622230   157A      4.643632   158A      4.668694  
     159A      4.720628   160A      4.780832   161A      4.862517  
     162A      4.958209   163A      5.154399   164A      5.245790  
     165A      5.398829   166A      5.460531   167A      5.479549  
     168A      5.577915   169A      5.788304   170A      5.817010  
     171A      6.003281   172A      6.051845   173A      6.058529  
     174A      6.197149   175A      6.238342   176A      6.259622  
     177A      6.310921   178A      6.388286   179A      6.506462  
     180A      6.615666   181A      6.620668   182A      6.786030  
     183A      6.802127   184A      6.838020   185A      6.925333  
     186A      6.950412   187A      6.984263   188A      7.132543  
     189A      7.148268   190A      7.219882   191A      7.324438  
     192A      7.378570   193A      7.429486   194A      7.580852  
     195A      7.777635   196A      7.885307   197A      8.022953  
     198A      8.257810   199A      8.279266   200A      8.291859  
     201A      8.312966   202A      8.345745   203A      8.454959  
     204A      8.587002   205A      8.627787   206A      8.659000  
     207A      8.918262   208A      8.951911   209A      9.048339  
     210A      9.160637   211A      9.196396   212A      9.267325  
     213A      9.389712   214A      9.626843   215A      9.667536  
     216A      9.750215   217A     10.089043   218A     10.124112  
     219A     10.154283   220A     10.222311   221A     10.418304  
     222A     10.697288   223A     10.742088   224A     10.756293  
     225A     10.815732   226A     10.994057   227A     11.067755  
     228A     11.217605   229A     11.295437   230A     11.307677  
     231A     11.350625   232A     11.501579   233A     11.602928  
     234A     11.691759   235A     11.912710   236A     12.057594  
     237A     12.160422   238A     12.202947   239A     12.544114  
     240A     12.589321   241A     12.785185   242A     12.797601  
     243A     12.901343   244A     13.118030   245A     13.291361  
     246A     13.389858   247A     13.996221   248A     14.045811  
     249A     14.846673   250A     14.958053   251A     27.074611  
     252A     43.591957  

    Final Occupation by Irrep:
              A 
    DOCC [     8 ]

  @DF-RHF Final Energy:  -113.92189523277854

   => Energetics <=

    Nuclear Repulsion Energy =             31.5169879815123153
    One-Electron Energy =                -217.7960010408145877
    Two-Electron Energy =                  72.3571178265237194
    Total Energy =                       -113.9218952327785388

Computation Completed


Properties will be evaluated at   0.000000,   0.000000,   0.000000 [a0]

Properties computed using the SCF density matrix

  Nuclear Dipole Moment: [e a0]
     X:    -2.2281      Y:     0.2950      Z:     0.1425

  Electronic Dipole Moment: [e a0]
     X:     1.1451      Y:    -0.1516      Z:    -0.0732

  Dipole Moment: [e a0]
     X:    -1.0830      Y:     0.1434      Z:     0.0693     Total:     1.0947

  Dipole Moment: [D]
     X:    -2.7528      Y:     0.3645      Z:     0.1761     Total:     2.7824


*** tstop() called on bp1-compute00138.data.bp.acrc.priv at Mon Apr 19 16:12:44 2021
Module time:
	user time   =      38.35 seconds =       0.64 minutes
	system time =       1.58 seconds =       0.03 minutes
	total time  =          3 seconds =       0.05 minutes
Total time:
	user time   =      38.35 seconds =       0.64 minutes
	system time =       1.58 seconds =       0.03 minutes
	total time  =          3 seconds =       0.05 minutes

*** tstart() called on bp1-compute00138.data.bp.acrc.priv
*** at Mon Apr 19 16:12:44 2021


  //>>>>>>>>>>>>>>>>>>>>>>>>>>>>>>>>>>>//
  //               DFMP2               //
  //<<<<<<<<<<<<<<<<<<<<<<<<<<<<<<<<<<<//

   => Loading Basis Set <=

    Name: (AUG-CC-PV(Q+D)Z AUX)
    Role: RIFIT
    Keyword: DF_BASIS_MP2
    atoms 1   entry C          line   184 file /work/zw18965/.conda/envs/p4env/share/psi4/basis/aug-cc-pvqz-ri.gbs 
    atoms 2   entry O          line   332 file /work/zw18965/.conda/envs/p4env/share/psi4/basis/aug-cc-pvqz-ri.gbs 
    atoms 3-4 entry H          line    30 file /work/zw18965/.conda/envs/p4env/share/psi4/basis/aug-cc-pvqz-ri.gbs 

	 --------------------------------------------------------
	                          DF-MP2                         
	      2nd-Order Density-Fitted Moller-Plesset Theory     
	              RMP2 Wavefunction,  24 Threads             
	                                                         
	        Rob Parrish, Justin Turney, Andy Simmonett,      
	           Ed Hohenstein, and C. David Sherrill          
	 --------------------------------------------------------

   => Auxiliary Basis Set <=

  Basis Set: (AUG-CC-PV(Q+D)Z AUX)
    Blend: AUG-CC-PVQZ-RI
    Number of shells: 112
    Number of basis function: 496
    Number of Cartesian functions: 684
    Spherical Harmonics?: true
    Max angular momentum: 5

	 --------------------------------------------------------
	                 NBF =   252, NAUX =   496
	 --------------------------------------------------------
	   CLASS    FOCC     OCC    AOCC    AVIR     VIR    FVIR
	   PAIRS       0       8       8     244     244       0
	 --------------------------------------------------------

  DFHelper Memory: AOs need 0.235 GiB; user supplied 100.583 GiB. Using in-core AOs.


         ------------------------------------------------------------
                                     CPHF                           
                                  Rob Parrish                       
         ------------------------------------------------------------

  ==> Geometry <==

    Molecular point group: c1
    Full point group: C1

    Geometry (in Angstrom), charge = 0, multiplicity = 1:

       Center              X                  Y                   Z               Mass       
    ------------   -----------------  -----------------  -----------------  -----------------
         C           -0.588125685496     0.077884198300     0.037618931056    12.000000000000
         O            0.591180448318    -0.078287527409    -0.037814608304    15.994914619570
         H           -1.085747662430     1.049768063409    -0.143001146929     1.007825032230
         H           -1.294003279406    -0.734641997952     0.295224254735     1.007825032230

  Nuclear repulsion =   31.516987981512315
  Reference energy  = -113.921895232778539

  ==> Basis Set <==

  Basis Set: AUG-CC-PV(Q+D)Z
    Blend: AUG-CC-PV(Q+D)Z
    Number of shells: 68
    Number of basis function: 252
    Number of Cartesian functions: 320
    Spherical Harmonics?: true
    Max angular momentum: 4

  ==> CGRSolver (by Rob Parrish) <==

   Number of roots    =         1
   Preconditioning    =    JACOBI
   Convergence cutoff =     1E-06
   Maximum iterations =       100

  ==> CPHFRHamiltonian (by Rob Parrish) <== 

  ==> MemDFJK: Density-Fitted J/K Matrices <==

    J tasked:                   Yes
    K tasked:                   Yes
    wK tasked:                   No
    OpenMP threads:              24
    Memory [MiB]:            102996
    Algorithm:                 Core
    Schwarz Cutoff:           1E-12
    Mask sparsity (%):       0.0000
    Fitting Condition:        1E-10

   => Auxiliary Basis Set <=

  Basis Set: (AUG-CC-PV(Q+D)Z AUX)
    Blend: AUG-CC-PVQZ-JKFIT
    Number of shells: 104
    Number of basis function: 436
    Number of Cartesian functions: 598
    Spherical Harmonics?: true
    Max angular momentum: 5

  ==> CPHF Iterations <==

  => Iterations <=

             Iter  Converged  Remaining    Residual
  CGR           1          0          1   8.224E-02
  CGR           2          0          1   2.847E-02
  CGR           3          0          1   7.027E-03
  CGR           4          0          1   1.951E-03
  CGR           5          0          1   4.753E-04
  CGR           6          0          1   1.350E-04
  CGR           7          0          1   3.318E-05
  CGR           8          0          1   4.941E-06
  CGR           9          1          0   7.791E-07

    CGRSolver converged.

  ==> DFCorrGrad: Density-Fitted Correlated Gradients <==

    OpenMP threads:             24
    Integrals threads:          24
    Memory [GiB]:          100.583
    Schwarz Cutoff:          0E+00
    Fitting Condition:       1E-10

   => Auxiliary Basis Set <=

  Basis Set: (AUG-CC-PV(Q+D)Z AUX)
    Blend: AUG-CC-PVQZ-JKFIT
    Number of shells: 104
    Number of basis function: 436
    Number of Cartesian functions: 598
    Spherical Harmonics?: true
    Max angular momentum: 5

	-----------------------------------------------------------
	 ==================> DF-MP2 Energies <==================== 
	-----------------------------------------------------------
	 Reference Energy          =    -113.9218952327785388 [Eh]
	 Singles Energy            =      -0.0000000000000000 [Eh]
	 Same-Spin Energy          =      -0.1078434810770591 [Eh]
	 Opposite-Spin Energy      =      -0.3768261739918477 [Eh]
	 Correlation Energy        =      -0.4846696550689068 [Eh]
	 Total Energy              =    -114.4065648878474519 [Eh]
	-----------------------------------------------------------
	 ================> DF-SCS-MP2 Energies <================== 
	-----------------------------------------------------------
	 SCS Same-Spin Scale       =       0.3333333333333333 [-]
	 SCS Opposite-Spin Scale   =       1.2000000000000000 [-]
	 SCS Same-Spin Energy      =      -0.0359478270256864 [Eh]
	 SCS Opposite-Spin Energy  =      -0.4521914087902172 [Eh]
	 SCS Correlation Energy    =      -0.4881392358159036 [Eh]
	 SCS Total Energy          =    -114.4100344685944464 [Eh]
	-----------------------------------------------------------


  -Total Gradient:
     Atom            X                  Y                   Z
    ------   -----------------  -----------------  -----------------
       1        0.031240767678    -0.004131759829    -0.001999549432
       2       -0.019706110061     0.002607893425     0.001260892116
       3       -0.005665363372     0.001635373967     0.000154821566
       4       -0.005869294244    -0.000111507563     0.000583835751


*** tstop() called on bp1-compute00138.data.bp.acrc.priv at Mon Apr 19 16:12:51 2021
Module time:
	user time   =      90.17 seconds =       1.50 minutes
	system time =       4.96 seconds =       0.08 minutes
	total time  =          7 seconds =       0.12 minutes
Total time:
	user time   =     128.53 seconds =       2.14 minutes
	system time =       6.54 seconds =       0.11 minutes
	total time  =         10 seconds =       0.17 minutes

			-----------------------------------------
			 OPTKING 2.0: for geometry optimizations 
			  - R.A. King,  Bethel University        
			-----------------------------------------

	Internal coordinates to be generated automatically.
	Detected frag 1 with atoms:  1 2 3 4
	---Fragment 1 Bond Connectivity---
	 1 : 2 3 4
	 2 : 1
	 3 : 1
	 4 : 1

	---Fragment 1 Geometry and Gradient---
	 C          -1.1113964729        0.1471798043        0.0710894768
	 O           1.1171691380       -0.1479419858       -0.0714592532
	 H          -2.0517657233        1.9837741351       -0.2702330033
	 H          -2.4453118035       -1.3882721764        0.5578929870
	             0.0312407677       -0.0041317598       -0.0019995494
	            -0.0197061101        0.0026078934        0.0012608921
	            -0.0056653634        0.0016353740        0.0001548216
	            -0.0058692942       -0.0001115076        0.0005838358

	Previous optimization step data not found.  Starting new optimization.

	---Fragment 1 Intrafragment Coordinates---
	 - Coordinate -           - BOHR/RAD -       - ANG/DEG -
	 R(1,2)           =         2.252537	       1.191991
	 R(1,3)           =         2.091381	       1.106711
	 R(1,4)           =         2.091392	       1.106717
	 B(2,1,3)         =         2.152662	     123.338427
	 B(2,1,4)         =         2.152640	     123.337167
	 B(3,1,4)         =         1.977884	     113.324406

	Current energy   :      -114.4065648878

	Generating empirical Hessian (Schlegel '84) for each fragment.
	Taking RFO optimization step.
	Going to follow RFO solution 1.
	Using RFO vector 1.
	Norm of target step-size    0.05270
	Projected energy change by RFO approximation:        -0.0009687561

	Back-transformation to cartesian coordinates...
	Successfully converged to displaced geometry.

	--- Internal Coordinate Step in ANG or DEG, aJ/ANG or AJ/DEG ---
	 ---------------------------------------------------------------------------
	   Coordinate                Previous        Force       Change         New 
	   ----------                --------       ------       ------       ------
	    1 R(1,2)          =      1.191991     0.164098     0.009667     1.201658
	    2 R(1,3)          =      1.106711    -0.032611    -0.006341     1.100370
	    3 R(1,4)          =      1.106717    -0.032636    -0.006346     1.100371
	    4 B(2,1,3)        =    123.338427    -0.000232    -1.086789   122.251638
	    5 B(2,1,4)        =    123.337167    -0.000232    -1.085378   122.251790
	    6 B(3,1,4)        =    113.324406     0.000464     2.172167   115.496573
	 ---------------------------------------------------------------------------
	Successfully symmetrized geometry.

  ==> Convergence Check <==

  Measures of convergence in internal coordinates in au.
  Criteria marked as inactive (o), active & met (*), and active & unmet ( ).
  --------------------------------------------------------------------------------------------- ~
   Step     Total Energy     Delta E     MAX Force     RMS Force      MAX Disp      RMS Disp    ~
  --------------------------------------------------------------------------------------------- ~
    Convergence Criteria    1.00e-06 *    3.00e-04 *             o    1.20e-03 *             o  ~
  --------------------------------------------------------------------------------------------- ~
      1    -114.40656489   -1.14e+02      1.99e-02      8.98e-03 o    3.79e-02      2.15e-02 o  ~
  ---------------------------------------------------------------------------------------------

	Writing optimization data to binary file.
	Structure for next step:
	Cartesian Geometry (in Angstrom)
	    C    -0.6009153624   0.0795731723   0.0384381215
	    O     0.5879558093  -0.0778560939  -0.0376093794
	    H    -1.0770622300   1.0544948207  -0.1449348252
	    H    -1.2866743866  -0.7414891640   0.2961335131
			--------------------------
			 OPTKING Finished Execution 
			--------------------------

    Structure for next step:
    Molecular point group: c1
    Full point group: C1

    Geometry (in Angstrom), charge = 0, multiplicity = 1:

    C           -0.594620437847     0.078739085380     0.038035581137
    O            0.594250738542    -0.078690181453    -0.038011920057
    H           -1.070767307379     1.053660737531    -0.145337366341
    H           -1.280379464776    -0.742323254196     0.295730973711

gradient() will perform analytic gradient computation.
    SCF Algorithm Type (re)set to DF.

*** tstart() called on bp1-compute00138.data.bp.acrc.priv
*** at Mon Apr 19 16:12:51 2021

   => Loading Basis Set <=

    Name: AUG-CC-PV(Q+D)Z
    Role: ORBITAL
    Keyword: BASIS
    atoms 1   entry C          line   319 file /work/zw18965/.conda/envs/p4env/share/psi4/basis/aug-cc-pv_qpd_z.gbs 
    atoms 2   entry O          line   439 file /work/zw18965/.conda/envs/p4env/share/psi4/basis/aug-cc-pv_qpd_z.gbs 
    atoms 3-4 entry H          line    56 file /work/zw18965/.conda/envs/p4env/share/psi4/basis/aug-cc-pv_qpd_z.gbs 


         ---------------------------------------------------------
                                   SCF
               by Justin Turney, Rob Parrish, Andy Simmonett
                          and Daniel G. A. Smith
                              RHF Reference
                       24 Threads, 137329 MiB Core
         ---------------------------------------------------------

  ==> Geometry <==

    Molecular point group: c1
    Full point group: C1

    Geometry (in Angstrom), charge = 0, multiplicity = 1:

       Center              X                  Y                   Z               Mass       
    ------------   -----------------  -----------------  -----------------  -----------------
         C           -0.594620437847     0.078739085380     0.038035581137    12.000000000000
         O            0.594250738542    -0.078690181453    -0.038011920057    15.994914619570
         H           -1.070767307379     1.053660737531    -0.145337366341     1.007825032230
         H           -1.280379464776    -0.742323254196     0.295730973711     1.007825032230

  Running in c1 symmetry.

  Rotational constants: A =      9.65737  B =      1.30165  C =      1.14705 [cm^-1]
  Rotational constants: A = 289520.63810  B =  39022.52151  C =  34387.64436 [MHz]
  Nuclear repulsion =   31.392009290335061

  Charge       = 0
  Multiplicity = 1
  Electrons    = 16
  Nalpha       = 8
  Nbeta        = 8

  ==> Algorithm <==

  SCF Algorithm Type is DF.
  DIIS enabled.
  MOM disabled.
  Fractional occupation disabled.
  Guess Type is READ.
  Energy threshold   = 1.00e-10
  Density threshold  = 1.00e-10
  Integral threshold = 0.00e+00

  ==> Primary Basis <==

  Basis Set: AUG-CC-PV(Q+D)Z
    Blend: AUG-CC-PV(Q+D)Z
    Number of shells: 68
    Number of basis function: 252
    Number of Cartesian functions: 320
    Spherical Harmonics?: true
    Max angular momentum: 4

   => Loading Basis Set <=

    Name: (AUG-CC-PV(Q+D)Z AUX)
    Role: JKFIT
    Keyword: DF_BASIS_SCF
    atoms 1   entry C          line   178 file /work/zw18965/.conda/envs/p4env/share/psi4/basis/aug-cc-pvqz-jkfit.gbs 
    atoms 2   entry O          line   318 file /work/zw18965/.conda/envs/p4env/share/psi4/basis/aug-cc-pvqz-jkfit.gbs 
    atoms 3-4 entry H          line    70 file /work/zw18965/.conda/envs/p4env/share/psi4/basis/aug-cc-pvqz-jkfit.gbs 

   => Loading Basis Set <=

    Name: AUG-CC-PV(Q+D)Z
    Role: ORBITAL
    Keyword: BASIS
    atoms 1   entry C          line   319 file /work/zw18965/.conda/envs/p4env/share/psi4/basis/aug-cc-pv_qpd_z.gbs 
    atoms 2   entry O          line   439 file /work/zw18965/.conda/envs/p4env/share/psi4/basis/aug-cc-pv_qpd_z.gbs 
    atoms 3-4 entry H          line    56 file /work/zw18965/.conda/envs/p4env/share/psi4/basis/aug-cc-pv_qpd_z.gbs 

  Reading orbitals from file 180, no projection.

  ==> Pre-Iterations <==

   -------------------------------------------------------
    Irrep   Nso     Nmo     Nalpha   Nbeta   Ndocc  Nsocc
   -------------------------------------------------------
     A        252     252       0       0       0       0
   -------------------------------------------------------
    Total     252     252       8       8       8       0
   -------------------------------------------------------

  ==> Integral Setup <==

  DFHelper Memory: AOs need 0.235 GiB; user supplied 100.583 GiB. Using in-core AOs.

  ==> MemDFJK: Density-Fitted J/K Matrices <==

    J tasked:                   Yes
    K tasked:                   Yes
    wK tasked:                   No
    OpenMP threads:              24
    Memory [MiB]:            102996
    Algorithm:                 Core
    Schwarz Cutoff:           1E-12
    Mask sparsity (%):       0.0000
    Fitting Condition:        1E-10

   => Auxiliary Basis Set <=

  Basis Set: (AUG-CC-PV(Q+D)Z AUX)
    Blend: AUG-CC-PVQZ-JKFIT
    Number of shells: 104
    Number of basis function: 436
    Number of Cartesian functions: 598
    Spherical Harmonics?: true
    Max angular momentum: 5

  Minimum eigenvalue in the overlap matrix is 2.1835273389E-05.
  Using Symmetric Orthogonalization.

  SCF Guess: Orbitals guess was supplied from a previous computation.

  ==> Iterations <==

                           Total Energy        Delta E     RMS |[F,P]|

   @DF-RHF iter   0:  -113.92162158142804   -1.13922e+02   1.58713e-04 
   @DF-RHF iter   1:  -113.92162692298248   -5.34155e-06   1.95737e-05 DIIS
   @DF-RHF iter   2:  -113.92163941588761   -1.24929e-05   1.38399e-05 DIIS
   @DF-RHF iter   3:  -113.92164345930236   -4.04341e-06   2.85433e-06 DIIS
   @DF-RHF iter   4:  -113.92164404066082   -5.81358e-07   1.00201e-06 DIIS
   @DF-RHF iter   5:  -113.92164412152744   -8.08666e-08   3.08374e-07 DIIS
   @DF-RHF iter   6:  -113.92164413178274   -1.02553e-08   1.43470e-07 DIIS
   @DF-RHF iter   7:  -113.92164413338983   -1.60709e-09   4.04441e-08 DIIS
   @DF-RHF iter   8:  -113.92164413355599   -1.66153e-10   6.06976e-09 DIIS
   @DF-RHF iter   9:  -113.92164413355863   -2.64322e-12   1.06210e-09 DIIS
   @DF-RHF iter  10:  -113.92164413355842    2.13163e-13   1.65152e-10 DIIS
   @DF-RHF iter  11:  -113.92164413355864   -2.27374e-13   2.55412e-11 DIIS
  Energy and wave function converged.


  ==> Post-Iterations <==

    Orbital Energies [Eh]
    ---------------------

    Doubly Occupied:                                                      

       1A    -20.576225     2A    -11.340282     3A     -1.408770  
       4A     -0.871635     5A     -0.695455     6A     -0.654556  
       7A     -0.539326     8A     -0.443394  

    Virtual:                                                              

       9A      0.023437    10A      0.038056    11A      0.056442  
      12A      0.067175    13A      0.118363    14A      0.118425  
      15A      0.119415    16A      0.146010    17A      0.167837  
      18A      0.176804    19A      0.184754    20A      0.206046  
      21A      0.211451    22A      0.223753    23A      0.261931  
      24A      0.272071    25A      0.275868    26A      0.294172  
      27A      0.299945    28A      0.321889    29A      0.325147  
      30A      0.350387    31A      0.398758    32A      0.405655  
      33A      0.433717    34A      0.446687    35A      0.505820  
      36A      0.525141    37A      0.552462    38A      0.554253  
      39A      0.576213    40A      0.619856    41A      0.626364  
      42A      0.657927    43A      0.665100    44A      0.672616  
      45A      0.676051    46A      0.716764    47A      0.730848  
      48A      0.737092    49A      0.739960    50A      0.754698  
      51A      0.764634    52A      0.776075    53A      0.824970  
      54A      0.834209    55A      0.841028    56A      0.878625  
      57A      0.881881    58A      0.946575    59A      0.949972  
      60A      0.973125    61A      1.019684    62A      1.053354  
      63A      1.064661    64A      1.081680    65A      1.116495  
      66A      1.157231    67A      1.191139    68A      1.293139  
      69A      1.307291    70A      1.386679    71A      1.387059  
      72A      1.447327    73A      1.475888    74A      1.520352  
      75A      1.526527    76A      1.544604    77A      1.576945  
      78A      1.579206    79A      1.581957    80A      1.624368  
      81A      1.626235    82A      1.637899    83A      1.677880  
      84A      1.703502    85A      1.736994    86A      1.789175  
      87A      1.827666    88A      1.835921    89A      1.837280  
      90A      1.878008    91A      1.904355    92A      1.905562  
      93A      1.953086    94A      1.968373    95A      1.976609  
      96A      1.991538    97A      2.011988    98A      2.032598  
      99A      2.060038   100A      2.078482   101A      2.101180  
     102A      2.140655   103A      2.148801   104A      2.172431  
     105A      2.193664   106A      2.210824   107A      2.312543  
     108A      2.402613   109A      2.464720   110A      2.477189  
     111A      2.479828   112A      2.482887   113A      2.566883  
     114A      2.646382   115A      2.655376   116A      2.755576  
     117A      2.759524   118A      2.772760   119A      2.800310  
     120A      2.802850   121A      2.848582   122A      2.900818  
     123A      2.911031   124A      2.941243   125A      3.089065  
     126A      3.091892   127A      3.237689   128A      3.337414  
     129A      3.385870   130A      3.401203   131A      3.486070  
     132A      3.543736   133A      3.695966   134A      3.727746  
     135A      3.844753   136A      3.853250   137A      3.862890  
     138A      3.872854   139A      3.980773   140A      3.988309  
     141A      3.991493   142A      4.058264   143A      4.092815  
     144A      4.173069   145A      4.199532   146A      4.239767  
     147A      4.248770   148A      4.327524   149A      4.358778  
     150A      4.362695   151A      4.363020   152A      4.377360  
     153A      4.390442   154A      4.429353   155A      4.610128  
     156A      4.612926   157A      4.639055   158A      4.668587  
     159A      4.710585   160A      4.784098   161A      4.858395  
     162A      4.961379   163A      5.158895   164A      5.234551  
     165A      5.384922   166A      5.464414   167A      5.484680  
     168A      5.572437   169A      5.774989   170A      5.793335  
     171A      6.008135   172A      6.021260   173A      6.047011  
     174A      6.184617   175A      6.232705   176A      6.260451  
     177A      6.303394   178A      6.384769   179A      6.492561  
     180A      6.603099   181A      6.620203   182A      6.789661  
     183A      6.805023   184A      6.871688   185A      6.941749  
     186A      6.947145   187A      6.986704   188A      7.150454  
     189A      7.164178   190A      7.191954   191A      7.357444  
     192A      7.367832   193A      7.441566   194A      7.598811  
     195A      7.747505   196A      7.900921   197A      8.006213  
     198A      8.266547   199A      8.281432   200A      8.304135  
     201A      8.310166   202A      8.341366   203A      8.508266  
     204A      8.585423   205A      8.613219   206A      8.613953  
     207A      8.931694   208A      8.990683   209A      9.045237  
     210A      9.178131   211A      9.189520   212A      9.249608  
     213A      9.404243   214A      9.654654   215A      9.672015  
     216A      9.754237   217A     10.099472   218A     10.170728  
     219A     10.178400   220A     10.223168   221A     10.426932  
     222A     10.719948   223A     10.743407   224A     10.758425  
     225A     10.822078   226A     11.000851   227A     11.060581  
     228A     11.226507   229A     11.289103   230A     11.297012  
     231A     11.344202   232A     11.489557   233A     11.607932  
     234A     11.680227   235A     11.935317   236A     12.058100  
     237A     12.156723   238A     12.182020   239A     12.530319  
     240A     12.570772   241A     12.792586   242A     12.805156  
     243A     12.897030   244A     13.112331   245A     13.283463  
     246A     13.389478   247A     13.972921   248A     13.996403  
     249A     14.786721   250A     14.925031   251A     27.063675  
     252A     43.544525  

    Final Occupation by Irrep:
              A 
    DOCC [     8 ]

  @DF-RHF Final Energy:  -113.92164413355864

   => Energetics <=

    Nuclear Repulsion Energy =             31.3920092903350607
    One-Electron Energy =                -217.5680228090542982
    Two-Electron Energy =                  72.2543693851605866
    Total Energy =                       -113.9216441335586438

Computation Completed


Properties will be evaluated at   0.000000,   0.000000,   0.000000 [a0]

Properties computed using the SCF density matrix

  Nuclear Dipole Moment: [e a0]
     X:    -2.2013      Y:     0.2915      Z:     0.1408

  Electronic Dipole Moment: [e a0]
     X:     1.0980      Y:    -0.1454      Z:    -0.0702

  Dipole Moment: [e a0]
     X:    -1.1033      Y:     0.1461      Z:     0.0706     Total:     1.1152

  Dipole Moment: [D]
     X:    -2.8043      Y:     0.3713      Z:     0.1794     Total:     2.8345


*** tstop() called on bp1-compute00138.data.bp.acrc.priv at Mon Apr 19 16:12:53 2021
Module time:
	user time   =      22.89 seconds =       0.38 minutes
	system time =       0.87 seconds =       0.01 minutes
	total time  =          2 seconds =       0.03 minutes
Total time:
	user time   =     151.72 seconds =       2.53 minutes
	system time =       7.42 seconds =       0.12 minutes
	total time  =         12 seconds =       0.20 minutes

*** tstart() called on bp1-compute00138.data.bp.acrc.priv
*** at Mon Apr 19 16:12:53 2021


  //>>>>>>>>>>>>>>>>>>>>>>>>>>>>>>>>>>>//
  //               DFMP2               //
  //<<<<<<<<<<<<<<<<<<<<<<<<<<<<<<<<<<<//

   => Loading Basis Set <=

    Name: (AUG-CC-PV(Q+D)Z AUX)
    Role: RIFIT
    Keyword: DF_BASIS_MP2
    atoms 1   entry C          line   184 file /work/zw18965/.conda/envs/p4env/share/psi4/basis/aug-cc-pvqz-ri.gbs 
    atoms 2   entry O          line   332 file /work/zw18965/.conda/envs/p4env/share/psi4/basis/aug-cc-pvqz-ri.gbs 
    atoms 3-4 entry H          line    30 file /work/zw18965/.conda/envs/p4env/share/psi4/basis/aug-cc-pvqz-ri.gbs 

	 --------------------------------------------------------
	                          DF-MP2                         
	      2nd-Order Density-Fitted Moller-Plesset Theory     
	              RMP2 Wavefunction,  24 Threads             
	                                                         
	        Rob Parrish, Justin Turney, Andy Simmonett,      
	           Ed Hohenstein, and C. David Sherrill          
	 --------------------------------------------------------

   => Auxiliary Basis Set <=

  Basis Set: (AUG-CC-PV(Q+D)Z AUX)
    Blend: AUG-CC-PVQZ-RI
    Number of shells: 112
    Number of basis function: 496
    Number of Cartesian functions: 684
    Spherical Harmonics?: true
    Max angular momentum: 5

	 --------------------------------------------------------
	                 NBF =   252, NAUX =   496
	 --------------------------------------------------------
	   CLASS    FOCC     OCC    AOCC    AVIR     VIR    FVIR
	   PAIRS       0       8       8     244     244       0
	 --------------------------------------------------------

  DFHelper Memory: AOs need 0.235 GiB; user supplied 100.583 GiB. Using in-core AOs.


         ------------------------------------------------------------
                                     CPHF                           
                                  Rob Parrish                       
         ------------------------------------------------------------

  ==> Geometry <==

    Molecular point group: c1
    Full point group: C1

    Geometry (in Angstrom), charge = 0, multiplicity = 1:

       Center              X                  Y                   Z               Mass       
    ------------   -----------------  -----------------  -----------------  -----------------
         C           -0.594620437847     0.078739085380     0.038035581137    12.000000000000
         O            0.594250738542    -0.078690181453    -0.038011920057    15.994914619570
         H           -1.070767307379     1.053660737531    -0.145337366341     1.007825032230
         H           -1.280379464776    -0.742323254196     0.295730973711     1.007825032230

  Nuclear repulsion =   31.392009290335061
  Reference energy  = -113.921644133558644

  ==> Basis Set <==

  Basis Set: AUG-CC-PV(Q+D)Z
    Blend: AUG-CC-PV(Q+D)Z
    Number of shells: 68
    Number of basis function: 252
    Number of Cartesian functions: 320
    Spherical Harmonics?: true
    Max angular momentum: 4

  ==> CGRSolver (by Rob Parrish) <==

   Number of roots    =         1
   Preconditioning    =    JACOBI
   Convergence cutoff =     1E-06
   Maximum iterations =       100

  ==> CPHFRHamiltonian (by Rob Parrish) <== 

  ==> MemDFJK: Density-Fitted J/K Matrices <==

    J tasked:                   Yes
    K tasked:                   Yes
    wK tasked:                   No
    OpenMP threads:              24
    Memory [MiB]:            102996
    Algorithm:                 Core
    Schwarz Cutoff:           1E-12
    Mask sparsity (%):       0.0000
    Fitting Condition:        1E-10

   => Auxiliary Basis Set <=

  Basis Set: (AUG-CC-PV(Q+D)Z AUX)
    Blend: AUG-CC-PVQZ-JKFIT
    Number of shells: 104
    Number of basis function: 436
    Number of Cartesian functions: 598
    Spherical Harmonics?: true
    Max angular momentum: 5

  ==> CPHF Iterations <==

  => Iterations <=

             Iter  Converged  Remaining    Residual
  CGR           1          0          1   8.342E-02
  CGR           2          0          1   2.915E-02
  CGR           3          0          1   7.272E-03
  CGR           4          0          1   2.139E-03
  CGR           5          0          1   6.267E-04
  CGR           6          0          1   1.664E-04
  CGR           7          0          1   3.590E-05
  CGR           8          0          1   5.267E-06
  CGR           9          1          0   8.321E-07

    CGRSolver converged.

  ==> DFCorrGrad: Density-Fitted Correlated Gradients <==

    OpenMP threads:             24
    Integrals threads:          24
    Memory [GiB]:          100.583
    Schwarz Cutoff:          0E+00
    Fitting Condition:       1E-10

   => Auxiliary Basis Set <=

  Basis Set: (AUG-CC-PV(Q+D)Z AUX)
    Blend: AUG-CC-PVQZ-JKFIT
    Number of shells: 104
    Number of basis function: 436
    Number of Cartesian functions: 598
    Spherical Harmonics?: true
    Max angular momentum: 5

	-----------------------------------------------------------
	 ==================> DF-MP2 Energies <==================== 
	-----------------------------------------------------------
	 Reference Energy          =    -113.9216441335586438 [Eh]
	 Singles Energy            =      -0.0000000000000000 [Eh]
	 Same-Spin Energy          =      -0.1080446698233903 [Eh]
	 Opposite-Spin Energy      =      -0.3774112611779023 [Eh]
	 Correlation Energy        =      -0.4854559310012926 [Eh]
	 Total Energy              =    -114.4071000645599412 [Eh]
	-----------------------------------------------------------
	 ================> DF-SCS-MP2 Energies <================== 
	-----------------------------------------------------------
	 SCS Same-Spin Scale       =       0.3333333333333333 [-]
	 SCS Opposite-Spin Scale   =       1.2000000000000000 [-]
	 SCS Same-Spin Energy      =      -0.0360148899411301 [Eh]
	 SCS Opposite-Spin Energy  =      -0.4528935134134827 [Eh]
	 SCS Correlation Energy    =      -0.4889084033546128 [Eh]
	 SCS Total Energy          =    -114.4105525369132579 [Eh]
	-----------------------------------------------------------


  -Total Gradient:
     Atom            X                  Y                   Z
    ------   -----------------  -----------------  -----------------
       1        0.010463177573    -0.001385408205    -0.000669315083
       2       -0.006634809952     0.000878801173     0.000424349886
       3       -0.001874584685     0.000590360111     0.000039681474
       4       -0.001953782935    -0.000083753079     0.000205283722


*** tstop() called on bp1-compute00138.data.bp.acrc.priv at Mon Apr 19 16:13:00 2021
Module time:
	user time   =      89.02 seconds =       1.48 minutes
	system time =       4.89 seconds =       0.08 minutes
	total time  =          7 seconds =       0.12 minutes
Total time:
	user time   =     240.75 seconds =       4.01 minutes
	system time =      12.31 seconds =       0.21 minutes
	total time  =         19 seconds =       0.32 minutes

			-----------------------------------------
			 OPTKING 2.0: for geometry optimizations 
			  - R.A. King,  Bethel University        
			-----------------------------------------

	Previous internal coordinate definitions found.
	---Fragment 1 Geometry and Gradient---
	 C          -1.1236697761        0.1487953067        0.0718768314
	 O           1.1229711457       -0.1487028917       -0.0718321184
	 H          -2.0234569550        1.9911302231       -0.2746478182
	 H          -2.4195665251       -1.4027876470        0.5588505471
	             0.0104631776       -0.0013854082       -0.0006693151
	            -0.0066348100        0.0008788012        0.0004243499
	            -0.0018745847        0.0005903601        0.0000396815
	            -0.0019537829       -0.0000837531        0.0002052837

	---Fragment 1 Intrafragment Coordinates---
	 - Coordinate -           - BOHR/RAD -       - ANG/DEG -
	 R(1,2)           =         2.270804	       1.201658
	 R(1,3)           =         2.079398	       1.100370
	 R(1,4)           =         2.079399	       1.100371
	 B(2,1,3)         =         2.133694	     122.251638
	 B(2,1,4)         =         2.133696	     122.251790
	 B(3,1,4)         =         2.015795	     115.496573

	Current energy   :      -114.4071000646

	Energy change for the previous step:
		Projected    :        -0.0009687561
		Actual       :        -0.0005351767

	Performing BFGS update.
	Previous computed or guess Hessian on step 1.
	Steps to be used in Hessian update: 1
	Taking RFO optimization step.
	Going to follow RFO solution 1.
	Using RFO vector 1.
	Norm of target step-size    0.02616
	Projected energy change by RFO approximation:        -0.0001737422

	Back-transformation to cartesian coordinates...
	Successfully converged to displaced geometry.

	--- Internal Coordinate Step in ANG or DEG, aJ/ANG or AJ/DEG ---
	 ---------------------------------------------------------------------------
	   Coordinate                Previous        Force       Change         New 
	   ----------                --------       ------       ------       ------
	    1 R(1,2)          =      1.201658     0.055250     0.004882     1.206540
	    2 R(1,3)          =      1.100370    -0.010938    -0.003189     1.097180
	    3 R(1,4)          =      1.100371    -0.010943    -0.003191     1.097180
	    4 B(2,1,3)        =    122.251638    -0.000076    -0.536528   121.715110
	    5 B(2,1,4)        =    122.251790    -0.000076    -0.536812   121.714977
	    6 B(3,1,4)        =    115.496573     0.000153     1.073340   116.569913
	 ---------------------------------------------------------------------------
	Successfully symmetrized geometry.

  ==> Convergence Check <==

  Measures of convergence in internal coordinates in au.
  Criteria marked as inactive (o), active & met (*), and active & unmet ( ).
  ---------------------------------------------------------------------------------------------
   Step     Total Energy     Delta E     MAX Force     RMS Force      MAX Disp      RMS Disp   
  ---------------------------------------------------------------------------------------------
    Convergence Criteria    1.00e-06 *    3.00e-04 *             o    1.20e-03 *             o
  ---------------------------------------------------------------------------------------------
      2    -114.40710006   -5.35e-04      6.71e-03      3.02e-03 o    1.87e-02      1.07e-02 o  ~
  ---------------------------------------------------------------------------------------------

	Writing optimization data to binary file.
	Structure for next step:
	Cartesian Geometry (in Angstrom)
	    C    -0.6009821294   0.0795819229   0.0384424136
	    O     0.5927190178  -0.0784887624  -0.0379136112
	    H    -1.0665126344   1.0557880014  -0.1462404718
	    H    -1.2767407162  -0.7454947758   0.2961289372
			--------------------------
			 OPTKING Finished Execution 
			--------------------------

    Structure for next step:
    Molecular point group: c1
    Full point group: C1

    Geometry (in Angstrom), charge = 0, multiplicity = 1:

    C           -0.597887059955     0.079172623934     0.038244305625
    O            0.595814091991    -0.078898061941    -0.038111719466
    H           -1.063417566688     1.055378706248    -0.146438580520
    H           -1.273645649385    -0.745904078006     0.295930830207

gradient() will perform analytic gradient computation.
    SCF Algorithm Type (re)set to DF.

*** tstart() called on bp1-compute00138.data.bp.acrc.priv
*** at Mon Apr 19 16:13:00 2021

   => Loading Basis Set <=

    Name: AUG-CC-PV(Q+D)Z
    Role: ORBITAL
    Keyword: BASIS
    atoms 1   entry C          line   319 file /work/zw18965/.conda/envs/p4env/share/psi4/basis/aug-cc-pv_qpd_z.gbs 
    atoms 2   entry O          line   439 file /work/zw18965/.conda/envs/p4env/share/psi4/basis/aug-cc-pv_qpd_z.gbs 
    atoms 3-4 entry H          line    56 file /work/zw18965/.conda/envs/p4env/share/psi4/basis/aug-cc-pv_qpd_z.gbs 


         ---------------------------------------------------------
                                   SCF
               by Justin Turney, Rob Parrish, Andy Simmonett
                          and Daniel G. A. Smith
                              RHF Reference
                       24 Threads, 137329 MiB Core
         ---------------------------------------------------------

  ==> Geometry <==

    Molecular point group: c1
    Full point group: C1

    Geometry (in Angstrom), charge = 0, multiplicity = 1:

       Center              X                  Y                   Z               Mass       
    ------------   -----------------  -----------------  -----------------  -----------------
         C           -0.597887059955     0.079172623934     0.038244305625    12.000000000000
         O            0.595814091991    -0.078898061941    -0.038111719466    15.994914619570
         H           -1.063417566688     1.055378706248    -0.146438580520     1.007825032230
         H           -1.273645649385    -0.745904078006     0.295930830207     1.007825032230

  Running in c1 symmetry.

  Rotational constants: A =      9.60064  B =      1.29723  C =      1.14281 [cm^-1]
  Rotational constants: A = 287819.89533  B =  38889.88075  C =  34260.62587 [MHz]
  Nuclear repulsion =   31.330011534773647

  Charge       = 0
  Multiplicity = 1
  Electrons    = 16
  Nalpha       = 8
  Nbeta        = 8

  ==> Algorithm <==

  SCF Algorithm Type is DF.
  DIIS enabled.
  MOM disabled.
  Fractional occupation disabled.
  Guess Type is READ.
  Energy threshold   = 1.00e-10
  Density threshold  = 1.00e-10
  Integral threshold = 0.00e+00

  ==> Primary Basis <==

  Basis Set: AUG-CC-PV(Q+D)Z
    Blend: AUG-CC-PV(Q+D)Z
    Number of shells: 68
    Number of basis function: 252
    Number of Cartesian functions: 320
    Spherical Harmonics?: true
    Max angular momentum: 4

   => Loading Basis Set <=

    Name: (AUG-CC-PV(Q+D)Z AUX)
    Role: JKFIT
    Keyword: DF_BASIS_SCF
    atoms 1   entry C          line   178 file /work/zw18965/.conda/envs/p4env/share/psi4/basis/aug-cc-pvqz-jkfit.gbs 
    atoms 2   entry O          line   318 file /work/zw18965/.conda/envs/p4env/share/psi4/basis/aug-cc-pvqz-jkfit.gbs 
    atoms 3-4 entry H          line    70 file /work/zw18965/.conda/envs/p4env/share/psi4/basis/aug-cc-pvqz-jkfit.gbs 

   => Loading Basis Set <=

    Name: AUG-CC-PV(Q+D)Z
    Role: ORBITAL
    Keyword: BASIS
    atoms 1   entry C          line   319 file /work/zw18965/.conda/envs/p4env/share/psi4/basis/aug-cc-pv_qpd_z.gbs 
    atoms 2   entry O          line   439 file /work/zw18965/.conda/envs/p4env/share/psi4/basis/aug-cc-pv_qpd_z.gbs 
    atoms 3-4 entry H          line    56 file /work/zw18965/.conda/envs/p4env/share/psi4/basis/aug-cc-pv_qpd_z.gbs 

  Reading orbitals from file 180, no projection.

  ==> Pre-Iterations <==

   -------------------------------------------------------
    Irrep   Nso     Nmo     Nalpha   Nbeta   Ndocc  Nsocc
   -------------------------------------------------------
     A        252     252       0       0       0       0
   -------------------------------------------------------
    Total     252     252       8       8       8       0
   -------------------------------------------------------

  ==> Integral Setup <==

  DFHelper Memory: AOs need 0.235 GiB; user supplied 100.583 GiB. Using in-core AOs.

  ==> MemDFJK: Density-Fitted J/K Matrices <==

    J tasked:                   Yes
    K tasked:                   Yes
    wK tasked:                   No
    OpenMP threads:              24
    Memory [MiB]:            102996
    Algorithm:                 Core
    Schwarz Cutoff:           1E-12
    Mask sparsity (%):       0.0000
    Fitting Condition:        1E-10

   => Auxiliary Basis Set <=

  Basis Set: (AUG-CC-PV(Q+D)Z AUX)
    Blend: AUG-CC-PVQZ-JKFIT
    Number of shells: 104
    Number of basis function: 436
    Number of Cartesian functions: 598
    Spherical Harmonics?: true
    Max angular momentum: 5

  Minimum eigenvalue in the overlap matrix is 2.1570753010E-05.
  Using Symmetric Orthogonalization.

  SCF Guess: Orbitals guess was supplied from a previous computation.

  ==> Iterations <==

                           Total Energy        Delta E     RMS |[F,P]|

   @DF-RHF iter   0:  -113.92120528969086   -1.13921e+02   7.92451e-05 
   @DF-RHF iter   1:  -113.92129739993793   -9.21102e-05   9.65834e-06 DIIS
   @DF-RHF iter   2:  -113.92130048269479   -3.08276e-06   6.66640e-06 DIIS
   @DF-RHF iter   3:  -113.92130142492059   -9.42226e-07   1.45173e-06 DIIS
   @DF-RHF iter   4:  -113.92130156815628   -1.43236e-07   5.09368e-07 DIIS
   @DF-RHF iter   5:  -113.92130158805571   -1.98994e-08   1.52835e-07 DIIS
   @DF-RHF iter   6:  -113.92130159057494   -2.51923e-09   7.38777e-08 DIIS
   @DF-RHF iter   7:  -113.92130159100618   -4.31243e-10   2.08383e-08 DIIS
   @DF-RHF iter   8:  -113.92130159105074   -4.45510e-11   3.07485e-09 DIIS
   @DF-RHF iter   9:  -113.92130159105164   -9.09495e-13   5.44909e-10 DIIS
   @DF-RHF iter  10:  -113.92130159105142    2.27374e-13   8.42285e-11 DIIS
  Energy and wave function converged.


  ==> Post-Iterations <==

    Orbital Energies [Eh]
    ---------------------

    Doubly Occupied:                                                      

       1A    -20.575904     2A    -11.340259     3A     -1.405350  
       4A     -0.872602     5A     -0.696468     6A     -0.652393  
       7A     -0.536842     8A     -0.444380  

    Virtual:                                                              

       9A      0.023414    10A      0.037910    11A      0.056306  
      12A      0.067236    13A      0.117636    14A      0.118507  
      15A      0.119724    16A      0.145968    17A      0.167300  
      18A      0.177109    19A      0.184814    20A      0.205865  
      21A      0.211532    22A      0.224568    23A      0.261928  
      24A      0.272235    25A      0.275581    26A      0.294549  
      27A      0.301231    28A      0.320970    29A      0.325158  
      30A      0.349378    31A      0.398492    32A      0.405759  
      33A      0.433951    34A      0.445026    35A      0.503997  
      36A      0.527566    37A      0.552619    38A      0.553871  
      39A      0.575988    40A      0.621451    41A      0.626515  
      42A      0.658747    43A      0.665446    44A      0.673232  
      45A      0.675170    46A      0.718320    47A      0.730009  
      48A      0.737444    49A      0.739343    50A      0.756771  
      51A      0.764600    52A      0.776461    53A      0.823186  
      54A      0.835014    55A      0.840940    56A      0.878465  
      57A      0.880922    58A      0.944191    59A      0.951871  
      60A      0.971798    61A      1.021202    62A      1.051341  
      63A      1.065677    64A      1.081421    65A      1.118705  
      66A      1.154722    67A      1.190176    68A      1.288597  
      69A      1.304873    70A      1.385213    71A      1.385975  
      72A      1.447523    73A      1.477155    74A      1.524114  
      75A      1.525221    76A      1.539922    77A      1.578171  
      78A      1.579232    79A      1.581941    80A      1.623789  
      81A      1.630008    82A      1.637241    83A      1.677319  
      84A      1.703976    85A      1.736129    86A      1.788890  
      87A      1.828022    88A      1.837218    89A      1.839453  
      90A      1.877916    91A      1.901637    92A      1.902979  
      93A      1.954132    94A      1.968231    95A      1.974809  
      96A      1.990854    97A      2.013414    98A      2.032551  
      99A      2.059677   100A      2.082294   101A      2.104750  
     102A      2.142290   103A      2.151008   104A      2.171901  
     105A      2.191223   106A      2.212887   107A      2.312581  
     108A      2.404188   109A      2.460700   110A      2.477837  
     111A      2.479621   112A      2.485463   113A      2.565734  
     114A      2.641251   115A      2.653513   116A      2.754425  
     117A      2.759930   118A      2.776699   119A      2.798746  
     120A      2.802138   121A      2.852842   122A      2.893113  
     123A      2.906918   124A      2.945161   125A      3.084932  
     126A      3.088998   127A      3.242326   128A      3.342619  
     129A      3.384562   130A      3.404229   131A      3.490376  
     132A      3.538124   133A      3.695090   134A      3.726580  
     135A      3.843848   136A      3.851396   137A      3.866872  
     138A      3.876379   139A      3.981285   140A      3.991157  
     141A      3.997964   142A      4.062212   143A      4.093480  
     144A      4.173339   145A      4.202945   146A      4.239595  
     147A      4.248578   148A      4.329053   149A      4.361875  
     150A      4.362620   151A      4.363116   152A      4.380242  
     153A      4.392649   154A      4.431672   155A      4.602486  
     156A      4.610035   157A      4.637528   158A      4.668510  
     159A      4.705702   160A      4.786382   161A      4.855924  
     162A      4.963235   163A      5.161100   164A      5.228975  
     165A      5.377743   166A      5.466088   167A      5.486386  
     168A      5.569491   169A      5.768282   170A      5.782546  
     171A      6.006630   172A      6.010625   173A      6.041273  
     174A      6.178752   175A      6.230388   176A      6.261166  
     177A      6.299428   178A      6.382930   179A      6.486388  
     180A      6.596749   181A      6.620291   182A      6.790973  
     183A      6.806892   184A      6.888596   185A      6.936639  
     186A      6.958389   187A      6.990028   188A      7.149997  
     189A      7.178870   190A      7.178918   191A      7.362546  
     192A      7.373838   193A      7.447234   194A      7.607658  
     195A      7.734618   196A      7.908746   197A      7.997171  
     198A      8.269432   199A      8.282141   200A      8.307100  
     201A      8.310923   202A      8.341262   203A      8.534789  
     204A      8.586134   205A      8.594366   206A      8.607037  
     207A      8.939904   208A      9.009917   209A      9.044311  
     210A      9.185432   211A      9.187100   212A      9.240325  
     213A      9.411777   214A      9.664543   215A      9.674544  
     216A      9.754883   217A     10.104286   218A     10.191956  
     219A     10.195070   220A     10.222011   221A     10.434632  
     222A     10.733636   223A     10.744038   224A     10.759497  
     225A     10.822357   226A     11.005220   227A     11.056965  
     228A     11.231594   229A     11.285636   230A     11.291943  
     231A     11.341057   232A     11.483176   233A     11.608359  
     234A     11.677086   235A     11.947407   236A     12.058400  
     237A     12.154779   238A     12.171563   239A     12.522965  
     240A     12.561383   241A     12.790706   242A     12.817853  
     243A     12.894891   244A     13.109494   245A     13.279694  
     246A     13.391179   247A     13.962285   248A     13.971895  
     249A     14.756583   250A     14.908510   251A     27.059351  
     252A     43.520863  

    Final Occupation by Irrep:
              A 
    DOCC [     8 ]

  @DF-RHF Final Energy:  -113.92130159105142

   => Energetics <=

    Nuclear Repulsion Energy =             31.3300115347736465
    One-Electron Energy =                -217.4542310721682554
    Two-Electron Energy =                  72.2029179463431774
    Total Energy =                       -113.9213015910514173

Computation Completed


Properties will be evaluated at   0.000000,   0.000000,   0.000000 [a0]

Properties computed using the SCF density matrix

  Nuclear Dipole Moment: [e a0]
     X:    -2.1881      Y:     0.2897      Z:     0.1400

  Electronic Dipole Moment: [e a0]
     X:     1.0749      Y:    -0.1423      Z:    -0.0688

  Dipole Moment: [e a0]
     X:    -1.1132      Y:     0.1474      Z:     0.0712     Total:     1.1252

  Dipole Moment: [D]
     X:    -2.8295      Y:     0.3747      Z:     0.1810     Total:     2.8599


*** tstop() called on bp1-compute00138.data.bp.acrc.priv at Mon Apr 19 16:13:01 2021
Module time:
	user time   =      21.25 seconds =       0.35 minutes
	system time =       0.84 seconds =       0.01 minutes
	total time  =          1 seconds =       0.02 minutes
Total time:
	user time   =     262.33 seconds =       4.37 minutes
	system time =      13.16 seconds =       0.22 minutes
	total time  =         20 seconds =       0.33 minutes

*** tstart() called on bp1-compute00138.data.bp.acrc.priv
*** at Mon Apr 19 16:13:01 2021


  //>>>>>>>>>>>>>>>>>>>>>>>>>>>>>>>>>>>//
  //               DFMP2               //
  //<<<<<<<<<<<<<<<<<<<<<<<<<<<<<<<<<<<//

   => Loading Basis Set <=

    Name: (AUG-CC-PV(Q+D)Z AUX)
    Role: RIFIT
    Keyword: DF_BASIS_MP2
    atoms 1   entry C          line   184 file /work/zw18965/.conda/envs/p4env/share/psi4/basis/aug-cc-pvqz-ri.gbs 
    atoms 2   entry O          line   332 file /work/zw18965/.conda/envs/p4env/share/psi4/basis/aug-cc-pvqz-ri.gbs 
    atoms 3-4 entry H          line    30 file /work/zw18965/.conda/envs/p4env/share/psi4/basis/aug-cc-pvqz-ri.gbs 

	 --------------------------------------------------------
	                          DF-MP2                         
	      2nd-Order Density-Fitted Moller-Plesset Theory     
	              RMP2 Wavefunction,  24 Threads             
	                                                         
	        Rob Parrish, Justin Turney, Andy Simmonett,      
	           Ed Hohenstein, and C. David Sherrill          
	 --------------------------------------------------------

   => Auxiliary Basis Set <=

  Basis Set: (AUG-CC-PV(Q+D)Z AUX)
    Blend: AUG-CC-PVQZ-RI
    Number of shells: 112
    Number of basis function: 496
    Number of Cartesian functions: 684
    Spherical Harmonics?: true
    Max angular momentum: 5

	 --------------------------------------------------------
	                 NBF =   252, NAUX =   496
	 --------------------------------------------------------
	   CLASS    FOCC     OCC    AOCC    AVIR     VIR    FVIR
	   PAIRS       0       8       8     244     244       0
	 --------------------------------------------------------

  DFHelper Memory: AOs need 0.235 GiB; user supplied 100.583 GiB. Using in-core AOs.


         ------------------------------------------------------------
                                     CPHF                           
                                  Rob Parrish                       
         ------------------------------------------------------------

  ==> Geometry <==

    Molecular point group: c1
    Full point group: C1

    Geometry (in Angstrom), charge = 0, multiplicity = 1:

       Center              X                  Y                   Z               Mass       
    ------------   -----------------  -----------------  -----------------  -----------------
         C           -0.597887059955     0.079172623934     0.038244305625    12.000000000000
         O            0.595814091991    -0.078898061941    -0.038111719466    15.994914619570
         H           -1.063417566688     1.055378706248    -0.146438580520     1.007825032230
         H           -1.273645649385    -0.745904078006     0.295930830207     1.007825032230

  Nuclear repulsion =   31.330011534773647
  Reference energy  = -113.921301591051417

  ==> Basis Set <==

  Basis Set: AUG-CC-PV(Q+D)Z
    Blend: AUG-CC-PV(Q+D)Z
    Number of shells: 68
    Number of basis function: 252
    Number of Cartesian functions: 320
    Spherical Harmonics?: true
    Max angular momentum: 4

  ==> CGRSolver (by Rob Parrish) <==

   Number of roots    =         1
   Preconditioning    =    JACOBI
   Convergence cutoff =     1E-06
   Maximum iterations =       100

  ==> CPHFRHamiltonian (by Rob Parrish) <== 

  ==> MemDFJK: Density-Fitted J/K Matrices <==

    J tasked:                   Yes
    K tasked:                   Yes
    wK tasked:                   No
    OpenMP threads:              24
    Memory [MiB]:            102996
    Algorithm:                 Core
    Schwarz Cutoff:           1E-12
    Mask sparsity (%):       0.0000
    Fitting Condition:        1E-10

   => Auxiliary Basis Set <=

  Basis Set: (AUG-CC-PV(Q+D)Z AUX)
    Blend: AUG-CC-PVQZ-JKFIT
    Number of shells: 104
    Number of basis function: 436
    Number of Cartesian functions: 598
    Spherical Harmonics?: true
    Max angular momentum: 5

  ==> CPHF Iterations <==

  => Iterations <=

             Iter  Converged  Remaining    Residual
  CGR           1          0          1   8.404E-02
  CGR           2          0          1   2.951E-02
  CGR           3          0          1   7.413E-03
  CGR           4          0          1   2.250E-03
  CGR           5          0          1   7.072E-04
  CGR           6          0          1   1.789E-04
  CGR           7          0          1   3.710E-05
  CGR           8          0          1   5.440E-06
  CGR           9          1          0   8.597E-07

    CGRSolver converged.

  ==> DFCorrGrad: Density-Fitted Correlated Gradients <==

    OpenMP threads:             24
    Integrals threads:          24
    Memory [GiB]:          100.583
    Schwarz Cutoff:          0E+00
    Fitting Condition:       1E-10

   => Auxiliary Basis Set <=

  Basis Set: (AUG-CC-PV(Q+D)Z AUX)
    Blend: AUG-CC-PVQZ-JKFIT
    Number of shells: 104
    Number of basis function: 436
    Number of Cartesian functions: 598
    Spherical Harmonics?: true
    Max angular momentum: 5

	-----------------------------------------------------------
	 ==================> DF-MP2 Energies <==================== 
	-----------------------------------------------------------
	 Reference Energy          =    -113.9213015910514173 [Eh]
	 Singles Energy            =      -0.0000000000000000 [Eh]
	 Same-Spin Energy          =      -0.1081512324443643 [Eh]
	 Opposite-Spin Energy      =      -0.3777163122332474 [Eh]
	 Correlation Energy        =      -0.4858675446776117 [Eh]
	 Total Energy              =    -114.4071691357290348 [Eh]
	-----------------------------------------------------------
	 ================> DF-SCS-MP2 Energies <================== 
	-----------------------------------------------------------
	 SCS Same-Spin Scale       =       0.3333333333333333 [-]
	 SCS Opposite-Spin Scale   =       1.2000000000000000 [-]
	 SCS Same-Spin Energy      =      -0.0360504108147881 [Eh]
	 SCS Opposite-Spin Energy  =      -0.4532595746798969 [Eh]
	 SCS Correlation Energy    =      -0.4893099854946850 [Eh]
	 SCS Total Energy          =    -114.4106115765461027 [Eh]
	-----------------------------------------------------------


  -Total Gradient:
     Atom            X                  Y                   Z
    ------   -----------------  -----------------  -----------------
       1        0.000382455225    -0.000050629246    -0.000024466413
       2       -0.000392388348     0.000051767232     0.000025144271
       3       -0.000003895864    -0.000074927251     0.000017939892
       4        0.000013828987     0.000073789265    -0.000018617749


*** tstop() called on bp1-compute00138.data.bp.acrc.priv at Mon Apr 19 16:13:09 2021
Module time:
	user time   =      89.12 seconds =       1.49 minutes
	system time =       4.76 seconds =       0.08 minutes
	total time  =          8 seconds =       0.13 minutes
Total time:
	user time   =     351.46 seconds =       5.86 minutes
	system time =      17.92 seconds =       0.30 minutes
	total time  =         28 seconds =       0.47 minutes

			-----------------------------------------
			 OPTKING 2.0: for geometry optimizations 
			  - R.A. King,  Bethel University        
			-----------------------------------------

	Previous internal coordinate definitions found.
	---Fragment 1 Geometry and Gradient---
	 C          -1.1298427973        0.1496145759        0.0722712635
	 O           1.1259254556       -0.1490957289       -0.0720207120
	 H          -2.0095679580        1.9943767134       -0.2767288114
	 H          -2.4068414582       -1.4095544233        0.5592282212
	             0.0003824552       -0.0000506292       -0.0000244664
	            -0.0003923883        0.0000517672        0.0000251443
	            -0.0000038959       -0.0000749273        0.0000179399
	             0.0000138290        0.0000737893       -0.0000186177

	---Fragment 1 Intrafragment Coordinates---
	 - Coordinate -           - BOHR/RAD -       - ANG/DEG -
	 R(1,2)           =         2.280030	       1.206540
	 R(1,3)           =         2.073370	       1.097180
	 R(1,4)           =         2.073369	       1.097180
	 B(2,1,3)         =         2.124329	     121.715110
	 B(2,1,4)         =         2.124327	     121.714977
	 B(3,1,4)         =         2.034529	     116.569913

	Current energy   :      -114.4071691357

	Energy change for the previous step:
		Projected    :        -0.0001737422
		Actual       :        -0.0000690712

	Performing BFGS update.
	Previous computed or guess Hessian on step 1.
	Steps to be used in Hessian update: 2 1
	Taking RFO optimization step.
	Going to follow RFO solution 1.
	Using RFO vector 1.
	Norm of target step-size    0.00082
	Projected energy change by RFO approximation:        -0.0000000547

	Back-transformation to cartesian coordinates...
	Successfully converged to displaced geometry.

	--- Internal Coordinate Step in ANG or DEG, aJ/ANG or AJ/DEG ---
	 ---------------------------------------------------------------------------
	   Coordinate                Previous        Force       Change         New 
	   ----------                --------       ------       ------       ------
	    1 R(1,2)          =      1.206540     0.003267     0.000248     1.206788
	    2 R(1,3)          =      1.097180     0.000561     0.000076     1.097256
	    3 R(1,4)          =      1.097180     0.000563     0.000076     1.097256
	    4 B(2,1,3)        =    121.715110    -0.000002    -0.014961   121.700149
	    5 B(2,1,4)        =    121.714977    -0.000002    -0.014802   121.700176
	    6 B(3,1,4)        =    116.569913     0.000004     0.029763   116.599676
	 ---------------------------------------------------------------------------
	Successfully symmetrized geometry.

  ==> Convergence Check <==

  Measures of convergence in internal coordinates in au.
  Criteria marked as inactive (o), active & met (*), and active & unmet ( ).
  ---------------------------------------------------------------------------------------------
   Step     Total Energy     Delta E     MAX Force     RMS Force      MAX Disp      RMS Disp   
  ---------------------------------------------------------------------------------------------
    Convergence Criteria    1.00e-06 *    3.00e-04 *             o    1.20e-03 *             o
  ---------------------------------------------------------------------------------------------
      3    -114.40716914   -6.91e-05      3.97e-04      1.68e-04 o    5.19e-04 *    3.33e-04 o  ~
  ---------------------------------------------------------------------------------------------

	Writing optimization data to binary file.
	Structure for next step:
	Cartesian Geometry (in Angstrom)
	    C    -0.5980486192   0.0791937288   0.0382547076
	    O     0.5958980393  -0.0789084400  -0.0381172624
	    H    -1.0633539876   1.0555801526  -0.1464918601
	    H    -1.2736316073  -0.7461162524   0.2959792500
			--------------------------
			 OPTKING Finished Execution 
			--------------------------

    Structure for next step:
    Molecular point group: c1
    Full point group: C1

    Geometry (in Angstrom), charge = 0, multiplicity = 1:

    C           -0.598031369241     0.079191181668     0.038253665876
    O            0.595915293995    -0.078910987753    -0.038118304416
    H           -1.063336739385     1.055577609274    -0.146492902567
    H           -1.273614359993    -0.746118802774     0.295978209297

gradient() will perform analytic gradient computation.
    SCF Algorithm Type (re)set to DF.

*** tstart() called on bp1-compute00138.data.bp.acrc.priv
*** at Mon Apr 19 16:13:09 2021

   => Loading Basis Set <=

    Name: AUG-CC-PV(Q+D)Z
    Role: ORBITAL
    Keyword: BASIS
    atoms 1   entry C          line   319 file /work/zw18965/.conda/envs/p4env/share/psi4/basis/aug-cc-pv_qpd_z.gbs 
    atoms 2   entry O          line   439 file /work/zw18965/.conda/envs/p4env/share/psi4/basis/aug-cc-pv_qpd_z.gbs 
    atoms 3-4 entry H          line    56 file /work/zw18965/.conda/envs/p4env/share/psi4/basis/aug-cc-pv_qpd_z.gbs 


         ---------------------------------------------------------
                                   SCF
               by Justin Turney, Rob Parrish, Andy Simmonett
                          and Daniel G. A. Smith
                              RHF Reference
                       24 Threads, 137329 MiB Core
         ---------------------------------------------------------

  ==> Geometry <==

    Molecular point group: c1
    Full point group: C1

    Geometry (in Angstrom), charge = 0, multiplicity = 1:

       Center              X                  Y                   Z               Mass       
    ------------   -----------------  -----------------  -----------------  -----------------
         C           -0.598031369241     0.079191181668     0.038253665876    12.000000000000
         O            0.595915293995    -0.078910987753    -0.038118304416    15.994914619570
         H           -1.063336739385     1.055577609274    -0.146492902567     1.007825032230
         H           -1.273614359993    -0.746118802774     0.295978209297     1.007825032230

  Running in c1 symmetry.

  Rotational constants: A =      9.59623  B =      1.29685  C =      1.14245 [cm^-1]
  Rotational constants: A = 287687.70431  B =  38878.46856  C =  34249.89572 [MHz]
  Nuclear repulsion =   31.324926757208988

  Charge       = 0
  Multiplicity = 1
  Electrons    = 16
  Nalpha       = 8
  Nbeta        = 8

  ==> Algorithm <==

  SCF Algorithm Type is DF.
  DIIS enabled.
  MOM disabled.
  Fractional occupation disabled.
  Guess Type is READ.
  Energy threshold   = 1.00e-10
  Density threshold  = 1.00e-10
  Integral threshold = 0.00e+00

  ==> Primary Basis <==

  Basis Set: AUG-CC-PV(Q+D)Z
    Blend: AUG-CC-PV(Q+D)Z
    Number of shells: 68
    Number of basis function: 252
    Number of Cartesian functions: 320
    Spherical Harmonics?: true
    Max angular momentum: 4

   => Loading Basis Set <=

    Name: (AUG-CC-PV(Q+D)Z AUX)
    Role: JKFIT
    Keyword: DF_BASIS_SCF
    atoms 1   entry C          line   178 file /work/zw18965/.conda/envs/p4env/share/psi4/basis/aug-cc-pvqz-jkfit.gbs 
    atoms 2   entry O          line   318 file /work/zw18965/.conda/envs/p4env/share/psi4/basis/aug-cc-pvqz-jkfit.gbs 
    atoms 3-4 entry H          line    70 file /work/zw18965/.conda/envs/p4env/share/psi4/basis/aug-cc-pvqz-jkfit.gbs 

   => Loading Basis Set <=

    Name: AUG-CC-PV(Q+D)Z
    Role: ORBITAL
    Keyword: BASIS
    atoms 1   entry C          line   319 file /work/zw18965/.conda/envs/p4env/share/psi4/basis/aug-cc-pv_qpd_z.gbs 
    atoms 2   entry O          line   439 file /work/zw18965/.conda/envs/p4env/share/psi4/basis/aug-cc-pv_qpd_z.gbs 
    atoms 3-4 entry H          line    56 file /work/zw18965/.conda/envs/p4env/share/psi4/basis/aug-cc-pv_qpd_z.gbs 

  Reading orbitals from file 180, no projection.

  ==> Pre-Iterations <==

   -------------------------------------------------------
    Irrep   Nso     Nmo     Nalpha   Nbeta   Ndocc  Nsocc
   -------------------------------------------------------
     A        252     252       0       0       0       0
   -------------------------------------------------------
    Total     252     252       8       8       8       0
   -------------------------------------------------------

  ==> Integral Setup <==

  DFHelper Memory: AOs need 0.235 GiB; user supplied 100.583 GiB. Using in-core AOs.

  ==> MemDFJK: Density-Fitted J/K Matrices <==

    J tasked:                   Yes
    K tasked:                   Yes
    wK tasked:                   No
    OpenMP threads:              24
    Memory [MiB]:            102996
    Algorithm:                 Core
    Schwarz Cutoff:           1E-12
    Mask sparsity (%):       0.0000
    Fitting Condition:        1E-10

   => Auxiliary Basis Set <=

  Basis Set: (AUG-CC-PV(Q+D)Z AUX)
    Blend: AUG-CC-PVQZ-JKFIT
    Number of shells: 104
    Number of basis function: 436
    Number of Cartesian functions: 598
    Spherical Harmonics?: true
    Max angular momentum: 5

  Minimum eigenvalue in the overlap matrix is 2.1582270572E-05.
  Using Symmetric Orthogonalization.

  SCF Guess: Orbitals guess was supplied from a previous computation.

  ==> Iterations <==

[...]
     135A      3.843248   136A      3.851038   137A      3.866309  
     138A      3.875184   139A      3.980793   140A      3.990618  
     141A      3.998442   142A      4.061878   143A      4.092828  
     144A      4.172187   145A      4.201374   146A      4.239526  
     147A      4.247972   148A      4.328063   149A      4.360407  
     150A      4.362287   151A      4.362525   152A      4.379978  
     153A      4.391557   154A      4.431208   155A      4.601329  
     156A      4.609811   157A      4.636301   158A      4.668152  
     159A      4.705724   160A      4.784152   161A      4.855178  
     162A      4.961984   163A      5.161065   164A      5.228034  
     165A      5.377232   166A      5.463527   167A      5.485651  
     168A      5.569616   169A      5.769521   170A      5.781599  
     171A      6.007530   172A      6.010052   173A      6.041695  
     174A      6.177081   175A      6.229805   176A      6.259368  
     177A      6.299016   178A      6.383104   179A      6.486572  
     180A      6.595619   181A      6.617639   182A      6.789239  
     183A      6.803139   184A      6.884878   185A      6.932912  
     186A      6.956763   187A      6.985699   188A      7.147667  
     189A      7.177254   190A      7.177309   191A      7.358205  
     192A      7.375779   193A      7.445656   194A      7.605258  
     195A      7.726829   196A      7.905167   197A      7.993532  
     198A      8.266008   199A      8.280222   200A      8.306456  
     201A      8.310496   202A      8.341610   203A      8.532242  
     204A      8.584798   205A      8.586493   206A      8.604852  
     207A      8.935147   208A      9.004444   209A      9.041177  
     210A      9.181408   211A      9.184480   212A      9.239345  
     213A      9.407302   214A      9.662806   215A      9.672683  
     216A      9.749130   217A     10.101669   218A     10.179278  
     219A     10.184292   220A     10.219690   221A     10.427002  
     222A     10.727443   223A     10.744087   224A     10.759391  
     225A     10.821874   226A     10.994407   227A     11.056532  
     228A     11.225445   229A     11.285134   230A     11.290578  
     231A     11.340880   232A     11.482176   233A     11.606905  
     234A     11.676047   235A     11.944112   236A     12.058238  
     237A     12.154346   238A     12.170300   239A     12.517637  
     240A     12.560448   241A     12.790117   242A     12.806001  
     243A     12.893538   244A     13.108808   245A     13.278103  
     246A     13.385061   247A     13.959934   248A     13.970011  
     249A     14.751466   250A     14.905534   251A     27.041569  
     252A     43.518898  

    Final Occupation by Irrep:
              A 
    DOCC [     8 ]

  @DF-RHF Final Energy:  -113.92124158876622

   => Energetics <=

    Nuclear Repulsion Energy =             31.3142021639775088
    One-Electron Energy =                -217.4243751512998415
    Two-Electron Energy =                  72.1889313985561074
    Total Energy =                       -113.9212415887662218

Computation Completed


Properties will be evaluated at   0.000000,   0.000000,   0.000000 [a0]

Properties computed using the SCF density matrix

  Nuclear Dipole Moment: [e a0]
     X:    -2.1880      Y:     0.2897      Z:     0.1400

  Electronic Dipole Moment: [e a0]
     X:     1.0752      Y:    -0.1424      Z:    -0.0688

  Dipole Moment: [e a0]
     X:    -1.1127      Y:     0.1473      Z:     0.0712     Total:     1.1247

  Dipole Moment: [D]
     X:    -2.8283      Y:     0.3745      Z:     0.1809     Total:     2.8587


*** tstop() called on bp1-compute00138.data.bp.acrc.priv at Mon Apr 19 16:15:24 2021
Module time:
	user time   =      39.67 seconds =       0.66 minutes
	system time =       1.52 seconds =       0.03 minutes
	total time  =          2 seconds =       0.03 minutes
Total time:
	user time   =    2165.24 seconds =      36.09 minutes
	system time =     103.22 seconds =       1.72 minutes
	total time  =        163 seconds =       2.72 minutes

*** tstart() called on bp1-compute00138.data.bp.acrc.priv
*** at Mon Apr 19 16:15:24 2021


  //>>>>>>>>>>>>>>>>>>>>>>>>>>>>>>>>>>>//
  //               DFMP2               //
  //<<<<<<<<<<<<<<<<<<<<<<<<<<<<<<<<<<<//

   => Loading Basis Set <=

    Name: (AUG-CC-PV(Q+D)Z AUX)
    Role: RIFIT
    Keyword: DF_BASIS_MP2
    atoms 1   entry C          line   184 file /work/zw18965/.conda/envs/p4env/share/psi4/basis/aug-cc-pvqz-ri.gbs 
    atoms 2   entry O          line   332 file /work/zw18965/.conda/envs/p4env/share/psi4/basis/aug-cc-pvqz-ri.gbs 
    atoms 3-4 entry H          line    30 file /work/zw18965/.conda/envs/p4env/share/psi4/basis/aug-cc-pvqz-ri.gbs 

	 --------------------------------------------------------
	                          DF-MP2                         
	      2nd-Order Density-Fitted Moller-Plesset Theory     
	              RMP2 Wavefunction,  24 Threads             
	                                                         
	        Rob Parrish, Justin Turney, Andy Simmonett,      
	           Ed Hohenstein, and C. David Sherrill          
	 --------------------------------------------------------

   => Auxiliary Basis Set <=

  Basis Set: (AUG-CC-PV(Q+D)Z AUX)
    Blend: AUG-CC-PVQZ-RI
    Number of shells: 112
    Number of basis function: 496
    Number of Cartesian functions: 684
    Spherical Harmonics?: true
    Max angular momentum: 5

	 --------------------------------------------------------
	                 NBF =   252, NAUX =   496
	 --------------------------------------------------------
	   CLASS    FOCC     OCC    AOCC    AVIR     VIR    FVIR
	   PAIRS       0       8       8     244     244       0
	 --------------------------------------------------------

  DFHelper Memory: AOs need 0.235 GiB; user supplied 100.583 GiB. Using in-core AOs.


         ------------------------------------------------------------
                                     CPHF                           
                                  Rob Parrish                       
         ------------------------------------------------------------

  ==> Geometry <==

    Molecular point group: c1
    Full point group: C1

    Geometry (in Angstrom), charge = 0, multiplicity = 1:

       Center              X                  Y                   Z               Mass       
    ------------   -----------------  -----------------  -----------------  -----------------
         C           -0.598031369241     0.079191181668     0.038253665876    12.000000000000
         O            0.595915293995    -0.078910987753    -0.038118304416    15.994914619570
         H           -1.063126852043     1.057375961702    -0.146934552444     1.007825032230
         H           -1.273824247334    -0.747917155203     0.296419859174     1.007825032230

  Nuclear repulsion =   31.314202163977509
  Reference energy  = -113.921241588766222

  ==> Basis Set <==

  Basis Set: AUG-CC-PV(Q+D)Z
    Blend: AUG-CC-PV(Q+D)Z
    Number of shells: 68
    Number of basis function: 252
    Number of Cartesian functions: 320
    Spherical Harmonics?: true
    Max angular momentum: 4

  ==> CGRSolver (by Rob Parrish) <==

   Number of roots    =         1
   Preconditioning    =    JACOBI
   Convergence cutoff =     1E-06
   Maximum iterations =       100

  ==> CPHFRHamiltonian (by Rob Parrish) <== 

  ==> MemDFJK: Density-Fitted J/K Matrices <==

    J tasked:                   Yes
    K tasked:                   Yes
    wK tasked:                   No
    OpenMP threads:              24
    Memory [MiB]:            102996
    Algorithm:                 Core
    Schwarz Cutoff:           1E-12
    Mask sparsity (%):       0.0000
    Fitting Condition:        1E-10

   => Auxiliary Basis Set <=

  Basis Set: (AUG-CC-PV(Q+D)Z AUX)
    Blend: AUG-CC-PVQZ-JKFIT
    Number of shells: 104
    Number of basis function: 436
    Number of Cartesian functions: 598
    Spherical Harmonics?: true
    Max angular momentum: 5

  ==> CPHF Iterations <==

  => Iterations <=

             Iter  Converged  Remaining    Residual
  CGR           1          0          1   8.414E-02
  CGR           2          0          1   2.956E-02
  CGR           3          0          1   7.425E-03
  CGR           4          0          1   2.254E-03
  CGR           5          0          1   7.083E-04
  CGR           6          0          1   1.794E-04
  CGR           7          0          1   3.722E-05
  CGR           8          0          1   5.457E-06
  CGR           9          1          0   8.623E-07

    CGRSolver converged.

  ==> DFCorrGrad: Density-Fitted Correlated Gradients <==

    OpenMP threads:             24
    Integrals threads:          24
    Memory [GiB]:          100.583
    Schwarz Cutoff:          0E+00
    Fitting Condition:       1E-10

   => Auxiliary Basis Set <=

  Basis Set: (AUG-CC-PV(Q+D)Z AUX)
    Blend: AUG-CC-PVQZ-JKFIT
    Number of shells: 104
    Number of basis function: 436
    Number of Cartesian functions: 598
    Spherical Harmonics?: true
    Max angular momentum: 5

	-----------------------------------------------------------
	 ==================> DF-MP2 Energies <==================== 
	-----------------------------------------------------------
	 Reference Energy          =    -113.9212415887662218 [Eh]
	 Singles Energy            =      -0.0000000000000000 [Eh]
	 Same-Spin Energy          =      -0.1081642628963712 [Eh]
	 Opposite-Spin Energy      =      -0.3777600014924380 [Eh]
	 Correlation Energy        =      -0.4859242643888092 [Eh]
	 Total Energy              =    -114.4071658531550355 [Eh]
	-----------------------------------------------------------
	 ================> DF-SCS-MP2 Energies <================== 
	-----------------------------------------------------------
	 SCS Same-Spin Scale       =       0.3333333333333333 [-]
	 SCS Opposite-Spin Scale   =       1.2000000000000000 [-]
	 SCS Same-Spin Energy      =      -0.0360547542987904 [Eh]
	 SCS Opposite-Spin Energy  =      -0.4533120017909256 [Eh]
	 SCS Correlation Energy    =      -0.4893667560897160 [Eh]
	 SCS Total Energy          =    -114.4106083448559446 [Eh]
	-----------------------------------------------------------


  -Total Gradient:
     Atom            X                  Y                   Z
    ------   -----------------  -----------------  -----------------
       1        0.000630462267    -0.000083529732    -0.000040316526
       2        0.000069882323    -0.000009215562    -0.000004479436
       3       -0.000241447051     0.000977748757    -0.000206337023
       4       -0.000458897538    -0.000885003462     0.000251132986


*** tstop() called on bp1-compute00138.data.bp.acrc.priv at Mon Apr 19 16:15:31 2021
Module time:
	user time   =      89.50 seconds =       1.49 minutes
	system time =       4.58 seconds =       0.08 minutes
	total time  =          7 seconds =       0.12 minutes
Total time:
	user time   =    2254.75 seconds =      37.58 minutes
	system time =     107.80 seconds =       1.80 minutes
	total time  =        170 seconds =       2.83 minutes

         ----------------------------------------------------------
                                   FINDIF
                     R. A. King and Jonathon Misiewicz
         ---------------------------------------------------------

  Computing second-derivative from gradients using projected, 
  symmetry-adapted, cartesian coordinates.

  13 gradients passed in, including the reference geometry.
  Generating complete list of displacements from unique ones.


-------------------------------------------------------------


  ==> Harmonic Vibrational Analysis <==

  non-mass-weighted Hessian:       Symmetric? True   Hermitian? True   Lin Dep Dim?  6 (0)
  projection of translations (True) and rotations (True) removed 6 degrees of freedom (6)
  total projector:                 Symmetric? True   Hermitian? True   Lin Dep Dim?  6 (6)
  mass-weighted Hessian:           Symmetric? True   Hermitian? True   Lin Dep Dim?  6 (0)
  pre-proj  low-frequency mode:    0.0000i [cm^-1]
  pre-proj  low-frequency mode:    0.0000i [cm^-1]
  pre-proj  low-frequency mode:    0.0000i [cm^-1]
  pre-proj  low-frequency mode:    0.0000  [cm^-1]
  pre-proj  low-frequency mode:    0.0000  [cm^-1]
  pre-proj  low-frequency mode:    0.0000  [cm^-1]
  pre-proj  all modes:['0.0000i' '0.0000i' '0.0000i' '0.0000' '0.0000' '0.0000' '1204.3758'
 '1275.9803' '1549.0928' '1771.3071' '2985.5581' '3063.1830']
  projected mass-weighted Hessian: Symmetric? True   Hermitian? True   Lin Dep Dim?  6 (6)
  post-proj low-frequency mode:    0.0000i [cm^-1] (TR)
  post-proj low-frequency mode:    0.0000i [cm^-1] (TR)
  post-proj low-frequency mode:    0.0000  [cm^-1] (TR)
  post-proj low-frequency mode:    0.0000  [cm^-1] (TR)
  post-proj low-frequency mode:    0.0000  [cm^-1] (TR)
  post-proj low-frequency mode:    0.0000  [cm^-1] (TR)
  post-proj  all modes:['0.0000i' '0.0000i' '0.0000' '0.0000' '0.0000' '0.0000' '1204.3758'
 '1275.9803' '1549.0928' '1771.3071' '2985.5581' '3063.1830']

  Vibration                       7                   8                   9           
  Freq [cm^-1]                1204.3758           1275.9803           1549.0928       
  Irrep                           A                   A                   A           
  Reduced mass [u]              1.3621              1.3350              1.1476        
  Force const [mDyne/A]         1.1641              1.2806              1.6225        
  Turning point v=0 [a0]        0.2709              0.2659              0.2602        
  RMS dev v=0 [a0 u^1/2]        0.2236              0.2172              0.1971        
  Char temp [K]               1732.8286           1835.8516           2228.7997       
  ----------------------------------------------------------------------------------
      1   C               -0.02 -0.04 -0.17   -0.02 -0.14  0.03    0.02 -0.00 -0.00   
      2   O                0.00  0.01  0.04    0.01  0.08 -0.02   -0.09  0.01  0.01   
      3   H                0.06  0.16  0.67    0.67  0.15 -0.10    0.65  0.24 -0.12   
      4   H                0.06  0.16  0.67   -0.62  0.32 -0.02    0.57 -0.41  0.04   

  Vibration                       10                  11                  12          
  Freq [cm^-1]                1771.3071           2985.5581           3063.1830       
  Irrep                           A                   A                   A           
  Reduced mass [u]              5.9543              1.0442              1.1218        
  Force const [mDyne/A]        11.0070              5.4838              6.2017        
  Turning point v=0 [a0]        0.1068              0.1965              0.1872        
  RMS dev v=0 [a0 u^1/2]        0.1844              0.1420              0.1402        
  Char temp [K]               2548.5165           4295.5533           4407.2383       
  ----------------------------------------------------------------------------------
      1   C                0.52 -0.07 -0.03    0.06 -0.01 -0.00   -0.01 -0.10  0.02   
      2   O               -0.35  0.05  0.02    0.00 -0.00 -0.00    0.00  0.00 -0.00   
      3   H               -0.35 -0.40  0.13   -0.27  0.64 -0.12   -0.29  0.63 -0.12   
      4   H               -0.24  0.48 -0.09   -0.41 -0.55  0.17    0.43  0.53 -0.17   

  ==> Thermochemistry Components <==

  Entropy, S
    Electronic S            0.000 [cal/(mol K)]        0.000 [J/(mol K)]       0.00000000 [mEh/K] (multiplicity = 1)
    Translational S        36.130 [cal/(mol K)]      151.169 [J/(mol K)]       0.05757719 [mEh/K] (mol. weight = 30.0106 [u], P = 101325.00 [Pa])
    Rotational S           17.380 [cal/(mol K)]       72.717 [J/(mol K)]       0.02769638 [mEh/K] (symmetry no. = 1)
    Vibrational S           0.084 [cal/(mol K)]        0.352 [J/(mol K)]       0.00013394 [mEh/K]
  Total S                  53.594 [cal/(mol K)]      224.237 [J/(mol K)]       0.08540751 [mEh/K]
  Correction S              0.000 [cal/(mol K)]        0.000 [J/(mol K)]       0.00000000 [mEh/K]

  Constant volume heat capacity, Cv
    Electronic Cv           0.000 [cal/(mol K)]        0.000 [J/(mol K)]       0.00000000 [mEh/K]
    Translational Cv        2.981 [cal/(mol K)]       12.472 [J/(mol K)]       0.00475022 [mEh/K]
    Rotational Cv           2.981 [cal/(mol K)]       12.472 [J/(mol K)]       0.00475022 [mEh/K]
    Vibrational Cv          0.454 [cal/(mol K)]        1.899 [J/(mol K)]       0.00072323 [mEh/K]
  Total Cv                  6.415 [cal/(mol K)]       26.842 [J/(mol K)]       0.01022366 [mEh/K]
  Correction Cv             0.000 [cal/(mol K)]        0.000 [J/(mol K)]       0.00000000 [mEh/K]

  Constant pressure heat capacity, Cp
    Electronic Cp           0.000 [cal/(mol K)]        0.000 [J/(mol K)]       0.00000000 [mEh/K]
    Translational Cp        4.968 [cal/(mol K)]       20.786 [J/(mol K)]       0.00791703 [mEh/K]
    Rotational Cp           2.981 [cal/(mol K)]       12.472 [J/(mol K)]       0.00475022 [mEh/K]
    Vibrational Cp          0.454 [cal/(mol K)]        1.899 [J/(mol K)]       0.00072323 [mEh/K]
  Total Cp                  8.403 [cal/(mol K)]       35.157 [J/(mol K)]       0.01339047 [mEh/K]
  Correction Cp             0.000 [cal/(mol K)]        0.000 [J/(mol K)]       0.00000000 [mEh/K]

  ==> Thermochemistry Energy Analysis <==

  Raw electronic energy, E0
  Total E0, Electronic energy at well bottom at 0 [K]                 -114.40716926 [Eh]

  Zero-point energy, ZPE_vib = Sum_i nu_i / 2
    Electronic ZPE          0.000 [kcal/mol]        0.000 [kJ/mol]       0.00000000 [Eh]
    Translational ZPE       0.000 [kcal/mol]        0.000 [kJ/mol]       0.00000000 [Eh]
    Rotational ZPE          0.000 [kcal/mol]        0.000 [kJ/mol]       0.00000000 [Eh]
    Vibrational ZPE        16.940 [kcal/mol]       70.876 [kJ/mol]       0.02699514 [Eh]        5924.748 [cm^-1]
  Correction ZPE           16.940 [kcal/mol]       70.876 [kJ/mol]       0.02699514 [Eh]        5924.748 [cm^-1]
  Total ZPE, Electronic energy at 0 [K]                               -114.38017412 [Eh]

  Thermal Energy, E (includes ZPE)
    Electronic E            0.000 [kcal/mol]        0.000 [kJ/mol]       0.00000000 [Eh]
    Translational E         0.889 [kcal/mol]        3.718 [kJ/mol]       0.00141628 [Eh]
    Rotational E            0.889 [kcal/mol]        3.718 [kJ/mol]       0.00141628 [Eh]
    Vibrational E          16.961 [kcal/mol]       70.966 [kJ/mol]       0.02702953 [Eh]
  Correction E             18.739 [kcal/mol]       78.403 [kJ/mol]       0.02986208 [Eh]
  Total E, Electronic energy at  298.15 [K]                           -114.37730718 [Eh]

  Enthalpy, H_trans = E_trans + k_B * T
    Electronic H            0.000 [kcal/mol]        0.000 [kJ/mol]       0.00000000 [Eh]
    Translational H         1.481 [kcal/mol]        6.197 [kJ/mol]       0.00236046 [Eh]
    Rotational H            0.889 [kcal/mol]        3.718 [kJ/mol]       0.00141628 [Eh]
    Vibrational H          16.961 [kcal/mol]       70.966 [kJ/mol]       0.02702953 [Eh]
  Correction H             19.331 [kcal/mol]       80.882 [kJ/mol]       0.03080626 [Eh]
  Total H, Enthalpy at  298.15 [K]                                    -114.37636300 [Eh]

  Gibbs free energy, G = H - T * S
    Electronic G            0.000 [kcal/mol]        0.000 [kJ/mol]       0.00000000 [Eh]
    Translational G        -9.291 [kcal/mol]      -38.874 [kJ/mol]      -0.01480618 [Eh]
    Rotational G           -4.293 [kcal/mol]      -17.962 [kJ/mol]      -0.00684140 [Eh]
    Vibrational G          16.936 [kcal/mol]       70.861 [kJ/mol]       0.02698959 [Eh]
  Correction G              3.352 [kcal/mol]       14.025 [kJ/mol]       0.00534201 [Eh]
  Total G, Free enthalpy at  298.15 [K]                               -114.40182725 [Eh]

    Psi4 stopped on: Monday, 19 April 2021 04:15PM
    Psi4 wall time for execution: 0:02:49.83

*** Psi4 exiting successfully. Buy a developer a beer!
