
    -----------------------------------------------------------------------
          Psi4: An Open-Source Ab Initio Electronic Structure Package
                               Psi4 1.3.2 release

                         Git: Rev {HEAD} ecbda83 


    R. M. Parrish, L. A. Burns, D. G. A. Smith, A. C. Simmonett,
    A. E. DePrince III, E. G. Hohenstein, U. Bozkaya, A. Yu. Sokolov,
    R. Di Remigio, R. M. Richard, J. F. Gonthier, A. M. James,
    H. R. McAlexander, A. Kumar, M. Saitow, X. Wang, B. P. Pritchard,
    P. Verma, H. F. Schaefer III, K. Patkowski, R. A. King, E. F. Valeev,
    F. A. Evangelista, J. M. Turney, T. D. Crawford, and C. D. Sherrill,
    J. Chem. Theory Comput. 13(7) pp 3185--3197 (2017).
    (doi: 10.1021/acs.jctc.7b00174)


                         Additional Contributions by
    P. Kraus, H. Kruse, M. H. Lechner, M. C. Schieber, R. A. Shaw,
    A. Alenaizan, R. Galvelis, Z. L. Glick, S. Lehtola, and J. P. Misiewicz

    -----------------------------------------------------------------------


    Psi4 started on: Monday, 19 April 2021 04:13PM

    Process ID: 44526
    Host:       bp1-compute00190.data.bp.acrc.priv
    PSIDATADIR: /work/zw18965/.conda/envs/p4env/share/psi4
    Memory:     500.0 MiB
    Threads:    24
    
  ==> Input File <==

--------------------------------------------------------------------------
memory 144 GB

molecule {
0 1
S    -0.001427249147   0.605319027500   0.000000000000
H     0.960281633594  -0.300388517999   0.000000000000
H    -0.958854384446  -0.304930504209   0.000000000000}

set basis aug-cc-pV(Q+d)Z
 
optimize("MP2")
frequencies("MP2")--------------------------------------------------------------------------

  Memory set to 134.110 GiB by Python driver.
gradient() will perform analytic gradient computation.
    SCF Algorithm Type (re)set to DF.

*** tstart() called on bp1-compute00190.data.bp.acrc.priv
*** at Mon Apr 19 16:13:35 2021

   => Loading Basis Set <=

    Name: AUG-CC-PV(Q+D)Z
    Role: ORBITAL
    Keyword: BASIS
    atoms 1   entry S          line  1148 file /work/zw18965/.conda/envs/p4env/share/psi4/basis/aug-cc-pv_qpd_z.gbs 
    atoms 2-3 entry H          line    56 file /work/zw18965/.conda/envs/p4env/share/psi4/basis/aug-cc-pv_qpd_z.gbs 


         ---------------------------------------------------------
                                   SCF
               by Justin Turney, Rob Parrish, Andy Simmonett
                          and Daniel G. A. Smith
                              RHF Reference
                       24 Threads, 137329 MiB Core
         ---------------------------------------------------------

  ==> Geometry <==

    Molecular point group: cs
    Full point group: Cs

    Geometry (in Angstrom), charge = 0, multiplicity = 1:

       Center              X                  Y                   Z               Mass       
    ------------   -----------------  -----------------  -----------------  -----------------
         S           -0.000126965036     0.053847887801     0.000000000000    31.972071174400
         H            0.961581917705    -0.851859657698     0.000000000000     1.007825032230
         H           -0.957554100335    -0.856401643908     0.000000000000     1.007825032230

  Running in cs symmetry.

  Rotational constants: A =     10.78398  B =      9.08296  C =      4.93032 [cm^-1]
  Rotational constants: A = 323295.57316  B = 272300.29296  C = 147807.40481 [MHz]
  Nuclear repulsion =   13.093959376562303

  Charge       = 0
  Multiplicity = 1
  Electrons    = 18
  Nalpha       = 9
  Nbeta        = 9

  ==> Algorithm <==

  SCF Algorithm Type is DF.
  DIIS enabled.
  MOM disabled.
  Fractional occupation disabled.
  Guess Type is SAD.
  Energy threshold   = 1.00e-10
  Density threshold  = 1.00e-10
  Integral threshold = 0.00e+00

  ==> Primary Basis <==

  Basis Set: AUG-CC-PV(Q+D)Z
    Blend: AUG-CC-PV(Q+D)Z
    Number of shells: 51
    Number of basis function: 181
    Number of Cartesian functions: 225
    Spherical Harmonics?: true
    Max angular momentum: 4

   => Loading Basis Set <=

    Name: (AUG-CC-PV(Q+D)Z AUX)
    Role: JKFIT
    Keyword: DF_BASIS_SCF
    atoms 1   entry S          line   810 file /work/zw18965/.conda/envs/p4env/share/psi4/basis/aug-cc-pvqz-jkfit.gbs 
    atoms 2-3 entry H          line    70 file /work/zw18965/.conda/envs/p4env/share/psi4/basis/aug-cc-pvqz-jkfit.gbs 

  ==> Pre-Iterations <==

   -------------------------------------------------------
    Irrep   Nso     Nmo     Nalpha   Nbeta   Ndocc  Nsocc
   -------------------------------------------------------
     A'       116     116       0       0       0       0
     A"        65      65       0       0       0       0
   -------------------------------------------------------
    Total     181     181       9       9       9       0
   -------------------------------------------------------

  ==> Integral Setup <==

  DFHelper Memory: AOs need 0.097 GiB; user supplied 100.583 GiB. Using in-core AOs.

  ==> MemDFJK: Density-Fitted J/K Matrices <==

    J tasked:                   Yes
    K tasked:                   Yes
    wK tasked:                   No
    OpenMP threads:              24
    Memory [MiB]:            102996
    Algorithm:                 Core
    Schwarz Cutoff:           1E-12
    Mask sparsity (%):       0.0000
    Fitting Condition:        1E-10

   => Auxiliary Basis Set <=

  Basis Set: (AUG-CC-PV(Q+D)Z AUX)
    Blend: AUG-CC-PVQZ-JKFIT
    Number of shells: 82
    Number of basis function: 336
    Number of Cartesian functions: 449
    Spherical Harmonics?: true
    Max angular momentum: 5

  Minimum eigenvalue in the overlap matrix is 6.1525421247E-05.
  Using Symmetric Orthogonalization.

  SCF Guess: Superposition of Atomic Densities via on-the-fly atomic UHF.

  ==> Iterations <==

                           Total Energy        Delta E     RMS |[F,P]|

   @DF-RHF iter SAD:  -398.43695142279739   -3.98437e+02   0.00000e+00 
   @DF-RHF iter   1:  -398.68490816323634   -2.47957e-01   1.66837e-03 DIIS
   @DF-RHF iter   2:  -398.71494608145724   -3.00379e-02   6.30707e-04 DIIS
   @DF-RHF iter   3:  -398.71865601498865   -3.70993e-03   1.59284e-04 DIIS
   @DF-RHF iter   4:  -398.71941328079566   -7.57266e-04   3.70527e-05 DIIS
   @DF-RHF iter   5:  -398.71945935131527   -4.60705e-05   5.70637e-06 DIIS
   @DF-RHF iter   6:  -398.71946033986302   -9.88548e-07   1.30165e-06 DIIS
   @DF-RHF iter   7:  -398.71946039292629   -5.30633e-08   3.78198e-07 DIIS
   @DF-RHF iter   8:  -398.71946039630598   -3.37968e-09   8.04042e-08 DIIS
   @DF-RHF iter   9:  -398.71946039649856   -1.92586e-10   1.28590e-08 DIIS
   @DF-RHF iter  10:  -398.71946039650334   -4.77485e-12   2.34478e-09 DIIS
   @DF-RHF iter  11:  -398.71946039650305    2.84217e-13   3.57886e-10 DIIS
   @DF-RHF iter  12:  -398.71946039650373   -6.82121e-13   5.24486e-11 DIIS
  Energy and wave function converged.


  ==> Post-Iterations <==

    Orbital Energies [Eh]
    ---------------------

    Doubly Occupied:                                                      

       1Ap   -91.961737     2Ap    -8.965591     3Ap    -6.647233  
       4Ap    -6.646447     1App   -6.645271     5Ap    -0.985576  
       6Ap    -0.596985     7Ap    -0.501738     2App   -0.385360  

    Virtual:                                                              

       8Ap     0.025236     9Ap     0.043635    10Ap     0.075320  
       3App    0.084145    11Ap     0.098336    12Ap     0.118983  
      13Ap     0.149468    14Ap     0.176765    15Ap     0.188473  
       4App    0.194039     5App    0.197302    16Ap     0.231848  
      17Ap     0.254654    18Ap     0.263207    19Ap     0.268550  
       6App    0.272109     7App    0.277066    20Ap     0.297824  
      21Ap     0.317374    22Ap     0.423618    23Ap     0.424991  
      24Ap     0.440137     8App    0.446366    25Ap     0.472459  
       9App    0.487947    10App    0.499399    11App    0.553829  
      26Ap     0.594796    27Ap     0.613526    28Ap     0.620276  
      29Ap     0.642703    30Ap     0.650895    12App    0.657605  
      13App    0.658083    31Ap     0.716373    32Ap     0.722312  
      33Ap     0.737429    14App    0.750450    34Ap     0.751124  
      15App    0.752153    35Ap     0.799020    16App    0.812332  
      17App    0.813058    36Ap     0.813254    37Ap     0.912152  
      38Ap     0.982739    39Ap     0.993613    40Ap     1.209164  
      41Ap     1.218617    18App    1.227356    19App    1.232245  
      42Ap     1.247710    43Ap     1.251111    44Ap     1.338567  
      20App    1.345401    21App    1.354066    45Ap     1.456246  
      46Ap     1.482585    22App    1.516650    23App    1.548400  
      47Ap     1.548460    48Ap     1.567796    49Ap     1.599220  
      24App    1.614216    25App    1.626263    26App    1.642797  
      50Ap     1.649009    51Ap     1.655822    27App    1.660324  
      52Ap     1.673113    53Ap     1.737663    28App    1.780321  
      54Ap     1.788107    29App    1.788450    55Ap     1.810060  
      30App    1.818874    56Ap     1.857806    57Ap     1.885804  
      31App    1.933673    58Ap     1.933889    59Ap     1.979474  
      60Ap     2.051217    32App    2.055767    61Ap     2.059821  
      62Ap     2.158066    33App    2.194191    34App    2.293698  
      63Ap     2.316147    64Ap     2.370675    35App    2.371205  
      65Ap     2.490606    66Ap     2.514744    67Ap     2.551890  
      68Ap     2.832827    36App    2.850027    69Ap     2.893017  
      70Ap     2.929445    37App    2.931742    38App    3.002299  
      71Ap     3.069222    39App    3.076402    72Ap     3.145782  
      73Ap     3.169644    40App    3.195869    41App    3.255289  
      74Ap     3.325063    75Ap     3.484951    76Ap     3.599682  
      77Ap     3.609682    42App    3.620837    43App    3.631486  
      78Ap     3.656127    44App    3.703111    79Ap     3.775148  
      80Ap     3.801006    81Ap     3.892141    82Ap     3.900365  
      45App    3.933083    46App    3.968179    83Ap     4.011235  
      47App    4.035108    48App    4.064992    84Ap     4.126252  
      85Ap     4.396414    86Ap     4.399786    49App    4.589489  
      87Ap     4.619556    88Ap     4.729317    50App    4.794018  
      89Ap     4.885657    90Ap     4.935457    51App    6.032670  
      91Ap     6.619457    52App    6.620930    53App    6.646493  
      92Ap     6.679203    93Ap     6.825773    94Ap     6.852327  
      54App    6.940421    95Ap     7.040046    55App    7.133341  
      96Ap     7.162615    97Ap     7.362548    98Ap     7.402064  
      56App    7.447201    57App    7.448752    99Ap     7.634285  
     100Ap     7.753569   101Ap     8.276007   102Ap     8.281340  
      58App    8.624429    59App    8.634612   103Ap     8.650852  
     104Ap     8.677258    60App    8.678771    61App    8.777729  
     105Ap     8.909737   106Ap     8.944363    62App    9.269054  
      63App    9.312573   107Ap     9.374564   108Ap     9.556612  
     109Ap     9.619751    64App    9.643626    65App    9.651296  
     110Ap     9.725994   111Ap     9.809119   112Ap     9.835120  
     113Ap    10.202729   114Ap    10.958026   115Ap    11.983273  
     116Ap    22.254342  

    Final Occupation by Irrep:
             Ap   App 
    DOCC [     7,    2 ]

  @DF-RHF Final Energy:  -398.71946039650373

   => Energetics <=

    Nuclear Repulsion Energy =             13.0939593765623030
    One-Electron Energy =                -576.9549657757381738
    Two-Electron Energy =                 165.1415460026721007
    Total Energy =                       -398.7194603965037345

Computation Completed


Properties will be evaluated at   0.000000,   0.000000,   0.000000 [a0]

Properties computed using the SCF density matrix

  Nuclear Dipole Moment: [e a0]
     X:     0.0038      Y:    -1.6000      Z:     0.0000

  Electronic Dipole Moment: [e a0]
     X:    -0.0028      Y:     1.1778      Z:     0.0000

  Dipole Moment: [e a0]
     X:     0.0010      Y:    -0.4222      Z:     0.0000     Total:     0.4222

  Dipole Moment: [D]
     X:     0.0025      Y:    -1.0732      Z:     0.0000     Total:     1.0732


*** tstop() called on bp1-compute00190.data.bp.acrc.priv at Mon Apr 19 16:13:37 2021
Module time:
	user time   =      25.57 seconds =       0.43 minutes
	system time =       1.08 seconds =       0.02 minutes
	total time  =          2 seconds =       0.03 minutes
Total time:
	user time   =      25.57 seconds =       0.43 minutes
	system time =       1.08 seconds =       0.02 minutes
	total time  =          2 seconds =       0.03 minutes

*** tstart() called on bp1-compute00190.data.bp.acrc.priv
*** at Mon Apr 19 16:13:37 2021


  //>>>>>>>>>>>>>>>>>>>>>>>>>>>>>>>>>>>//
  //               DFMP2               //
  //<<<<<<<<<<<<<<<<<<<<<<<<<<<<<<<<<<<//

   => Loading Basis Set <=

    Name: (AUG-CC-PV(Q+D)Z AUX)
    Role: RIFIT
    Keyword: DF_BASIS_MP2
    atoms 1   entry S          line   824 file /work/zw18965/.conda/envs/p4env/share/psi4/basis/aug-cc-pvqz-ri.gbs 
    atoms 2-3 entry H          line    30 file /work/zw18965/.conda/envs/p4env/share/psi4/basis/aug-cc-pvqz-ri.gbs 

	 --------------------------------------------------------
	                          DF-MP2                         
	      2nd-Order Density-Fitted Moller-Plesset Theory     
	              RMP2 Wavefunction,  24 Threads             
	                                                         
	        Rob Parrish, Justin Turney, Andy Simmonett,      
	           Ed Hohenstein, and C. David Sherrill          
	 --------------------------------------------------------

   => Auxiliary Basis Set <=

  Basis Set: (AUG-CC-PV(Q+D)Z AUX)
    Blend: AUG-CC-PVQZ-RI
    Number of shells: 84
    Number of basis function: 354
    Number of Cartesian functions: 478
    Spherical Harmonics?: true
    Max angular momentum: 5

	 --------------------------------------------------------
	                 NBF =   181, NAUX =   354
	 --------------------------------------------------------
	   CLASS    FOCC     OCC    AOCC    AVIR     VIR    FVIR
	   PAIRS       0       9       9     172     172       0
	 --------------------------------------------------------

  DFHelper Memory: AOs need 0.097 GiB; user supplied 100.583 GiB. Using in-core AOs.


         ------------------------------------------------------------
                                     CPHF                           
                                  Rob Parrish                       
         ------------------------------------------------------------

  ==> Geometry <==

    Molecular point group: cs
    Full point group: Cs

    Geometry (in Angstrom), charge = 0, multiplicity = 1:

       Center              X                  Y                   Z               Mass       
    ------------   -----------------  -----------------  -----------------  -----------------
         S           -0.000126965036     0.053847887801     0.000000000000    31.972071174400
         H            0.961581917705    -0.851859657698     0.000000000000     1.007825032230
         H           -0.957554100335    -0.856401643908     0.000000000000     1.007825032230

  Nuclear repulsion =   13.093959376562303
  Reference energy  = -398.719460396503735

  ==> Basis Set <==

  Basis Set: AUG-CC-PV(Q+D)Z
    Blend: AUG-CC-PV(Q+D)Z
    Number of shells: 51
    Number of basis function: 181
    Number of Cartesian functions: 225
    Spherical Harmonics?: true
    Max angular momentum: 4

  ==> CGRSolver (by Rob Parrish) <==

   Number of roots    =         1
   Preconditioning    =    JACOBI
   Convergence cutoff =     1E-06
   Maximum iterations =       100

  ==> CPHFRHamiltonian (by Rob Parrish) <== 

  ==> MemDFJK: Density-Fitted J/K Matrices <==

    J tasked:                   Yes
    K tasked:                   Yes
    wK tasked:                   No
    OpenMP threads:              24
    Memory [MiB]:            102996
    Algorithm:                 Core
    Schwarz Cutoff:           1E-12
    Mask sparsity (%):       0.0000
    Fitting Condition:        1E-10

   => Auxiliary Basis Set <=

  Basis Set: (AUG-CC-PV(Q+D)Z AUX)
    Blend: AUG-CC-PVQZ-JKFIT
    Number of shells: 82
    Number of basis function: 336
    Number of Cartesian functions: 449
    Spherical Harmonics?: true
    Max angular momentum: 5

  ==> CPHF Iterations <==

  => Iterations <=

             Iter  Converged  Remaining    Residual
  CGR           1          0          1   5.662E-02
  CGR           2          0          1   1.602E-02
  CGR           3          0          1   4.918E-03
  CGR           4          0          1   7.901E-04
  CGR           5          0          1   2.920E-04
  CGR           6          0          1   5.826E-05
  CGR           7          0          1   4.962E-06
  CGR           8          1          0   9.454E-07

    CGRSolver converged.

  ==> DFCorrGrad: Density-Fitted Correlated Gradients <==

    OpenMP threads:             24
    Integrals threads:          24
    Memory [GiB]:          100.583
    Schwarz Cutoff:          0E+00
    Fitting Condition:       1E-10

   => Auxiliary Basis Set <=

  Basis Set: (AUG-CC-PV(Q+D)Z AUX)
    Blend: AUG-CC-PVQZ-JKFIT
    Number of shells: 82
    Number of basis function: 336
    Number of Cartesian functions: 449
    Spherical Harmonics?: true
    Max angular momentum: 5

	-----------------------------------------------------------
	 ==================> DF-MP2 Energies <==================== 
	-----------------------------------------------------------
	 Reference Energy          =    -398.7194603965037345 [Eh]
	 Singles Energy            =      -0.0000000000000000 [Eh]
	 Same-Spin Energy          =      -0.0804815106843387 [Eh]
	 Opposite-Spin Energy      =      -0.2538343088597945 [Eh]
	 Correlation Energy        =      -0.3343158195441333 [Eh]
	 Total Energy              =    -399.0537762160478792 [Eh]
	-----------------------------------------------------------
	 ================> DF-SCS-MP2 Energies <================== 
	-----------------------------------------------------------
	 SCS Same-Spin Scale       =       0.3333333333333333 [-]
	 SCS Opposite-Spin Scale   =       1.2000000000000000 [-]
	 SCS Same-Spin Energy      =      -0.0268271702281129 [Eh]
	 SCS Opposite-Spin Energy  =      -0.3046011706317534 [Eh]
	 SCS Correlation Energy    =      -0.3314283408598663 [Eh]
	 SCS Total Energy          =    -399.0508887373636071 [Eh]
	-----------------------------------------------------------


  -Total Gradient:
     Atom            X                  Y                   Z
    ------   -----------------  -----------------  -----------------
       1        0.000024246522    -0.008220092506     0.000000000000
       2       -0.002685603668     0.004106020612     0.000000000000
       3        0.002661357147     0.004114071894     0.000000000000


*** tstop() called on bp1-compute00190.data.bp.acrc.priv at Mon Apr 19 16:13:43 2021
Module time:
	user time   =      72.41 seconds =       1.21 minutes
	system time =       3.98 seconds =       0.07 minutes
	total time  =          6 seconds =       0.10 minutes
Total time:
	user time   =      97.99 seconds =       1.63 minutes
	system time =       5.06 seconds =       0.08 minutes
	total time  =          8 seconds =       0.13 minutes

			-----------------------------------------
			 OPTKING 2.0: for geometry optimizations 
			  - R.A. King,  Bethel University        
			-----------------------------------------

	Internal coordinates to be generated automatically.
	Detected frag 1 with atoms:  1 2 3
	---Fragment 1 Bond Connectivity---
	 1 : 2 3
	 2 : 1
	 3 : 1

	---Fragment 1 Geometry and Gradient---
	 S          -0.0002399291        0.1017577604        0.0000000000
	 H           1.8171264717       -1.6097814504        0.0000000000
	 H          -1.8095149999       -1.6183645604        0.0000000000
	             0.0000242465       -0.0082200925        0.0000000000
	            -0.0026856037        0.0041060206        0.0000000000
	             0.0026613571        0.0041140719        0.0000000000

	Previous optimization step data not found.  Starting new optimization.

	---Fragment 1 Intrafragment Coordinates---
	 - Coordinate -           - BOHR/RAD -       - ANG/DEG -
	 R(1,2)           =         2.496435	       1.321056
	 R(1,3)           =         2.496457	       1.321068
	 B(2,1,3)         =         1.626031	      93.164696

	Current energy   :      -399.0537762160

	Generating empirical Hessian (Schlegel '84) for each fragment.
	Taking RFO optimization step.
	Going to follow RFO solution 1.
	Using RFO vector 1.
	Norm of target step-size    0.02998
	Projected energy change by RFO approximation:        -0.0006618898

	Back-transformation to cartesian coordinates...
	Successfully converged to displaced geometry.

	--- Internal Coordinate Step in ANG or DEG, aJ/ANG or AJ/DEG ---
	 ---------------------------------------------------------------------------
	   Coordinate                Previous        Force       Change         New 
	   ----------                --------       ------       ------       ------
	    1 R(1,2)          =      1.321056     0.039300     0.009009     1.330065
	    2 R(1,3)          =      1.321068     0.039245     0.008997     1.330065
	    3 B(2,1,3)        =     93.164696    -0.000218    -1.024810    92.139886
	 ---------------------------------------------------------------------------
	Successfully symmetrized geometry.

  ==> Convergence Check <==

  Measures of convergence in internal coordinates in au.
  Criteria marked as inactive (o), active & met (*), and active & unmet ( ).
  --------------------------------------------------------------------------------------------- ~
   Step     Total Energy     Delta E     MAX Force     RMS Force      MAX Disp      RMS Disp    ~
  --------------------------------------------------------------------------------------------- ~
    Convergence Criteria    1.00e-06 *    3.00e-04 *             o    1.20e-03 *             o  ~
  --------------------------------------------------------------------------------------------- ~
      1    -399.05377622   -3.99e+02      4.77e-03      4.23e-03 o    1.79e-02      1.73e-02 o  ~
  ---------------------------------------------------------------------------------------------

	Writing optimization data to binary file.
	Structure for next step:
	Cartesian Geometry (in Angstrom)
	    S    -0.0001545933   0.0637086571   0.0000000000
	    H     0.9599210457  -0.8567960738   0.0000000000
	    H    -0.9558656000  -0.8613259906   0.0000000000
			--------------------------
			 OPTKING Finished Execution 
			--------------------------

    Structure for next step:
    Molecular point group: cs
    Full point group: Cs

    Geometry (in Angstrom), charge = 0, multiplicity = 1:

    S           -0.000129422792     0.054725080800     0.000000000000
    H            0.959946219993    -0.865779653735     0.000000000000
    H           -0.955840433200    -0.870309570498     0.000000000000

gradient() will perform analytic gradient computation.
    SCF Algorithm Type (re)set to DF.

*** tstart() called on bp1-compute00190.data.bp.acrc.priv
*** at Mon Apr 19 16:13:43 2021

   => Loading Basis Set <=

    Name: AUG-CC-PV(Q+D)Z
    Role: ORBITAL
    Keyword: BASIS
    atoms 1   entry S          line  1148 file /work/zw18965/.conda/envs/p4env/share/psi4/basis/aug-cc-pv_qpd_z.gbs 
    atoms 2-3 entry H          line    56 file /work/zw18965/.conda/envs/p4env/share/psi4/basis/aug-cc-pv_qpd_z.gbs 


         ---------------------------------------------------------
                                   SCF
               by Justin Turney, Rob Parrish, Andy Simmonett
                          and Daniel G. A. Smith
                              RHF Reference
                       24 Threads, 137329 MiB Core
         ---------------------------------------------------------

  ==> Geometry <==

    Molecular point group: cs
    Full point group: Cs

    Geometry (in Angstrom), charge = 0, multiplicity = 1:

       Center              X                  Y                   Z               Mass       
    ------------   -----------------  -----------------  -----------------  -----------------
         S           -0.000129422792     0.054725080800     0.000000000000    31.972071174400
         H            0.959946219993    -0.865779653735     0.000000000000     1.007825032230
         H           -0.955840433200    -0.870309570498     0.000000000000     1.007825032230

  Running in cs symmetry.

  Rotational constants: A =     10.44104  B =      9.11475  C =      4.86646 [cm^-1]
  Rotational constants: A = 313014.36256  B = 273253.25196  C = 145892.74652 [MHz]
  Nuclear repulsion =   13.007677688415178

  Charge       = 0
  Multiplicity = 1
  Electrons    = 18
  Nalpha       = 9
  Nbeta        = 9

  ==> Algorithm <==

  SCF Algorithm Type is DF.
  DIIS enabled.
  MOM disabled.
  Fractional occupation disabled.
  Guess Type is READ.
  Energy threshold   = 1.00e-10
  Density threshold  = 1.00e-10
  Integral threshold = 0.00e+00

  ==> Primary Basis <==

  Basis Set: AUG-CC-PV(Q+D)Z
    Blend: AUG-CC-PV(Q+D)Z
    Number of shells: 51
    Number of basis function: 181
    Number of Cartesian functions: 225
    Spherical Harmonics?: true
    Max angular momentum: 4

   => Loading Basis Set <=

    Name: (AUG-CC-PV(Q+D)Z AUX)
    Role: JKFIT
    Keyword: DF_BASIS_SCF
    atoms 1   entry S          line   810 file /work/zw18965/.conda/envs/p4env/share/psi4/basis/aug-cc-pvqz-jkfit.gbs 
    atoms 2-3 entry H          line    70 file /work/zw18965/.conda/envs/p4env/share/psi4/basis/aug-cc-pvqz-jkfit.gbs 

   => Loading Basis Set <=

    Name: AUG-CC-PV(Q+D)Z
    Role: ORBITAL
    Keyword: BASIS
    atoms 1   entry S          line  1148 file /work/zw18965/.conda/envs/p4env/share/psi4/basis/aug-cc-pv_qpd_z.gbs 
    atoms 2-3 entry H          line    56 file /work/zw18965/.conda/envs/p4env/share/psi4/basis/aug-cc-pv_qpd_z.gbs 

  Reading orbitals from file 180, no projection.

  ==> Pre-Iterations <==

   -------------------------------------------------------
    Irrep   Nso     Nmo     Nalpha   Nbeta   Ndocc  Nsocc
   -------------------------------------------------------
     A'       116     116       0       0       0       0
     A"        65      65       0       0       0       0
   -------------------------------------------------------
    Total     181     181       9       9       9       0
   -------------------------------------------------------

  ==> Integral Setup <==

  DFHelper Memory: AOs need 0.097 GiB; user supplied 100.583 GiB. Using in-core AOs.

  ==> MemDFJK: Density-Fitted J/K Matrices <==

    J tasked:                   Yes
    K tasked:                   Yes
    wK tasked:                   No
    OpenMP threads:              24
    Memory [MiB]:            102996
    Algorithm:                 Core
    Schwarz Cutoff:           1E-12
    Mask sparsity (%):       0.0000
    Fitting Condition:        1E-10

   => Auxiliary Basis Set <=

  Basis Set: (AUG-CC-PV(Q+D)Z AUX)
    Blend: AUG-CC-PVQZ-JKFIT
    Number of shells: 82
    Number of basis function: 336
    Number of Cartesian functions: 449
    Spherical Harmonics?: true
    Max angular momentum: 5

  Minimum eigenvalue in the overlap matrix is 6.3446884780E-05.
  Using Symmetric Orthogonalization.

  SCF Guess: Orbitals guess was supplied from a previous computation.

  ==> Iterations <==

                           Total Energy        Delta E     RMS |[F,P]|

   @DF-RHF iter   0:  -398.71116506092807   -3.98711e+02   1.71732e-04 
   @DF-RHF iter   1:  -398.71937844524871   -8.21338e-03   2.38872e-05 DIIS
   @DF-RHF iter   2:  -398.71938503309821   -6.58785e-06   8.61377e-06 DIIS
   @DF-RHF iter   3:  -398.71938551495595   -4.81858e-07   1.83119e-06 DIIS
   @DF-RHF iter   4:  -398.71938560523563   -9.02797e-08   4.53208e-07 DIIS
   @DF-RHF iter   5:  -398.71938561194554   -6.70991e-09   8.34708e-08 DIIS
   @DF-RHF iter   6:  -398.71938561216189   -2.16346e-10   2.23157e-08 DIIS
   @DF-RHF iter   7:  -398.71938561217127   -9.37916e-12   6.21307e-09 DIIS
   @DF-RHF iter   8:  -398.71938561217257   -1.30740e-12   1.35814e-09 DIIS
   @DF-RHF iter   9:  -398.71938561217297   -3.97904e-13   2.11035e-10 DIIS
   @DF-RHF iter  10:  -398.71938561217252    4.54747e-13   3.57020e-11 DIIS
  Energy and wave function converged.


  ==> Post-Iterations <==

    Orbital Energies [Eh]
    ---------------------

    Doubly Occupied:                                                      

       1Ap   -91.963221     2Ap    -8.966582     3Ap    -6.648181  
       4Ap    -6.647414     1App   -6.646258     5Ap    -0.983292  
       6Ap    -0.592110     7Ap    -0.502766     2App   -0.385325  

    Virtual:                                                              

       8Ap     0.025174     9Ap     0.043785    10Ap     0.075339  
       3App    0.084195    11Ap     0.097732    12Ap     0.118651  
      13Ap     0.148325    14Ap     0.177257    15Ap     0.187625  
       4App    0.194193     5App    0.196977    16Ap     0.231379  
      17Ap     0.254778    18Ap     0.263130    19Ap     0.267989  
       6App    0.272261     7App    0.276829    20Ap     0.297339  
      21Ap     0.316368    22Ap     0.424028    23Ap     0.424038  
      24Ap     0.441840     8App    0.445920    25Ap     0.471401  
       9App    0.489000    10App    0.499281    11App    0.553781  
      26Ap     0.594716    27Ap     0.613054    28Ap     0.619016  
      29Ap     0.641745    30Ap     0.650616    12App    0.656786  
      13App    0.657459    31Ap     0.715347    32Ap     0.722237  
      33Ap     0.736699    14App    0.750087    34Ap     0.750940  
      15App    0.752216    35Ap     0.798802    16App    0.809706  
      36Ap     0.812951    17App    0.816103    37Ap     0.910511  
      38Ap     0.980384    39Ap     0.992271    40Ap     1.210679  
      41Ap     1.220212    18App    1.226050    19App    1.232917  
      42Ap     1.244064    43Ap     1.251331    44Ap     1.334941  
      20App    1.343199    21App    1.350719    45Ap     1.454944  
      46Ap     1.482513    22App    1.516099    47Ap     1.547111  
      23App    1.548954    48Ap     1.565786    49Ap     1.598316  
      24App    1.612662    25App    1.628055    26App    1.644979  
      50Ap     1.651540    51Ap     1.654604    27App    1.658346  
      52Ap     1.673035    53Ap     1.734959    28App    1.776331  
      29App    1.786929    54Ap     1.787321    55Ap     1.809242  
      30App    1.818244    56Ap     1.853792    57Ap     1.879489  
      58Ap     1.929940    31App    1.941570    59Ap     1.976600  
      60Ap     2.046879    32App    2.056142    61Ap     2.065127  
      62Ap     2.167062    33App    2.194198    34App    2.290786  
      63Ap     2.318850    64Ap     2.364044    35App    2.364613  
      65Ap     2.492835    66Ap     2.512360    67Ap     2.538690  
      68Ap     2.823803    36App    2.840436    69Ap     2.881948  
      70Ap     2.924751    37App    2.928467    38App    2.992426  
      71Ap     3.062839    39App    3.067180    72Ap     3.140945  
      73Ap     3.167061    40App    3.194836    41App    3.245049  
      74Ap     3.314651    75Ap     3.483745    76Ap     3.605310  
      77Ap     3.607973    42App    3.622179    43App    3.631289  
      78Ap     3.654455    44App    3.705542    79Ap     3.761342  
      80Ap     3.800546    81Ap     3.883203    82Ap     3.891216  
      45App    3.927010    46App    3.964084    83Ap     4.008097  
      47App    4.023771    48App    4.065790    84Ap     4.117457  
      85Ap     4.390932    86Ap     4.397488    49App    4.584641  
      87Ap     4.601816    88Ap     4.723551    50App    4.779283  
      89Ap     4.873762    90Ap     4.927443    51App    6.013859  
      52App    6.620789    91Ap     6.620927    53App    6.648405  
      92Ap     6.677713    93Ap     6.825805    94Ap     6.845311  
      54App    6.925172    95Ap     7.021999    55App    7.127676  
      96Ap     7.144335    97Ap     7.360514    98Ap     7.408264  
      56App    7.433257    57App    7.439221    99Ap     7.623993  
     100Ap     7.728238   101Ap     8.252364   102Ap     8.255133  
      58App    8.612976    59App    8.622605   103Ap     8.632917  
      60App    8.668555   104Ap     8.671725    61App    8.765443  
     105Ap     8.899878   106Ap     8.940268    62App    9.263606  
      63App    9.301223   107Ap     9.339144   108Ap     9.561098  
     109Ap     9.614902    64App    9.638456    65App    9.639710  
     110Ap     9.717754   111Ap     9.802389   112Ap     9.826563  
     113Ap    10.205465   114Ap    10.910558   115Ap    11.896233  
     116Ap    22.101568  

    Final Occupation by Irrep:
             Ap   App 
    DOCC [     7,    2 ]

  @DF-RHF Final Energy:  -398.71938561217252

   => Energetics <=

    Nuclear Repulsion Energy =             13.0076776884151784
    One-Electron Energy =                -576.7838286232365590
    Two-Electron Energy =                 165.0567653226489426
    Total Energy =                       -398.7193856121724593

Computation Completed


Properties will be evaluated at   0.000000,   0.000000,   0.000000 [a0]

Properties computed using the SCF density matrix

  Nuclear Dipole Moment: [e a0]
     X:     0.0038      Y:    -1.6261      Z:     0.0000

  Electronic Dipole Moment: [e a0]
     X:    -0.0029      Y:     1.2052      Z:     0.0000

  Dipole Moment: [e a0]
     X:     0.0010      Y:    -0.4209      Z:     0.0000     Total:     0.4209

  Dipole Moment: [D]
     X:     0.0025      Y:    -1.0697      Z:     0.0000     Total:     1.0697


*** tstop() called on bp1-compute00190.data.bp.acrc.priv at Mon Apr 19 16:13:44 2021
Module time:
	user time   =      17.10 seconds =       0.28 minutes
	system time =       0.48 seconds =       0.01 minutes
	total time  =          1 seconds =       0.02 minutes
Total time:
	user time   =     115.27 seconds =       1.92 minutes
	system time =       5.54 seconds =       0.09 minutes
	total time  =          9 seconds =       0.15 minutes

*** tstart() called on bp1-compute00190.data.bp.acrc.priv
*** at Mon Apr 19 16:13:44 2021


  //>>>>>>>>>>>>>>>>>>>>>>>>>>>>>>>>>>>//
  //               DFMP2               //
  //<<<<<<<<<<<<<<<<<<<<<<<<<<<<<<<<<<<//

   => Loading Basis Set <=

    Name: (AUG-CC-PV(Q+D)Z AUX)
    Role: RIFIT
    Keyword: DF_BASIS_MP2
    atoms 1   entry S          line   824 file /work/zw18965/.conda/envs/p4env/share/psi4/basis/aug-cc-pvqz-ri.gbs 
    atoms 2-3 entry H          line    30 file /work/zw18965/.conda/envs/p4env/share/psi4/basis/aug-cc-pvqz-ri.gbs 

	 --------------------------------------------------------
	                          DF-MP2                         
	      2nd-Order Density-Fitted Moller-Plesset Theory     
	              RMP2 Wavefunction,  24 Threads             
	                                                         
	        Rob Parrish, Justin Turney, Andy Simmonett,      
	           Ed Hohenstein, and C. David Sherrill          
	 --------------------------------------------------------

   => Auxiliary Basis Set <=

  Basis Set: (AUG-CC-PV(Q+D)Z AUX)
    Blend: AUG-CC-PVQZ-RI
    Number of shells: 84
    Number of basis function: 354
    Number of Cartesian functions: 478
    Spherical Harmonics?: true
    Max angular momentum: 5

	 --------------------------------------------------------
	                 NBF =   181, NAUX =   354
	 --------------------------------------------------------
	   CLASS    FOCC     OCC    AOCC    AVIR     VIR    FVIR
	   PAIRS       0       9       9     172     172       0
	 --------------------------------------------------------

  DFHelper Memory: AOs need 0.097 GiB; user supplied 100.583 GiB. Using in-core AOs.


         ------------------------------------------------------------
                                     CPHF                           
                                  Rob Parrish                       
         ------------------------------------------------------------

  ==> Geometry <==

    Molecular point group: cs
    Full point group: Cs

    Geometry (in Angstrom), charge = 0, multiplicity = 1:

       Center              X                  Y                   Z               Mass       
    ------------   -----------------  -----------------  -----------------  -----------------
         S           -0.000129422792     0.054725080800     0.000000000000    31.972071174400
         H            0.959946219993    -0.865779653735     0.000000000000     1.007825032230
         H           -0.955840433200    -0.870309570498     0.000000000000     1.007825032230

  Nuclear repulsion =   13.007677688415178
  Reference energy  = -398.719385612172516

  ==> Basis Set <==

  Basis Set: AUG-CC-PV(Q+D)Z
    Blend: AUG-CC-PV(Q+D)Z
    Number of shells: 51
    Number of basis function: 181
    Number of Cartesian functions: 225
    Spherical Harmonics?: true
    Max angular momentum: 4

  ==> CGRSolver (by Rob Parrish) <==

   Number of roots    =         1
   Preconditioning    =    JACOBI
   Convergence cutoff =     1E-06
   Maximum iterations =       100

  ==> CPHFRHamiltonian (by Rob Parrish) <== 

  ==> MemDFJK: Density-Fitted J/K Matrices <==

    J tasked:                   Yes
    K tasked:                   Yes
    wK tasked:                   No
    OpenMP threads:              24
    Memory [MiB]:            102996
    Algorithm:                 Core
    Schwarz Cutoff:           1E-12
    Mask sparsity (%):       0.0000
    Fitting Condition:        1E-10

   => Auxiliary Basis Set <=

  Basis Set: (AUG-CC-PV(Q+D)Z AUX)
    Blend: AUG-CC-PVQZ-JKFIT
    Number of shells: 82
    Number of basis function: 336
    Number of Cartesian functions: 449
    Spherical Harmonics?: true
    Max angular momentum: 5

  ==> CPHF Iterations <==

  => Iterations <=

             Iter  Converged  Remaining    Residual
  CGR           1          0          1   5.718E-02
  CGR           2          0          1   1.629E-02
  CGR           3          0          1   4.958E-03
  CGR           4          0          1   7.912E-04
  CGR           5          0          1   2.983E-04
  CGR           6          0          1   6.035E-05
  CGR           7          0          1   5.153E-06
  CGR           8          1          0   9.706E-07

    CGRSolver converged.

  ==> DFCorrGrad: Density-Fitted Correlated Gradients <==

    OpenMP threads:             24
    Integrals threads:          24
    Memory [GiB]:          100.583
    Schwarz Cutoff:          0E+00
    Fitting Condition:       1E-10

   => Auxiliary Basis Set <=

  Basis Set: (AUG-CC-PV(Q+D)Z AUX)
    Blend: AUG-CC-PVQZ-JKFIT
    Number of shells: 82
    Number of basis function: 336
    Number of Cartesian functions: 449
    Spherical Harmonics?: true
    Max angular momentum: 5

	-----------------------------------------------------------
	 ==================> DF-MP2 Energies <==================== 
	-----------------------------------------------------------
	 Reference Energy          =    -398.7193856121725162 [Eh]
	 Singles Energy            =      -0.0000000000000000 [Eh]
	 Same-Spin Energy          =      -0.0805135925466606 [Eh]
	 Opposite-Spin Energy      =      -0.2539834009048888 [Eh]
	 Correlation Energy        =      -0.3344969934515494 [Eh]
	 Total Energy              =    -399.0538826056240396 [Eh]
	-----------------------------------------------------------
	 ================> DF-SCS-MP2 Energies <================== 
	-----------------------------------------------------------
	 SCS Same-Spin Scale       =       0.3333333333333333 [-]
	 SCS Opposite-Spin Scale   =       1.2000000000000000 [-]
	 SCS Same-Spin Energy      =      -0.0268378641822202 [Eh]
	 SCS Opposite-Spin Energy  =      -0.3047800810858666 [Eh]
	 SCS Correlation Energy    =      -0.3316179452680868 [Eh]
	 SCS Total Energy          =    -399.0510035574405947 [Eh]
	-----------------------------------------------------------


  -Total Gradient:
     Atom            X                  Y                   Z
    ------   -----------------  -----------------  -----------------
       1       -0.000000186317    -0.000018943813     0.000000000000
       2        0.000034714699     0.000009442423     0.000000000000
       3       -0.000034528382     0.000009501390     0.000000000000


*** tstop() called on bp1-compute00190.data.bp.acrc.priv at Mon Apr 19 16:13:51 2021
Module time:
	user time   =      71.94 seconds =       1.20 minutes
	system time =       3.85 seconds =       0.06 minutes
	total time  =          7 seconds =       0.12 minutes
Total time:
	user time   =     187.22 seconds =       3.12 minutes
	system time =       9.40 seconds =       0.16 minutes
	total time  =         16 seconds =       0.27 minutes

			-----------------------------------------
			 OPTKING 2.0: for geometry optimizations 
			  - R.A. King,  Bethel University        
			-----------------------------------------

	Previous internal coordinate definitions found.
	---Fragment 1 Geometry and Gradient---
	 S          -0.0002445736        0.1034154149        0.0000000000
	 H           1.8140354510       -1.6360864306        0.0000000000
	 H          -1.8062766384       -1.6446467326        0.0000000000
	            -0.0000001863       -0.0000189438        0.0000000000
	             0.0000347147        0.0000094424        0.0000000000
	            -0.0000345284        0.0000095014        0.0000000000

	---Fragment 1 Intrafragment Coordinates---
	 - Coordinate -           - BOHR/RAD -       - ANG/DEG -
	 R(1,2)           =         2.513460	       1.330065
	 R(1,3)           =         2.513458	       1.330065
	 B(2,1,3)         =         1.608144	      92.139886

	Current energy   :      -399.0538826056

	Energy change for the previous step:
		Projected    :        -0.0006618898
		Actual       :        -0.0001063896
	Energy ratio indicates iffy step: Trust radius decreased to 1.250e-01.


	Performing BFGS update.
	Previous computed or guess Hessian on step 1.
	Steps to be used in Hessian update: 1
	Taking RFO optimization step.
	Going to follow RFO solution 1.
	Using RFO vector 1.
	Norm of target step-size    0.00050
	Projected energy change by RFO approximation:        -0.0000000481

	Back-transformation to cartesian coordinates...
	Successfully converged to displaced geometry.

	--- Internal Coordinate Step in ANG or DEG, aJ/ANG or AJ/DEG ---
	 ---------------------------------------------------------------------------
	   Coordinate                Previous        Force       Change         New 
	   ----------                --------       ------       ------       ------
	    1 R(1,2)          =      1.330065    -0.000153    -0.000034     1.330032
	    2 R(1,3)          =      1.330065    -0.000150    -0.000033     1.330032
	    3 B(2,1,3)        =     92.139886    -0.000006    -0.028030    92.111856
	 ---------------------------------------------------------------------------
	Successfully symmetrized geometry.

  ==> Convergence Check <==

  Measures of convergence in internal coordinates in au.
  Criteria marked as inactive (o), active & met (*), and active & unmet ( ).
  ---------------------------------------------------------------------------------------------
   Step     Total Energy     Delta E     MAX Force     RMS Force      MAX Disp      RMS Disp   
  ---------------------------------------------------------------------------------------------
    Convergence Criteria    1.00e-06 *    3.00e-04 *             o    1.20e-03 *             o
  ---------------------------------------------------------------------------------------------
      2    -399.05388261   -1.06e-04      7.75e-05 *    4.72e-05 o    4.89e-04 *    2.87e-04 o  ~
  ---------------------------------------------------------------------------------------------


  **** Optimization is complete! (in 2 steps) ****

  ==> Optimization Summary <==

  Measures of convergence in internal coordinates in au.
  --------------------------------------------------------------------------------------------------------------- ~
   Step         Total Energy             Delta E       MAX Force       RMS Force        MAX Disp        RMS Disp  ~
  --------------------------------------------------------------------------------------------------------------- ~
      1    -399.053776216048   -399.053776216048      0.00477014      0.00422914      0.01788631      0.01730904  ~
      2    -399.053882605624     -0.000106389576      0.00007752      0.00004720      0.00048922      0.00028709  ~
  --------------------------------------------------------------------------------------------------------------- ~

	Writing optimization data to binary file.
	Final energy is   -399.0538826056240
	Final (previous) structure:
	Cartesian Geometry (in Angstrom)
	    S    -0.0001294228   0.0547250806   0.0000000000
	    H     0.9599462162  -0.8657796503   0.0000000000
	    H    -0.9558404294  -0.8703095671   0.0000000000
	Saving final (previous) structure.
			--------------------------
			 OPTKING Finished Execution 
			--------------------------

    Final optimized geometry and variables:
    Molecular point group: cs
    Full point group: Cs

    Geometry (in Angstrom), charge = 0, multiplicity = 1:

    S           -0.000129422792     0.054725080800     0.000000000000
    H            0.959946219993    -0.865779653735     0.000000000000
    H           -0.955840433200    -0.870309570498     0.000000000000

	Removing binary optimization data file.
	Cleaning optimization helper files.
gradient() will perform analytic gradient computation.
    SCF Algorithm Type (re)set to DF.

*** tstart() called on bp1-compute00190.data.bp.acrc.priv
*** at Mon Apr 19 16:13:51 2021

   => Loading Basis Set <=

    Name: AUG-CC-PV(Q+D)Z
    Role: ORBITAL
    Keyword: BASIS
    atoms 1   entry S          line  1148 file /work/zw18965/.conda/envs/p4env/share/psi4/basis/aug-cc-pv_qpd_z.gbs 
    atoms 2-3 entry H          line    56 file /work/zw18965/.conda/envs/p4env/share/psi4/basis/aug-cc-pv_qpd_z.gbs 


         ---------------------------------------------------------
                                   SCF
               by Justin Turney, Rob Parrish, Andy Simmonett
                          and Daniel G. A. Smith
                              RHF Reference
                       24 Threads, 137329 MiB Core
         ---------------------------------------------------------

  ==> Geometry <==

    Molecular point group: cs
    Full point group: Cs

    Geometry (in Angstrom), charge = 0, multiplicity = 1:

       Center              X                  Y                   Z               Mass       
    ------------   -----------------  -----------------  -----------------  -----------------
         S           -0.000129422792     0.054725080800     0.000000000000    31.972071174400
         H            0.959946219993    -0.865779653735     0.000000000000     1.007825032230
         H           -0.955840433200    -0.870309570498     0.000000000000     1.007825032230

  Running in cs symmetry.

  Rotational constants: A =     10.44104  B =      9.11475  C =      4.86646 [cm^-1]
  Rotational constants: A = 313014.36256  B = 273253.25196  C = 145892.74652 [MHz]
  Nuclear repulsion =   13.007677688415178

  Charge       = 0
  Multiplicity = 1
  Electrons    = 18
  Nalpha       = 9
  Nbeta        = 9

  ==> Algorithm <==

  SCF Algorithm Type is DF.
  DIIS enabled.
  MOM disabled.
  Fractional occupation disabled.
  Guess Type is SAD.
  Energy threshold   = 1.00e-10
  Density threshold  = 1.00e-10
  Integral threshold = 0.00e+00

  ==> Primary Basis <==

  Basis Set: AUG-CC-PV(Q+D)Z
    Blend: AUG-CC-PV(Q+D)Z
    Number of shells: 51
    Number of basis function: 181
    Number of Cartesian functions: 225
    Spherical Harmonics?: true
    Max angular momentum: 4

   => Loading Basis Set <=

    Name: (AUG-CC-PV(Q+D)Z AUX)
    Role: JKFIT
    Keyword: DF_BASIS_SCF
    atoms 1   entry S          line   810 file /work/zw18965/.conda/envs/p4env/share/psi4/basis/aug-cc-pvqz-jkfit.gbs 
    atoms 2-3 entry H          line    70 file /work/zw18965/.conda/envs/p4env/share/psi4/basis/aug-cc-pvqz-jkfit.gbs 

  ==> Pre-Iterations <==

   -------------------------------------------------------
    Irrep   Nso     Nmo     Nalpha   Nbeta   Ndocc  Nsocc
   -------------------------------------------------------
     A'       116     116       0       0       0       0
     A"        65      65       0       0       0       0
   -------------------------------------------------------
    Total     181     181       9       9       9       0
   -------------------------------------------------------

  ==> Integral Setup <==

  DFHelper Memory: AOs need 0.097 GiB; user supplied 100.583 GiB. Using in-core AOs.

  ==> MemDFJK: Density-Fitted J/K Matrices <==

    J tasked:                   Yes
    K tasked:                   Yes
    wK tasked:                   No
    OpenMP threads:              24
    Memory [MiB]:            102996
    Algorithm:                 Core
    Schwarz Cutoff:           1E-12
    Mask sparsity (%):       0.0000
    Fitting Condition:        1E-10

   => Auxiliary Basis Set <=

  Basis Set: (AUG-CC-PV(Q+D)Z AUX)
    Blend: AUG-CC-PVQZ-JKFIT
    Number of shells: 82
    Number of basis function: 336
    Number of Cartesian functions: 449
    Spherical Harmonics?: true
    Max angular momentum: 5

  Minimum eigenvalue in the overlap matrix is 6.3446884780E-05.
  Using Symmetric Orthogonalization.

  SCF Guess: Superposition of Atomic Densities via on-the-fly atomic UHF.

  ==> Iterations <==

                           Total Energy        Delta E     RMS |[F,P]|

   @DF-RHF iter SAD:  -398.42761197592955   -3.98428e+02   0.00000e+00 
   @DF-RHF iter   1:  -398.68472166755572   -2.57110e-01   1.66816e-03 DIIS
   @DF-RHF iter   2:  -398.71480516954261   -3.00835e-02   6.37124e-04 DIIS
   @DF-RHF iter   3:  -398.71857813550548   -3.77297e-03   1.59086e-04 DIIS
   @DF-RHF iter   4:  -398.71933712437681   -7.58989e-04   3.74558e-05 DIIS
   @DF-RHF iter   5:  -398.71938453866107   -4.74143e-05   5.77778e-06 DIIS
   @DF-RHF iter   6:  -398.71938555579754   -1.01714e-06   1.30541e-06 DIIS
   @DF-RHF iter   7:  -398.71938560855421   -5.27567e-08   3.81419e-07 DIIS
   @DF-RHF iter   8:  -398.71938561198004   -3.42584e-09   8.20292e-08 DIIS
   @DF-RHF iter   9:  -398.71938561218377   -2.03727e-10   1.32525e-08 DIIS
   @DF-RHF iter  10:  -398.71938561218911   -5.34328e-12   2.42770e-09 DIIS
   @DF-RHF iter  11:  -398.71938561218940   -2.84217e-13   3.62157e-10 DIIS
   @DF-RHF iter  12:  -398.71938561218951   -1.13687e-13   5.21001e-11 DIIS
  Energy and wave function converged.


  ==> Post-Iterations <==

    Orbital Energies [Eh]
    ---------------------

    Doubly Occupied:                                                      

       1Ap   -91.963221     2Ap    -8.966582     3Ap    -6.648181  
       4Ap    -6.647414     1App   -6.646258     5Ap    -0.983292  
       6Ap    -0.592110     7Ap    -0.502766     2App   -0.385325  

    Virtual:                                                              

       8Ap     0.025174     9Ap     0.043785    10Ap     0.075339  
       3App    0.084195    11Ap     0.097732    12Ap     0.118651  
      13Ap     0.148325    14Ap     0.177257    15Ap     0.187625  
       4App    0.194193     5App    0.196977    16Ap     0.231379  
      17Ap     0.254778    18Ap     0.263130    19Ap     0.267989  
       6App    0.272261     7App    0.276829    20Ap     0.297339  
      21Ap     0.316368    22Ap     0.424028    23Ap     0.424038  
      24Ap     0.441840     8App    0.445920    25Ap     0.471401  
       9App    0.489000    10App    0.499281    11App    0.553781  
      26Ap     0.594716    27Ap     0.613054    28Ap     0.619016  
      29Ap     0.641745    30Ap     0.650616    12App    0.656786  
      13App    0.657459    31Ap     0.715347    32Ap     0.722237  
      33Ap     0.736699    14App    0.750087    34Ap     0.750940  
      15App    0.752216    35Ap     0.798802    16App    0.809706  
      36Ap     0.812951    17App    0.816103    37Ap     0.910511  
      38Ap     0.980384    39Ap     0.992271    40Ap     1.210679  
      41Ap     1.220212    18App    1.226050    19App    1.232917  
      42Ap     1.244064    43Ap     1.251331    44Ap     1.334941  
      20App    1.343199    21App    1.350719    45Ap     1.454944  
      46Ap     1.482513    22App    1.516099    47Ap     1.547111  
      23App    1.548954    48Ap     1.565786    49Ap     1.598316  
      24App    1.612662    25App    1.628055    26App    1.644979  
      50Ap     1.651540    51Ap     1.654604    27App    1.658346  
      52Ap     1.673035    53Ap     1.734959    28App    1.776331  
      29App    1.786929    54Ap     1.787321    55Ap     1.809242  
      30App    1.818244    56Ap     1.853792    57Ap     1.879489  
      58Ap     1.929940    31App    1.941570    59Ap     1.976600  
      60Ap     2.046879    32App    2.056142    61Ap     2.065127  
      62Ap     2.167062    33App    2.194198    34App    2.290786  
      63Ap     2.318850    64Ap     2.364044    35App    2.364613  
      65Ap     2.492835    66Ap     2.512360    67Ap     2.538690  
      68Ap     2.823803    36App    2.840436    69Ap     2.881948  
      70Ap     2.924751    37App    2.928467    38App    2.992426  
      71Ap     3.062839    39App    3.067180    72Ap     3.140945  
      73Ap     3.167061    40App    3.194836    41App    3.245049  
      74Ap     3.314651    75Ap     3.483745    76Ap     3.605310  
      77Ap     3.607973    42App    3.622179    43App    3.631289  
      78Ap     3.654455    44App    3.705542    79Ap     3.761342  
      80Ap     3.800546    81Ap     3.883203    82Ap     3.891216  
      45App    3.927010    46App    3.964084    83Ap     4.008097  
      47App    4.023771    48App    4.065790    84Ap     4.117457  
      85Ap     4.390932    86Ap     4.397488    49App    4.584641  
      87Ap     4.601816    88Ap     4.723551    50App    4.779283  
      89Ap     4.873762    90Ap     4.927443    51App    6.013859  
      52App    6.620789    91Ap     6.620927    53App    6.648405  
      92Ap     6.677713    93Ap     6.825805    94Ap     6.845311  
      54App    6.925172    95Ap     7.021999    55App    7.127676  
      96Ap     7.144335    97Ap     7.360514    98Ap     7.408264  
      56App    7.433257    57App    7.439221    99Ap     7.623993  
     100Ap     7.728238   101Ap     8.252364   102Ap     8.255133  
      58App    8.612976    59App    8.622605   103Ap     8.632917  
      60App    8.668555   104Ap     8.671725    61App    8.765443  
     105Ap     8.899878   106Ap     8.940268    62App    9.263606  
      63App    9.301223   107Ap     9.339144   108Ap     9.561098  
     109Ap     9.614902    64App    9.638456    65App    9.639710  
     110Ap     9.717754   111Ap     9.802389   112Ap     9.826563  
     113Ap    10.205465   114Ap    10.910558   115Ap    11.896233  
     116Ap    22.101568  

    Final Occupation by Irrep:
             Ap   App 
    DOCC [     7,    2 ]

  @DF-RHF Final Energy:  -398.71938561218951

   => Energetics <=

    Nuclear Repulsion Energy =             13.0076776884151784
    One-Electron Energy =                -576.7838286286869334
    Two-Electron Energy =                 165.0567653280822924
    Total Energy =                       -398.7193856121895124

Computation Completed


Properties will be evaluated at   0.000000,   0.000000,   0.000000 [a0]

Properties computed using the SCF density matrix

  Nuclear Dipole Moment: [e a0]
     X:     0.0038      Y:    -1.6261      Z:     0.0000

  Electronic Dipole Moment: [e a0]
     X:    -0.0029      Y:     1.2052      Z:     0.0000

  Dipole Moment: [e a0]
     X:     0.0010      Y:    -0.4209      Z:     0.0000     Total:     0.4209

  Dipole Moment: [D]
     X:     0.0025      Y:    -1.0697      Z:     0.0000     Total:     1.0697


*** tstop() called on bp1-compute00190.data.bp.acrc.priv at Mon Apr 19 16:13:52 2021
Module time:
	user time   =      28.56 seconds =       0.48 minutes
	system time =       0.91 seconds =       0.02 minutes
	total time  =          1 seconds =       0.02 minutes
Total time:
	user time   =     216.14 seconds =       3.60 minutes
	system time =      10.32 seconds =       0.17 minutes
	total time  =         17 seconds =       0.28 minutes

*** tstart() called on bp1-compute00190.data.bp.acrc.priv
*** at Mon Apr 19 16:13:52 2021


  //>>>>>>>>>>>>>>>>>>>>>>>>>>>>>>>>>>>//
  //               DFMP2               //
  //<<<<<<<<<<<<<<<<<<<<<<<<<<<<<<<<<<<//

   => Loading Basis Set <=

    Name: (AUG-CC-PV(Q+D)Z AUX)
    Role: RIFIT
    Keyword: DF_BASIS_MP2
    atoms 1   entry S          line   824 file /work/zw18965/.conda/envs/p4env/share/psi4/basis/aug-cc-pvqz-ri.gbs 
    atoms 2-3 entry H          line    30 file /work/zw18965/.conda/envs/p4env/share/psi4/basis/aug-cc-pvqz-ri.gbs 

	 --------------------------------------------------------
	                          DF-MP2                         
	      2nd-Order Density-Fitted Moller-Plesset Theory     
	              RMP2 Wavefunction,  24 Threads             
	                                                         
	        Rob Parrish, Justin Turney, Andy Simmonett,      
	           Ed Hohenstein, and C. David Sherrill          
	 --------------------------------------------------------

   => Auxiliary Basis Set <=

  Basis Set: (AUG-CC-PV(Q+D)Z AUX)
    Blend: AUG-CC-PVQZ-RI
    Number of shells: 84
    Number of basis function: 354
    Number of Cartesian functions: 478
    Spherical Harmonics?: true
    Max angular momentum: 5

	 --------------------------------------------------------
	                 NBF =   181, NAUX =   354
	 --------------------------------------------------------
	   CLASS    FOCC     OCC    AOCC    AVIR     VIR    FVIR
	   PAIRS       0       9       9     172     172       0
	 --------------------------------------------------------

  DFHelper Memory: AOs need 0.097 GiB; user supplied 100.583 GiB. Using in-core AOs.


         ------------------------------------------------------------
                                     CPHF                           
                                  Rob Parrish                       
         ------------------------------------------------------------

  ==> Geometry <==

    Molecular point group: cs
    Full point group: Cs

    Geometry (in Angstrom), charge = 0, multiplicity = 1:

       Center              X                  Y                   Z               Mass       
    ------------   -----------------  -----------------  -----------------  -----------------
         S           -0.000129422792     0.054725080800     0.000000000000    31.972071174400
         H            0.959946219993    -0.865779653735     0.000000000000     1.007825032230
         H           -0.955840433200    -0.870309570498     0.000000000000     1.007825032230

  Nuclear repulsion =   13.007677688415178
  Reference energy  = -398.719385612189512

  ==> Basis Set <==

  Basis Set: AUG-CC-PV(Q+D)Z
    Blend: AUG-CC-PV(Q+D)Z
    Number of shells: 51
    Number of basis function: 181
    Number of Cartesian functions: 225
    Spherical Harmonics?: true
    Max angular momentum: 4

  ==> CGRSolver (by Rob Parrish) <==

   Number of roots    =         1
   Preconditioning    =    JACOBI
   Convergence cutoff =     1E-06
   Maximum iterations =       100

  ==> CPHFRHamiltonian (by Rob Parrish) <== 

  ==> MemDFJK: Density-Fitted J/K Matrices <==

    J tasked:                   Yes
    K tasked:                   Yes
    wK tasked:                   No
    OpenMP threads:              24
    Memory [MiB]:            102996
    Algorithm:                 Core
    Schwarz Cutoff:           1E-12
    Mask sparsity (%):       0.0000
    Fitting Condition:        1E-10

   => Auxiliary Basis Set <=

  Basis Set: (AUG-CC-PV(Q+D)Z AUX)
    Blend: AUG-CC-PVQZ-JKFIT
    Number of shells: 82
    Number of basis function: 336
    Number of Cartesian functions: 449
    Spherical Harmonics?: true
    Max angular momentum: 5

  ==> CPHF Iterations <==

  => Iterations <=

             Iter  Converged  Remaining    Residual
  CGR           1          0          1   5.718E-02
  CGR           2          0          1   1.629E-02
  CGR           3          0          1   4.958E-03
  CGR           4          0          1   7.912E-04
  CGR           5          0          1   2.983E-04
  CGR           6          0          1   6.035E-05
  CGR           7          0          1   5.153E-06
  CGR           8          1          0   9.706E-07

    CGRSolver converged.

  ==> DFCorrGrad: Density-Fitted Correlated Gradients <==

    OpenMP threads:             24
    Integrals threads:          24
    Memory [GiB]:          100.583
    Schwarz Cutoff:          0E+00
    Fitting Condition:       1E-10

   => Auxiliary Basis Set <=

  Basis Set: (AUG-CC-PV(Q+D)Z AUX)
    Blend: AUG-CC-PVQZ-JKFIT
    Number of shells: 82
    Number of basis function: 336
    Number of Cartesian functions: 449
    Spherical Harmonics?: true
    Max angular momentum: 5

	-----------------------------------------------------------
	 ==================> DF-MP2 Energies <==================== 
	-----------------------------------------------------------
	 Reference Energy          =    -398.7193856121895124 [Eh]
	 Singles Energy            =      -0.0000000000000000 [Eh]
	 Same-Spin Energy          =      -0.0805135925245608 [Eh]
	 Opposite-Spin Energy      =      -0.2539834008820747 [Eh]
	 Correlation Energy        =      -0.3344969934066355 [Eh]
	 Total Energy              =    -399.0538826055961295 [Eh]
	-----------------------------------------------------------
	 ================> DF-SCS-MP2 Energies <================== 
	-----------------------------------------------------------
	 SCS Same-Spin Scale       =       0.3333333333333333 [-]
	 SCS Opposite-Spin Scale   =       1.2000000000000000 [-]
	 SCS Same-Spin Energy      =      -0.0268378641748536 [Eh]
	 SCS Opposite-Spin Energy  =      -0.3047800810584896 [Eh]
	 SCS Correlation Energy    =      -0.3316179452333433 [Eh]
	 SCS Total Energy          =    -399.0510035574228596 [Eh]
	-----------------------------------------------------------


  -Total Gradient:
     Atom            X                  Y                   Z
    ------   -----------------  -----------------  -----------------
       1       -0.000000186207    -0.000018945095     0.000000000000
       2        0.000034714047     0.000009443111     0.000000000000
       3       -0.000034527840     0.000009501984     0.000000000000


*** tstop() called on bp1-compute00190.data.bp.acrc.priv at Mon Apr 19 16:13:59 2021
Module time:
	user time   =      71.99 seconds =       1.20 minutes
	system time =       3.98 seconds =       0.07 minutes
	total time  =          7 seconds =       0.12 minutes
Total time:
	user time   =     288.14 seconds =       4.80 minutes
	system time =      14.30 seconds =       0.24 minutes
	total time  =         24 seconds =       0.40 minutes

  Based on options and gradient (rms=1.81E-05), recommend projecting translations and projecting rotations.
hessian() will perform frequency computation by finite difference of analytic gradients.

         ----------------------------------------------------------
                                   FINDIF
                     R. A. King and Jonathon Misiewicz
         ---------------------------------------------------------

  Using finite-differences of gradients to determine vibrational frequencies and 
  normal modes.  Resulting frequencies are only valid at stationary points.
    Generating geometries for use with 3-point formula.
    Displacement size will be 5.00e-03.
    Number of atoms is 3.
    Number of irreps is 2.
    Number of SALCs is 3.
    Translations projected? 1. Rotations projected? 1.
    Index of SALCs per irrep:
     1 :  0  1  2 
     2 : 
    Number of SALCs per irrep:
     Irrep 1: 3
     Irrep 2: 0
    Number of geometries (including reference) is 7.
    Number of displacements per irrep:
      Irrep 1: 6
      Irrep 2: 0

  //>>>>>>>>>>>>>>>>>>>>>>>>>>>>>>>>>>>//
  //    Loading displacement 1 of 7    //
  //<<<<<<<<<<<<<<<<<<<<<<<<<<<<<<<<<<<//
gradient() will perform analytic gradient computation.
    SCF Algorithm Type (re)set to DF.

*** tstart() called on bp1-compute00190.data.bp.acrc.priv
*** at Mon Apr 19 16:13:59 2021

   => Loading Basis Set <=

    Name: AUG-CC-PV(Q+D)Z
    Role: ORBITAL
    Keyword: BASIS
    atoms 1   entry S          line  1148 file /work/zw18965/.conda/envs/p4env/share/psi4/basis/aug-cc-pv_qpd_z.gbs 
    atoms 2-3 entry H          line    56 file /work/zw18965/.conda/envs/p4env/share/psi4/basis/aug-cc-pv_qpd_z.gbs 


         ---------------------------------------------------------
                                   SCF
               by Justin Turney, Rob Parrish, Andy Simmonett
                          and Daniel G. A. Smith
                              RHF Reference
                       24 Threads, 137329 MiB Core
         ---------------------------------------------------------

  ==> Geometry <==

    Molecular point group: cs
    Full point group: Cs

    Geometry (in Angstrom), charge = 0, multiplicity = 1:

       Center              X                  Y                   Z               Mass       
    ------------   -----------------  -----------------  -----------------  -----------------
         S           -0.000129422792     0.054725080800     0.000000000000    31.972071174400
         H            0.959946219993    -0.865779653735     0.000000000000     1.007825032230
         H           -0.955840433200    -0.870309570498     0.000000000000     1.007825032230

  Running in cs symmetry.

  Rotational constants: A =     10.44104  B =      9.11475  C =      4.86646 [cm^-1]
  Rotational constants: A = 313014.36256  B = 273253.25196  C = 145892.74652 [MHz]
  Nuclear repulsion =   13.007677688415178

  Charge       = 0
  Multiplicity = 1
  Electrons    = 18
  Nalpha       = 9
  Nbeta        = 9

  ==> Algorithm <==

  SCF Algorithm Type is DF.
  DIIS enabled.
  MOM disabled.
  Fractional occupation disabled.
  Guess Type is SAD.
  Energy threshold   = 1.00e-10
  Density threshold  = 1.00e-10
  Integral threshold = 0.00e+00

  ==> Primary Basis <==

  Basis Set: AUG-CC-PV(Q+D)Z
    Blend: AUG-CC-PV(Q+D)Z
    Number of shells: 51
    Number of basis function: 181
    Number of Cartesian functions: 225
    Spherical Harmonics?: true
    Max angular momentum: 4

   => Loading Basis Set <=

    Name: (AUG-CC-PV(Q+D)Z AUX)
    Role: JKFIT
    Keyword: DF_BASIS_SCF
    atoms 1   entry S          line   810 file /work/zw18965/.conda/envs/p4env/share/psi4/basis/aug-cc-pvqz-jkfit.gbs 
    atoms 2-3 entry H          line    70 file /work/zw18965/.conda/envs/p4env/share/psi4/basis/aug-cc-pvqz-jkfit.gbs 

  ==> Pre-Iterations <==

   -------------------------------------------------------
    Irrep   Nso     Nmo     Nalpha   Nbeta   Ndocc  Nsocc
   -------------------------------------------------------
     A'       116     116       0       0       0       0
     A"        65      65       0       0       0       0
   -------------------------------------------------------
    Total     181     181       9       9       9       0
   -------------------------------------------------------

  ==> Integral Setup <==

  DFHelper Memory: AOs need 0.097 GiB; user supplied 100.583 GiB. Using in-core AOs.

  ==> MemDFJK: Density-Fitted J/K Matrices <==

    J tasked:                   Yes
    K tasked:                   Yes
    wK tasked:                   No
    OpenMP threads:              24
    Memory [MiB]:            102996
    Algorithm:                 Core
    Schwarz Cutoff:           1E-12
    Mask sparsity (%):       0.0000
    Fitting Condition:        1E-10

   => Auxiliary Basis Set <=

  Basis Set: (AUG-CC-PV(Q+D)Z AUX)
    Blend: AUG-CC-PVQZ-JKFIT
    Number of shells: 82
    Number of basis function: 336
    Number of Cartesian functions: 449
    Spherical Harmonics?: true
    Max angular momentum: 5

  Minimum eigenvalue in the overlap matrix is 6.3446884780E-05.
  Using Symmetric Orthogonalization.

  SCF Guess: Superposition of Atomic Densities via on-the-fly atomic UHF.

  ==> Iterations <==

                           Total Energy        Delta E     RMS |[F,P]|

   @DF-RHF iter SAD:  -398.42761197592938   -3.98428e+02   0.00000e+00 
   @DF-RHF iter   1:  -398.68472166755663   -2.57110e-01   1.66816e-03 DIIS
   @DF-RHF iter   2:  -398.71480516954284   -3.00835e-02   6.37124e-04 DIIS
   @DF-RHF iter   3:  -398.71857813550548   -3.77297e-03   1.59086e-04 DIIS
   @DF-RHF iter   4:  -398.71933712437686   -7.58989e-04   3.74558e-05 DIIS
   @DF-RHF iter   5:  -398.71938453866051   -4.74143e-05   5.77778e-06 DIIS
   @DF-RHF iter   6:  -398.71938555579760   -1.01714e-06   1.30541e-06 DIIS
   @DF-RHF iter   7:  -398.71938560855386   -5.27563e-08   3.81419e-07 DIIS
   @DF-RHF iter   8:  -398.71938561198021   -3.42635e-09   8.20292e-08 DIIS
   @DF-RHF iter   9:  -398.71938561218417   -2.03954e-10   1.32525e-08 DIIS
   @DF-RHF iter  10:  -398.71938561218894   -4.77485e-12   2.42770e-09 DIIS
   @DF-RHF iter  11:  -398.71938561218928   -3.41061e-13   3.62158e-10 DIIS
   @DF-RHF iter  12:  -398.71938561218917    1.13687e-13   5.21005e-11 DIIS
  Energy and wave function converged.


  ==> Post-Iterations <==

    Orbital Energies [Eh]
    ---------------------

    Doubly Occupied:                                                      

       1Ap   -91.963221     2Ap    -8.966582     3Ap    -6.648181  
       4Ap    -6.647414     1App   -6.646258     5Ap    -0.983292  
       6Ap    -0.592110     7Ap    -0.502766     2App   -0.385325  

    Virtual:                                                              

       8Ap     0.025174     9Ap     0.043785    10Ap     0.075339  
       3App    0.084195    11Ap     0.097732    12Ap     0.118651  
      13Ap     0.148325    14Ap     0.177257    15Ap     0.187625  
       4App    0.194193     5App    0.196977    16Ap     0.231379  
      17Ap     0.254778    18Ap     0.263130    19Ap     0.267989  
       6App    0.272261     7App    0.276829    20Ap     0.297339  
      21Ap     0.316368    22Ap     0.424028    23Ap     0.424038  
      24Ap     0.441840     8App    0.445920    25Ap     0.471401  
       9App    0.489000    10App    0.499281    11App    0.553781  
      26Ap     0.594716    27Ap     0.613054    28Ap     0.619016  
      29Ap     0.641745    30Ap     0.650616    12App    0.656786  
      13App    0.657459    31Ap     0.715347    32Ap     0.722237  
      33Ap     0.736699    14App    0.750087    34Ap     0.750940  
      15App    0.752216    35Ap     0.798802    16App    0.809706  
      36Ap     0.812951    17App    0.816103    37Ap     0.910511  
      38Ap     0.980384    39Ap     0.992271    40Ap     1.210679  
      41Ap     1.220212    18App    1.226050    19App    1.232917  
      42Ap     1.244064    43Ap     1.251331    44Ap     1.334941  
      20App    1.343199    21App    1.350719    45Ap     1.454944  
      46Ap     1.482513    22App    1.516099    47Ap     1.547111  
      23App    1.548954    48Ap     1.565786    49Ap     1.598316  
      24App    1.612662    25App    1.628055    26App    1.644979  
      50Ap     1.651540    51Ap     1.654604    27App    1.658346  
      52Ap     1.673035    53Ap     1.734959    28App    1.776331  
      29App    1.786929    54Ap     1.787321    55Ap     1.809242  
      30App    1.818244    56Ap     1.853792    57Ap     1.879489  
      58Ap     1.929940    31App    1.941570    59Ap     1.976600  
      60Ap     2.046879    32App    2.056142    61Ap     2.065127  
      62Ap     2.167062    33App    2.194198    34App    2.290786  
      63Ap     2.318850    64Ap     2.364044    35App    2.364613  
      65Ap     2.492835    66Ap     2.512360    67Ap     2.538690  
      68Ap     2.823803    36App    2.840436    69Ap     2.881948  
      70Ap     2.924751    37App    2.928467    38App    2.992426  
      71Ap     3.062839    39App    3.067180    72Ap     3.140945  
      73Ap     3.167061    40App    3.194836    41App    3.245049  
      74Ap     3.314651    75Ap     3.483745    76Ap     3.605310  
      77Ap     3.607973    42App    3.622179    43App    3.631289  
      78Ap     3.654455    44App    3.705542    79Ap     3.761342  
      80Ap     3.800546    81Ap     3.883203    82Ap     3.891216  
      45App    3.927010    46App    3.964084    83Ap     4.008097  
      47App    4.023771    48App    4.065790    84Ap     4.117457  
      85Ap     4.390932    86Ap     4.397488    49App    4.584641  
      87Ap     4.601816    88Ap     4.723551    50App    4.779283  
      89Ap     4.873762    90Ap     4.927443    51App    6.013859  
      52App    6.620789    91Ap     6.620927    53App    6.648405  
      92Ap     6.677713    93Ap     6.825805    94Ap     6.845311  
      54App    6.925172    95Ap     7.021999    55App    7.127676  
      96Ap     7.144335    97Ap     7.360514    98Ap     7.408264  
      56App    7.433257    57App    7.439221    99Ap     7.623993  
     100Ap     7.728238   101Ap     8.252364   102Ap     8.255133  
      58App    8.612976    59App    8.622605   103Ap     8.632917  
      60App    8.668555   104Ap     8.671725    61App    8.765443  
     105Ap     8.899878   106Ap     8.940268    62App    9.263606  
      63App    9.301223   107Ap     9.339144   108Ap     9.561098  
     109Ap     9.614902    64App    9.638456    65App    9.639710  
     110Ap     9.717754   111Ap     9.802389   112Ap     9.826563  
     113Ap    10.205465   114Ap    10.910558   115Ap    11.896233  
     116Ap    22.101568  

    Final Occupation by Irrep:
             Ap   App 
    DOCC [     7,    2 ]

  @DF-RHF Final Energy:  -398.71938561218917

   => Energetics <=

    Nuclear Repulsion Energy =             13.0076776884151784
    One-Electron Energy =                -576.7838286286868197
    Two-Electron Energy =                 165.0567653280824914
    Total Energy =                       -398.7193856121891713

Computation Completed


Properties will be evaluated at   0.000000,   0.000000,   0.000000 [a0]

Properties computed using the SCF density matrix

  Nuclear Dipole Moment: [e a0]
     X:     0.0038      Y:    -1.6261      Z:     0.0000

  Electronic Dipole Moment: [e a0]
     X:    -0.0029      Y:     1.2052      Z:     0.0000

  Dipole Moment: [e a0]
     X:     0.0010      Y:    -0.4209      Z:     0.0000     Total:     0.4209

  Dipole Moment: [D]
     X:     0.0025      Y:    -1.0697      Z:     0.0000     Total:     1.0697


*** tstop() called on bp1-compute00190.data.bp.acrc.priv at Mon Apr 19 16:14:00 2021
Module time:
	user time   =      24.26 seconds =       0.40 minutes
	system time =       0.84 seconds =       0.01 minutes
	total time  =          1 seconds =       0.02 minutes
Total time:
	user time   =     317.00 seconds =       5.28 minutes
	system time =      15.31 seconds =       0.26 minutes
	total time  =         25 seconds =       0.42 minutes

*** tstart() called on bp1-compute00190.data.bp.acrc.priv
*** at Mon Apr 19 16:14:00 2021


  //>>>>>>>>>>>>>>>>>>>>>>>>>>>>>>>>>>>//
  //               DFMP2               //
  //<<<<<<<<<<<<<<<<<<<<<<<<<<<<<<<<<<<//

   => Loading Basis Set <=

    Name: (AUG-CC-PV(Q+D)Z AUX)
    Role: RIFIT
    Keyword: DF_BASIS_MP2
    atoms 1   entry S          line   824 file /work/zw18965/.conda/envs/p4env/share/psi4/basis/aug-cc-pvqz-ri.gbs 
    atoms 2-3 entry H          line    30 file /work/zw18965/.conda/envs/p4env/share/psi4/basis/aug-cc-pvqz-ri.gbs 

	 --------------------------------------------------------
	                          DF-MP2                         
	      2nd-Order Density-Fitted Moller-Plesset Theory     
	              RMP2 Wavefunction,  24 Threads             
	                                                         
	        Rob Parrish, Justin Turney, Andy Simmonett,      
	           Ed Hohenstein, and C. David Sherrill          
	 --------------------------------------------------------

   => Auxiliary Basis Set <=

  Basis Set: (AUG-CC-PV(Q+D)Z AUX)
    Blend: AUG-CC-PVQZ-RI
    Number of shells: 84
    Number of basis function: 354
    Number of Cartesian functions: 478
    Spherical Harmonics?: true
    Max angular momentum: 5

	 --------------------------------------------------------
	                 NBF =   181, NAUX =   354
	 --------------------------------------------------------
	   CLASS    FOCC     OCC    AOCC    AVIR     VIR    FVIR
	   PAIRS       0       9       9     172     172       0
	 --------------------------------------------------------

  DFHelper Memory: AOs need 0.097 GiB; user supplied 100.583 GiB. Using in-core AOs.


         ------------------------------------------------------------
                                     CPHF                           
                                  Rob Parrish                       
         ------------------------------------------------------------

  ==> Geometry <==

    Molecular point group: cs
    Full point group: Cs

    Geometry (in Angstrom), charge = 0, multiplicity = 1:

       Center              X                  Y                   Z               Mass       
    ------------   -----------------  -----------------  -----------------  -----------------
         S           -0.000129422792     0.054725080800     0.000000000000    31.972071174400
         H            0.959946219993    -0.865779653735     0.000000000000     1.007825032230
         H           -0.955840433200    -0.870309570498     0.000000000000     1.007825032230

  Nuclear repulsion =   13.007677688415178
  Reference energy  = -398.719385612189171

  ==> Basis Set <==

  Basis Set: AUG-CC-PV(Q+D)Z
    Blend: AUG-CC-PV(Q+D)Z
    Number of shells: 51
    Number of basis function: 181
    Number of Cartesian functions: 225
    Spherical Harmonics?: true
    Max angular momentum: 4

  ==> CGRSolver (by Rob Parrish) <==

   Number of roots    =         1
   Preconditioning    =    JACOBI
   Convergence cutoff =     1E-06
   Maximum iterations =       100

  ==> CPHFRHamiltonian (by Rob Parrish) <== 

  ==> MemDFJK: Density-Fitted J/K Matrices <==

    J tasked:                   Yes
    K tasked:                   Yes
    wK tasked:                   No
    OpenMP threads:              24
    Memory [MiB]:            102996
    Algorithm:                 Core
    Schwarz Cutoff:           1E-12
    Mask sparsity (%):       0.0000
    Fitting Condition:        1E-10

   => Auxiliary Basis Set <=

  Basis Set: (AUG-CC-PV(Q+D)Z AUX)
    Blend: AUG-CC-PVQZ-JKFIT
    Number of shells: 82
    Number of basis function: 336
    Number of Cartesian functions: 449
    Spherical Harmonics?: true
    Max angular momentum: 5

  ==> CPHF Iterations <==

  => Iterations <=

             Iter  Converged  Remaining    Residual
  CGR           1          0          1   5.718E-02
  CGR           2          0          1   1.629E-02
  CGR           3          0          1   4.958E-03
  CGR           4          0          1   7.912E-04
  CGR           5          0          1   2.983E-04
  CGR           6          0          1   6.035E-05
  CGR           7          0          1   5.153E-06
  CGR           8          1          0   9.706E-07

    CGRSolver converged.

  ==> DFCorrGrad: Density-Fitted Correlated Gradients <==

    OpenMP threads:             24
    Integrals threads:          24
    Memory [GiB]:          100.583
    Schwarz Cutoff:          0E+00
    Fitting Condition:       1E-10

   => Auxiliary Basis Set <=

  Basis Set: (AUG-CC-PV(Q+D)Z AUX)
[...]
    Orbital Energies [Eh]
    ---------------------

    Doubly Occupied:                                                      

       1Ap   -91.963424     2Ap    -8.966713     3Ap    -6.648311  
       4Ap    -6.647544     1App   -6.646394     5Ap    -0.982894  
       6Ap    -0.591949     7Ap    -0.502475     2App   -0.385308  

    Virtual:                                                              

       8Ap     0.025164     9Ap     0.043772    10Ap     0.075356  
       3App    0.084206    11Ap     0.097743    12Ap     0.118587  
      13Ap     0.148195    14Ap     0.177135    15Ap     0.187625  
       4App    0.194157     5App    0.196991    16Ap     0.231432  
      17Ap     0.254790    18Ap     0.263076    19Ap     0.268044  
       6App    0.272261     7App    0.276809    20Ap     0.297254  
      21Ap     0.316119    22Ap     0.423900    23Ap     0.424055  
      24Ap     0.441789     8App    0.445842    25Ap     0.471573  
       9App    0.489005    10App    0.499423    11App    0.553807  
      26Ap     0.594761    27Ap     0.612909    28Ap     0.618851  
      29Ap     0.641810    30Ap     0.650481    12App    0.656677  
      13App    0.657337    31Ap     0.715286    32Ap     0.722203  
      33Ap     0.736408    14App    0.750097    34Ap     0.750859  
      15App    0.752182    35Ap     0.798807    16App    0.809971  
      36Ap     0.812789    17App    0.815814    37Ap     0.910585  
      38Ap     0.980001    39Ap     0.992211    40Ap     1.210752  
      41Ap     1.219404    18App    1.225957    19App    1.233019  
      42Ap     1.244485    43Ap     1.251516    44Ap     1.334481  
      20App    1.342898    21App    1.350240    45Ap     1.454671  
      46Ap     1.482138    22App    1.516093    47Ap     1.546925  
      23App    1.548873    48Ap     1.565725    49Ap     1.598503  
      24App    1.612510    25App    1.627341    26App    1.644864  
      50Ap     1.650888    51Ap     1.654552    27App    1.658487  
      52Ap     1.673126    53Ap     1.735159    28App    1.776776  
      54Ap     1.786592    29App    1.786713    55Ap     1.808964  
      30App    1.817744    56Ap     1.853741    57Ap     1.878994  
      58Ap     1.929769    31App    1.940880    59Ap     1.975673  
      60Ap     2.048238    32App    2.056074    61Ap     2.065110  
      62Ap     2.166420    33App    2.194007    34App    2.290563  
      63Ap     2.317654    64Ap     2.363366    35App    2.363715  
      65Ap     2.493498    66Ap     2.509574    67Ap     2.537889  
      68Ap     2.823236    36App    2.838819    69Ap     2.880717  
      70Ap     2.924048    37App    2.927549    38App    2.991924  
      71Ap     3.063558    39App    3.066958    72Ap     3.140444  
      73Ap     3.166162    40App    3.193762    41App    3.243607  
      74Ap     3.313700    75Ap     3.481146    76Ap     3.605604  
      77Ap     3.607393    42App    3.621936    43App    3.631302  
      78Ap     3.654558    44App    3.706198    79Ap     3.759489  
      80Ap     3.800776    81Ap     3.881740    82Ap     3.890604  
      45App    3.926169    46App    3.963308    83Ap     4.006905  
      47App    4.023376    48App    4.064259    84Ap     4.116157  
      85Ap     4.388878    86Ap     4.396673    49App    4.584479  
      87Ap     4.600424    88Ap     4.723176    50App    4.776640  
      89Ap     4.872209    90Ap     4.924627    51App    6.011121  
      91Ap     6.620391    52App    6.620458    53App    6.648041  
      92Ap     6.676869    93Ap     6.823837    94Ap     6.842693  
      54App    6.925093    95Ap     7.020736    55App    7.123383  
      96Ap     7.142463    97Ap     7.360867    98Ap     7.406939  
      56App    7.431820    57App    7.437196    99Ap     7.620869  
     100Ap     7.728354   101Ap     8.248149   102Ap     8.252233  
      58App    8.611980    59App    8.620777   103Ap     8.630134  
      60App    8.666474   104Ap     8.668898    61App    8.764367  
     105Ap     8.897844   106Ap     8.937002    62App    9.262095  
      63App    9.300002   107Ap     9.340765   108Ap     9.557784  
     109Ap     9.613527    64App    9.637060    65App    9.638549  
     110Ap     9.715496   111Ap     9.802196   112Ap     9.826505  
     113Ap    10.202837   114Ap    10.903810   115Ap    11.884005  
     116Ap    22.079542  

    Final Occupation by Irrep:
             Ap   App 
    DOCC [     7,    2 ]

  @DF-RHF Final Energy:  -398.71938745483828

   => Energetics <=

    Nuclear Repulsion Energy =             12.9943009148105055
    One-Electron Energy =                -576.7573513873459206
    Two-Electron Energy =                 165.0436630176970993
    Total Energy =                       -398.7193874548382837

Computation Completed


Properties will be evaluated at   0.000000,   0.000000,   0.000000 [a0]

Properties computed using the SCF density matrix

  Nuclear Dipole Moment: [e a0]
     X:     0.0038      Y:    -1.6261      Z:     0.0000

  Electronic Dipole Moment: [e a0]
     X:    -0.0029      Y:     1.2051      Z:     0.0000

  Dipole Moment: [e a0]
     X:     0.0010      Y:    -0.4210      Z:     0.0000     Total:     0.4210

  Dipole Moment: [D]
     X:     0.0025      Y:    -1.0700      Z:     0.0000     Total:     1.0700


*** tstop() called on bp1-compute00190.data.bp.acrc.priv at Mon Apr 19 16:14:47 2021
Module time:
	user time   =      28.27 seconds =       0.47 minutes
	system time =       0.97 seconds =       0.02 minutes
	total time  =          1 seconds =       0.02 minutes
Total time:
	user time   =     921.01 seconds =      15.35 minutes
	system time =      44.21 seconds =       0.74 minutes
	total time  =         72 seconds =       1.20 minutes

*** tstart() called on bp1-compute00190.data.bp.acrc.priv
*** at Mon Apr 19 16:14:47 2021


  //>>>>>>>>>>>>>>>>>>>>>>>>>>>>>>>>>>>//
  //               DFMP2               //
  //<<<<<<<<<<<<<<<<<<<<<<<<<<<<<<<<<<<//

   => Loading Basis Set <=

    Name: (AUG-CC-PV(Q+D)Z AUX)
    Role: RIFIT
    Keyword: DF_BASIS_MP2
    atoms 1   entry S          line   824 file /work/zw18965/.conda/envs/p4env/share/psi4/basis/aug-cc-pvqz-ri.gbs 
    atoms 2-3 entry H          line    30 file /work/zw18965/.conda/envs/p4env/share/psi4/basis/aug-cc-pvqz-ri.gbs 

	 --------------------------------------------------------
	                          DF-MP2                         
	      2nd-Order Density-Fitted Moller-Plesset Theory     
	              RMP2 Wavefunction,  24 Threads             
	                                                         
	        Rob Parrish, Justin Turney, Andy Simmonett,      
	           Ed Hohenstein, and C. David Sherrill          
	 --------------------------------------------------------

   => Auxiliary Basis Set <=

  Basis Set: (AUG-CC-PV(Q+D)Z AUX)
    Blend: AUG-CC-PVQZ-RI
    Number of shells: 84
    Number of basis function: 354
    Number of Cartesian functions: 478
    Spherical Harmonics?: true
    Max angular momentum: 5

	 --------------------------------------------------------
	                 NBF =   181, NAUX =   354
	 --------------------------------------------------------
	   CLASS    FOCC     OCC    AOCC    AVIR     VIR    FVIR
	   PAIRS       0       9       9     172     172       0
	 --------------------------------------------------------

  DFHelper Memory: AOs need 0.097 GiB; user supplied 100.583 GiB. Using in-core AOs.


         ------------------------------------------------------------
                                     CPHF                           
                                  Rob Parrish                       
         ------------------------------------------------------------

  ==> Geometry <==

    Molecular point group: cs
    Full point group: Cs

    Geometry (in Angstrom), charge = 0, multiplicity = 1:

       Center              X                  Y                   Z               Mass       
    ------------   -----------------  -----------------  -----------------  -----------------
         S           -0.000129422792     0.054725080800     0.000000000000    31.972071174400
         H            0.961809861415    -0.865775247117     0.000000000000     1.007825032230
         H           -0.957704074622    -0.870313977116     0.000000000000     1.007825032230

  Nuclear repulsion =   12.994300914810506
  Reference energy  = -398.719387454838284

  ==> Basis Set <==

  Basis Set: AUG-CC-PV(Q+D)Z
    Blend: AUG-CC-PV(Q+D)Z
    Number of shells: 51
    Number of basis function: 181
    Number of Cartesian functions: 225
    Spherical Harmonics?: true
    Max angular momentum: 4

  ==> CGRSolver (by Rob Parrish) <==

   Number of roots    =         1
   Preconditioning    =    JACOBI
   Convergence cutoff =     1E-06
   Maximum iterations =       100

  ==> CPHFRHamiltonian (by Rob Parrish) <== 

  ==> MemDFJK: Density-Fitted J/K Matrices <==

    J tasked:                   Yes
    K tasked:                   Yes
    wK tasked:                   No
    OpenMP threads:              24
    Memory [MiB]:            102996
    Algorithm:                 Core
    Schwarz Cutoff:           1E-12
    Mask sparsity (%):       0.0000
    Fitting Condition:        1E-10

   => Auxiliary Basis Set <=

  Basis Set: (AUG-CC-PV(Q+D)Z AUX)
    Blend: AUG-CC-PVQZ-JKFIT
    Number of shells: 82
    Number of basis function: 336
    Number of Cartesian functions: 449
    Spherical Harmonics?: true
    Max angular momentum: 5

  ==> CPHF Iterations <==

  => Iterations <=

             Iter  Converged  Remaining    Residual
  CGR           1          0          1   5.722E-02
  CGR           2          0          1   1.631E-02
  CGR           3          0          1   4.965E-03
  CGR           4          0          1   7.922E-04
  CGR           5          0          1   2.987E-04
  CGR           6          0          1   6.050E-05
  CGR           7          0          1   5.150E-06
  CGR           8          1          0   9.707E-07

    CGRSolver converged.

  ==> DFCorrGrad: Density-Fitted Correlated Gradients <==

    OpenMP threads:             24
    Integrals threads:          24
    Memory [GiB]:          100.583
    Schwarz Cutoff:          0E+00
    Fitting Condition:       1E-10

   => Auxiliary Basis Set <=

  Basis Set: (AUG-CC-PV(Q+D)Z AUX)
    Blend: AUG-CC-PVQZ-JKFIT
    Number of shells: 82
    Number of basis function: 336
    Number of Cartesian functions: 449
    Spherical Harmonics?: true
    Max angular momentum: 5

	-----------------------------------------------------------
	 ==================> DF-MP2 Energies <==================== 
	-----------------------------------------------------------
	 Reference Energy          =    -398.7193874548382837 [Eh]
	 Singles Energy            =      -0.0000000000000000 [Eh]
	 Same-Spin Energy          =      -0.0805054257381314 [Eh]
	 Opposite-Spin Energy      =      -0.2539872225046289 [Eh]
	 Correlation Energy        =      -0.3344926482427603 [Eh]
	 Total Energy              =    -399.0538801030810419 [Eh]
	-----------------------------------------------------------
	 ================> DF-SCS-MP2 Energies <================== 
	-----------------------------------------------------------
	 SCS Same-Spin Scale       =       0.3333333333333333 [-]
	 SCS Opposite-Spin Scale   =       1.2000000000000000 [-]
	 SCS Same-Spin Energy      =      -0.0268351419127104 [Eh]
	 SCS Opposite-Spin Energy  =      -0.3047846670055547 [Eh]
	 SCS Correlation Energy    =      -0.3316198089182651 [Eh]
	 SCS Total Energy          =    -399.0510072637565600 [Eh]
	-----------------------------------------------------------


  -Total Gradient:
     Atom            X                  Y                   Z
    ------   -----------------  -----------------  -----------------
       1       -0.000002083533     0.000783908384     0.000000000000
       2        0.000676450441    -0.000390467579     0.000000000000
       3       -0.000674366908    -0.000393440805     0.000000000000


*** tstop() called on bp1-compute00190.data.bp.acrc.priv at Mon Apr 19 16:14:53 2021
Module time:
	user time   =      71.56 seconds =       1.19 minutes
	system time =       3.73 seconds =       0.06 minutes
	total time  =          6 seconds =       0.10 minutes
Total time:
	user time   =     992.58 seconds =      16.54 minutes
	system time =      47.94 seconds =       0.80 minutes
	total time  =         78 seconds =       1.30 minutes

         ----------------------------------------------------------
                                   FINDIF
                     R. A. King and Jonathon Misiewicz
         ---------------------------------------------------------

  Computing second-derivative from gradients using projected, 
  symmetry-adapted, cartesian coordinates.

  7 gradients passed in, including the reference geometry.
  Generating complete list of displacements from unique ones.


-------------------------------------------------------------


  ==> Harmonic Vibrational Analysis <==

  non-mass-weighted Hessian:       Symmetric? True   Hermitian? True   Lin Dep Dim?  6 (0)
  projection of translations (True) and rotations (True) removed 6 degrees of freedom (6)
  total projector:                 Symmetric? True   Hermitian? True   Lin Dep Dim?  6 (6)
  mass-weighted Hessian:           Symmetric? True   Hermitian? True   Lin Dep Dim?  6 (0)
  pre-proj  low-frequency mode:    0.0000i [cm^-1]
  pre-proj  low-frequency mode:    0.0000i [cm^-1]
  pre-proj  low-frequency mode:    0.0000  [cm^-1]
  pre-proj  low-frequency mode:    0.0000  [cm^-1]
  pre-proj  low-frequency mode:    0.0000  [cm^-1]
  pre-proj  low-frequency mode:    0.0000  [cm^-1]
  pre-proj  all modes:['0.0000i' '0.0000i' '0.0000' '0.0000' '0.0000' '0.0000' '1219.9379'
 '2773.4278' '2794.3571']
  projected mass-weighted Hessian: Symmetric? True   Hermitian? True   Lin Dep Dim?  6 (6)
  post-proj low-frequency mode:    0.0000i [cm^-1] (TR)
  post-proj low-frequency mode:    0.0000i [cm^-1] (TR)
  post-proj low-frequency mode:    0.0000i [cm^-1] (TR)
  post-proj low-frequency mode:    0.0000  [cm^-1] (TR)
  post-proj low-frequency mode:    0.0000  [cm^-1] (TR)
  post-proj low-frequency mode:    0.0000  [cm^-1] (TR)
  post-proj  all modes:['0.0000i' '0.0000i' '0.0000i' '0.0000' '0.0000' '0.0000' '1219.9379'
 '2773.4278' '2794.3571']

  Vibration                       7                   8                   9           
  Freq [cm^-1]                1219.9379           2773.4278           2794.3571       
  Irrep                           Ap                  Ap                  Ap          
  Reduced mass [u]              1.0395              1.0357              1.0397        
  Force const [mDyne/A]         0.9115              4.6938              4.7833        
  Turning point v=0 [a0]        0.3081              0.2047              0.2036        
  RMS dev v=0 [a0 u^1/2]        0.2221              0.1473              0.1468        
  Char temp [K]               1755.2190           3990.3451           4020.4577       
  ----------------------------------------------------------------------------------
      1   S                0.00 -0.03 -0.00   -0.00  0.03  0.00   -0.03 -0.00 -0.00   
      2   H                0.49  0.51  0.00    0.52 -0.47  0.00    0.51 -0.49  0.00   
      3   H               -0.49  0.51  0.00   -0.52 -0.48  0.00    0.51  0.49  0.00   

  ==> Thermochemistry Components <==

  Entropy, S
    Electronic S            0.000 [cal/(mol K)]        0.000 [J/(mol K)]       0.00000000 [mEh/K] (multiplicity = 1)
    Translational S        36.501 [cal/(mol K)]      152.721 [J/(mol K)]       0.05816835 [mEh/K] (mol. weight = 33.9877 [u], P = 101325.00 [Pa])
    Rotational S           13.919 [cal/(mol K)]       58.235 [J/(mol K)]       0.02218055 [mEh/K] (symmetry no. = 1)
    Vibrational S           0.038 [cal/(mol K)]        0.160 [J/(mol K)]       0.00006082 [mEh/K]
  Total S                  50.458 [cal/(mol K)]      211.116 [J/(mol K)]       0.08040972 [mEh/K]
  Correction S              0.000 [cal/(mol K)]        0.000 [J/(mol K)]       0.00000000 [mEh/K]

  Constant volume heat capacity, Cv
    Electronic Cv           0.000 [cal/(mol K)]        0.000 [J/(mol K)]       0.00000000 [mEh/K]
    Translational Cv        2.981 [cal/(mol K)]       12.472 [J/(mol K)]       0.00475022 [mEh/K]
    Rotational Cv           2.981 [cal/(mol K)]       12.472 [J/(mol K)]       0.00475022 [mEh/K]
    Vibrational Cv          0.193 [cal/(mol K)]        0.809 [J/(mol K)]       0.00030796 [mEh/K]
  Total Cv                  6.155 [cal/(mol K)]       25.752 [J/(mol K)]       0.00980839 [mEh/K]
  Correction Cv             0.000 [cal/(mol K)]        0.000 [J/(mol K)]       0.00000000 [mEh/K]

  Constant pressure heat capacity, Cp
    Electronic Cp           0.000 [cal/(mol K)]        0.000 [J/(mol K)]       0.00000000 [mEh/K]
    Translational Cp        4.968 [cal/(mol K)]       20.786 [J/(mol K)]       0.00791703 [mEh/K]
    Rotational Cp           2.981 [cal/(mol K)]       12.472 [J/(mol K)]       0.00475022 [mEh/K]
    Vibrational Cp          0.193 [cal/(mol K)]        0.809 [J/(mol K)]       0.00030796 [mEh/K]
  Total Cp                  8.142 [cal/(mol K)]       34.066 [J/(mol K)]       0.01297520 [mEh/K]
  Correction Cp             0.000 [cal/(mol K)]        0.000 [J/(mol K)]       0.00000000 [mEh/K]

  ==> Thermochemistry Energy Analysis <==

  Raw electronic energy, E0
  Total E0, Electronic energy at well bottom at 0 [K]                 -399.05388261 [Eh]

  Zero-point energy, ZPE_vib = Sum_i nu_i / 2
    Electronic ZPE          0.000 [kcal/mol]        0.000 [kJ/mol]       0.00000000 [Eh]
    Translational ZPE       0.000 [kcal/mol]        0.000 [kJ/mol]       0.00000000 [Eh]
    Rotational ZPE          0.000 [kcal/mol]        0.000 [kJ/mol]       0.00000000 [Eh]
    Vibrational ZPE         9.704 [kcal/mol]       40.600 [kJ/mol]       0.01546357 [Eh]        3393.861 [cm^-1]
  Correction ZPE            9.704 [kcal/mol]       40.600 [kJ/mol]       0.01546357 [Eh]        3393.861 [cm^-1]
  Total ZPE, Electronic energy at 0 [K]                               -399.03841904 [Eh]

  Thermal Energy, E (includes ZPE)
    Electronic E            0.000 [kcal/mol]        0.000 [kJ/mol]       0.00000000 [Eh]
    Translational E         0.889 [kcal/mol]        3.718 [kJ/mol]       0.00141628 [Eh]
    Rotational E            0.889 [kcal/mol]        3.718 [kJ/mol]       0.00141628 [Eh]
    Vibrational E           9.713 [kcal/mol]       40.640 [kJ/mol]       0.01547908 [Eh]
  Correction E             11.491 [kcal/mol]       48.077 [kJ/mol]       0.01831163 [Eh]
  Total E, Electronic energy at  298.15 [K]                           -399.03557098 [Eh]

  Enthalpy, H_trans = E_trans + k_B * T
    Electronic H            0.000 [kcal/mol]        0.000 [kJ/mol]       0.00000000 [Eh]
    Translational H         1.481 [kcal/mol]        6.197 [kJ/mol]       0.00236046 [Eh]
    Rotational H            0.889 [kcal/mol]        3.718 [kJ/mol]       0.00141628 [Eh]
    Vibrational H           9.713 [kcal/mol]       40.640 [kJ/mol]       0.01547908 [Eh]
  Correction H             12.083 [kcal/mol]       50.556 [kJ/mol]       0.01925581 [Eh]
  Total H, Enthalpy at  298.15 [K]                                    -399.03462679 [Eh]

  Gibbs free energy, G = H - T * S
    Electronic G            0.000 [kcal/mol]        0.000 [kJ/mol]       0.00000000 [Eh]
    Translational G        -9.402 [kcal/mol]      -39.336 [kJ/mol]      -0.01498243 [Eh]
    Rotational G           -3.261 [kcal/mol]      -13.644 [kJ/mol]      -0.00519686 [Eh]
    Vibrational G           9.702 [kcal/mol]       40.593 [kJ/mol]       0.01546094 [Eh]
  Correction G             -2.961 [kcal/mol]      -12.388 [kJ/mol]      -0.00471835 [Eh]
  Total G, Free enthalpy at  298.15 [K]                               -399.05860095 [Eh]

    Psi4 stopped on: Monday, 19 April 2021 04:14PM
    Psi4 wall time for execution: 0:01:17.87

*** Psi4 exiting successfully. Buy a developer a beer!
