
    -----------------------------------------------------------------------
          Psi4: An Open-Source Ab Initio Electronic Structure Package
                               Psi4 1.3.2 release

                         Git: Rev {HEAD} ecbda83 


    R. M. Parrish, L. A. Burns, D. G. A. Smith, A. C. Simmonett,
    A. E. DePrince III, E. G. Hohenstein, U. Bozkaya, A. Yu. Sokolov,
    R. Di Remigio, R. M. Richard, J. F. Gonthier, A. M. James,
    H. R. McAlexander, A. Kumar, M. Saitow, X. Wang, B. P. Pritchard,
    P. Verma, H. F. Schaefer III, K. Patkowski, R. A. King, E. F. Valeev,
    F. A. Evangelista, J. M. Turney, T. D. Crawford, and C. D. Sherrill,
    J. Chem. Theory Comput. 13(7) pp 3185--3197 (2017).
    (doi: 10.1021/acs.jctc.7b00174)


                         Additional Contributions by
    P. Kraus, H. Kruse, M. H. Lechner, M. C. Schieber, R. A. Shaw,
    A. Alenaizan, R. Galvelis, Z. L. Glick, S. Lehtola, and J. P. Misiewicz

    -----------------------------------------------------------------------


    Psi4 started on: Monday, 19 April 2021 04:14PM

    Process ID: 16238
    Host:       bp1-compute00149.data.bp.acrc.priv
    PSIDATADIR: /work/zw18965/.conda/envs/p4env/share/psi4
    Memory:     500.0 MiB
    Threads:    24
    
  ==> Input File <==

--------------------------------------------------------------------------
memory 144 GB

molecule {
0 1
Cl    0.632559482786   0.000000000000   0.000000000000
H    -0.632559482786   0.000000000000   0.000000000000}

set basis aug-cc-pV(Q+d)Z
 
optimize("MP2")
frequencies("MP2")--------------------------------------------------------------------------

  Memory set to 134.110 GiB by Python driver.
gradient() will perform analytic gradient computation.
    SCF Algorithm Type (re)set to DF.

*** tstart() called on bp1-compute00149.data.bp.acrc.priv
*** at Mon Apr 19 16:14:16 2021

   => Loading Basis Set <=

    Name: AUG-CC-PV(Q+D)Z
    Role: ORBITAL
    Keyword: BASIS
    atoms 1 entry CL         line  1246 file /work/zw18965/.conda/envs/p4env/share/psi4/basis/aug-cc-pv_qpd_z.gbs 
    atoms 2 entry H          line    56 file /work/zw18965/.conda/envs/p4env/share/psi4/basis/aug-cc-pv_qpd_z.gbs 


         ---------------------------------------------------------
                                   SCF
               by Justin Turney, Rob Parrish, Andy Simmonett
                          and Daniel G. A. Smith
                              RHF Reference
                       24 Threads, 137329 MiB Core
         ---------------------------------------------------------

  ==> Geometry <==

    Molecular point group: c2v
    Full point group: C_inf_v

    Geometry (in Angstrom), charge = 0, multiplicity = 1:

       Center              X                  Y                   Z               Mass       
    ------------   -----------------  -----------------  -----------------  -----------------
         CL           0.000000000000     0.000000000000     0.035440141871    34.968852682000
         H            0.000000000000     0.000000000000    -1.229678823701     1.007825032230

  Running in c2v symmetry.

  Rotational constants: A = ************  B =     10.75198  C =     10.75198 [cm^-1]
  Rotational constants: A = ************  B = 322336.13767  C = 322336.13767 [MHz]
  Nuclear repulsion =    7.110803668430201

  Charge       = 0
  Multiplicity = 1
  Electrons    = 18
  Nalpha       = 9
  Nbeta        = 9

  ==> Algorithm <==

  SCF Algorithm Type is DF.
  DIIS enabled.
  MOM disabled.
  Fractional occupation disabled.
  Guess Type is SAD.
  Energy threshold   = 1.00e-10
  Density threshold  = 1.00e-10
  Integral threshold = 0.00e+00

  ==> Primary Basis <==

  Basis Set: AUG-CC-PV(Q+D)Z
    Blend: AUG-CC-PV(Q+D)Z
    Number of shells: 37
    Number of basis function: 135
    Number of Cartesian functions: 170
    Spherical Harmonics?: true
    Max angular momentum: 4

   => Loading Basis Set <=

    Name: (AUG-CC-PV(Q+D)Z AUX)
    Role: JKFIT
    Keyword: DF_BASIS_SCF
    atoms 1 entry CL         line   904 file /work/zw18965/.conda/envs/p4env/share/psi4/basis/aug-cc-pvqz-jkfit.gbs 
    atoms 2 entry H          line    70 file /work/zw18965/.conda/envs/p4env/share/psi4/basis/aug-cc-pvqz-jkfit.gbs 

  ==> Pre-Iterations <==

   -------------------------------------------------------
    Irrep   Nso     Nmo     Nalpha   Nbeta   Ndocc  Nsocc
   -------------------------------------------------------
     A1        54      54       0       0       0       0
     A2        17      17       0       0       0       0
     B1        32      32       0       0       0       0
     B2        32      32       0       0       0       0
   -------------------------------------------------------
    Total     135     135       9       9       9       0
   -------------------------------------------------------

  ==> Integral Setup <==

  DFHelper Memory: AOs need 0.044 GiB; user supplied 100.583 GiB. Using in-core AOs.

  ==> MemDFJK: Density-Fitted J/K Matrices <==

    J tasked:                   Yes
    K tasked:                   Yes
    wK tasked:                   No
    OpenMP threads:              24
    Memory [MiB]:            102996
    Algorithm:                 Core
    Schwarz Cutoff:           1E-12
    Mask sparsity (%):       0.0000
    Fitting Condition:        1E-10

   => Auxiliary Basis Set <=

  Basis Set: (AUG-CC-PV(Q+D)Z AUX)
    Blend: AUG-CC-PVQZ-JKFIT
    Number of shells: 64
    Number of basis function: 260
    Number of Cartesian functions: 348
    Spherical Harmonics?: true
    Max angular momentum: 5

  Minimum eigenvalue in the overlap matrix is 9.2136529291E-05.
  Using Symmetric Orthogonalization.

  SCF Guess: Superposition of Atomic Densities via on-the-fly atomic UHF.

  ==> Iterations <==

                           Total Energy        Delta E     RMS |[F,P]|

   @DF-RHF iter SAD:  -459.92294984354669   -4.59923e+02   0.00000e+00 
   @DF-RHF iter   1:  -460.09134352146594   -1.68394e-01   2.54128e-03 DIIS
   @DF-RHF iter   2:  -460.10937793963711   -1.80344e-02   1.03681e-03 DIIS
   @DF-RHF iter   3:  -460.11169170868936   -2.31377e-03   2.15964e-04 DIIS
   @DF-RHF iter   4:  -460.11202385731514   -3.32149e-04   6.79964e-05 DIIS
   @DF-RHF iter   5:  -460.11206480875512   -4.09514e-05   1.14617e-05 DIIS
   @DF-RHF iter   6:  -460.11206576853812   -9.59783e-07   2.76127e-06 DIIS
   @DF-RHF iter   7:  -460.11206579785215   -2.93140e-08   5.34738e-07 DIIS
   @DF-RHF iter   8:  -460.11206579993188   -2.07973e-09   8.33014e-08 DIIS
   @DF-RHF iter   9:  -460.11206579997531   -4.34284e-11   8.09634e-09 DIIS
   @DF-RHF iter  10:  -460.11206579997537   -5.68434e-14   1.13044e-09 DIIS
   @DF-RHF iter  11:  -460.11206579997582   -4.54747e-13   9.91287e-11 DIIS
  Energy and wave function converged.


  ==> Post-Iterations <==

    Orbital Energies [Eh]
    ---------------------

    Doubly Occupied:                                                      

       1A1  -104.848014     2A1   -10.573987     3A1    -8.041352  
       1B1    -8.039349     1B2    -8.039349     4A1    -1.118776  
       5A1    -0.628048     2B2    -0.477289     2B1    -0.477289  

    Virtual:                                                              

       6A1     0.025856     7A1     0.089120     3B1     0.096975  
       3B2     0.096975     8A1     0.122724     9A1     0.170085  
       4B2     0.201433     4B1     0.201433     1A2     0.258729  
      10A1     0.258729    11A1     0.275878     5B2     0.323998  
       5B1     0.323998    12A1     0.344699    13A1     0.429140  
       6B2     0.473942     6B1     0.473942    14A1     0.488915  
       7B1     0.577542     7B2     0.577542     2A2     0.619633  
      15A1     0.619633     3A2     0.687635    16A1     0.687635  
      17A1     0.689686     8B2     0.732730     8B1     0.732730  
       9B1     0.823146     9B2     0.823146    18A1     0.834529  
      19A1     0.928826    10B1     0.935995    10B2     0.935995  
       4A2     0.965533    20A1     0.965533    21A1     1.104018  
      11B2     1.303549    11B1     1.303549    22A1     1.369137  
      23A1     1.561371    12B1     1.567672    12B2     1.567672  
      24A1     1.607091     5A2     1.607091    13B1     1.610048  
      13B2     1.610048    25A1     1.707107    14B1     1.797845  
      14B2     1.797845     6A2     1.866273    26A1     1.866273  
      27A1     1.867941     7A2     1.867941    15B2     1.890591  
      15B1     1.890591    28A1     1.897155    29A1     1.976573  
       8A2     1.976573    16B2     2.055857    16B1     2.055857  
      17B2     2.100728    17B1     2.100728    18B1     2.111251  
      18B2     2.111251    30A1     2.145310    31A1     2.156830  
       9A2     2.156830    19B1     2.517210    19B2     2.517210  
      32A1     2.550544    33A1     2.798366    34A1     3.096792  
      20B2     3.158725    20B1     3.158725    10A2     3.169395  
      35A1     3.169395    36A1     3.448909    21B2     3.550266  
      21B1     3.550266    11A2     3.774658    37A1     3.774658  
      38A1     3.895240    22B2     4.161393    22B1     4.161393  
      39A1     4.233698    40A1     4.638606    12A2     4.638606  
      23B2     4.702949    23B1     4.702949    13A2     4.720189  
      41A1     4.720189    24B1     4.728407    24B2     4.728407  
      25B1     4.729609    25B2     4.729609    42A1     4.854509  
      14A2     4.854509    43A1     5.027034    26B2     5.301402  
      26B1     5.301402    44A1     5.338528    27B2     6.265036  
      27B1     6.265036    28B2     6.583464    28B1     6.583464  
      15A2     7.086045    45A1     7.086045    46A1     7.302866  
      29B2     7.680103    29B1     7.680103    47A1     7.775776  
      48A1     8.295052    16A2     8.696195    49A1     8.696195  
      30B2     8.875512    30B1     8.875512    31B2     9.379251  
      31B1     9.379251    50A1     9.710933    51A1    11.157330  
      17A2    11.446446    52A1    11.446446    32B2    11.661482  
      32B1    11.661482    53A1    12.422190    54A1    25.994639  

    Final Occupation by Irrep:
             A1    A2    B1    B2 
    DOCC [     5,    0,    2,    2 ]

  @DF-RHF Final Energy:  -460.11206579997582

   => Energetics <=

    Nuclear Repulsion Energy =              7.1108036684302007
    One-Electron Energy =                -649.9588344335695638
    Two-Electron Energy =                 182.7359649651635038
    Total Energy =                       -460.1120657999758805

Computation Completed


Properties will be evaluated at   0.000000,   0.000000,   0.000000 [a0]

Properties computed using the SCF density matrix

  Nuclear Dipole Moment: [e a0]
     X:     0.0000      Y:     0.0000      Z:    -1.1852

  Electronic Dipole Moment: [e a0]
     X:     0.0000      Y:     0.0000      Z:     0.7247

  Dipole Moment: [e a0]
     X:     0.0000      Y:     0.0000      Z:    -0.4605     Total:     0.4605

  Dipole Moment: [D]
     X:     0.0000      Y:     0.0000      Z:    -1.1705     Total:     1.1705


*** tstop() called on bp1-compute00149.data.bp.acrc.priv at Mon Apr 19 16:14:17 2021
Module time:
	user time   =      24.72 seconds =       0.41 minutes
	system time =       1.23 seconds =       0.02 minutes
	total time  =          1 seconds =       0.02 minutes
Total time:
	user time   =      24.72 seconds =       0.41 minutes
	system time =       1.23 seconds =       0.02 minutes
	total time  =          1 seconds =       0.02 minutes

*** tstart() called on bp1-compute00149.data.bp.acrc.priv
*** at Mon Apr 19 16:14:17 2021


  //>>>>>>>>>>>>>>>>>>>>>>>>>>>>>>>>>>>//
  //               DFMP2               //
  //<<<<<<<<<<<<<<<<<<<<<<<<<<<<<<<<<<<//

   => Loading Basis Set <=

    Name: (AUG-CC-PV(Q+D)Z AUX)
    Role: RIFIT
    Keyword: DF_BASIS_MP2
    atoms 1 entry CL         line   914 file /work/zw18965/.conda/envs/p4env/share/psi4/basis/aug-cc-pvqz-ri.gbs 
    atoms 2 entry H          line    30 file /work/zw18965/.conda/envs/p4env/share/psi4/basis/aug-cc-pvqz-ri.gbs 

	 --------------------------------------------------------
	                          DF-MP2                         
	      2nd-Order Density-Fitted Moller-Plesset Theory     
	              RMP2 Wavefunction,  24 Threads             
	                                                         
	        Rob Parrish, Justin Turney, Andy Simmonett,      
	           Ed Hohenstein, and C. David Sherrill          
	 --------------------------------------------------------

   => Auxiliary Basis Set <=

  Basis Set: (AUG-CC-PV(Q+D)Z AUX)
    Blend: AUG-CC-PVQZ-RI
    Number of shells: 64
    Number of basis function: 274
    Number of Cartesian functions: 373
    Spherical Harmonics?: true
    Max angular momentum: 5

	 --------------------------------------------------------
	                 NBF =   135, NAUX =   274
	 --------------------------------------------------------
	   CLASS    FOCC     OCC    AOCC    AVIR     VIR    FVIR
	   PAIRS       0       9       9     126     126       0
	 --------------------------------------------------------

  DFHelper Memory: AOs need 0.044 GiB; user supplied 100.583 GiB. Using in-core AOs.


         ------------------------------------------------------------
                                     CPHF                           
                                  Rob Parrish                       
         ------------------------------------------------------------

  ==> Geometry <==

    Molecular point group: c2v
    Full point group: C_inf_v

    Geometry (in Angstrom), charge = 0, multiplicity = 1:

       Center              X                  Y                   Z               Mass       
    ------------   -----------------  -----------------  -----------------  -----------------
         CL           0.000000000000     0.000000000000     0.035440141871    34.968852682000
         H            0.000000000000     0.000000000000    -1.229678823701     1.007825032230

  Nuclear repulsion =    7.110803668430201
  Reference energy  = -460.112065799975824

  ==> Basis Set <==

  Basis Set: AUG-CC-PV(Q+D)Z
    Blend: AUG-CC-PV(Q+D)Z
    Number of shells: 37
    Number of basis function: 135
    Number of Cartesian functions: 170
    Spherical Harmonics?: true
    Max angular momentum: 4

  ==> CGRSolver (by Rob Parrish) <==

   Number of roots    =         1
   Preconditioning    =    JACOBI
   Convergence cutoff =     1E-06
   Maximum iterations =       100

  ==> CPHFRHamiltonian (by Rob Parrish) <== 

  ==> MemDFJK: Density-Fitted J/K Matrices <==

    J tasked:                   Yes
    K tasked:                   Yes
    wK tasked:                   No
    OpenMP threads:              24
    Memory [MiB]:            102996
    Algorithm:                 Core
    Schwarz Cutoff:           1E-12
    Mask sparsity (%):       0.0000
    Fitting Condition:        1E-10

   => Auxiliary Basis Set <=

  Basis Set: (AUG-CC-PV(Q+D)Z AUX)
    Blend: AUG-CC-PVQZ-JKFIT
    Number of shells: 64
    Number of basis function: 260
    Number of Cartesian functions: 348
    Spherical Harmonics?: true
    Max angular momentum: 5

  ==> CPHF Iterations <==

  => Iterations <=

             Iter  Converged  Remaining    Residual
  CGR           1          0          1   4.719E-02
  CGR           2          0          1   1.475E-02
  CGR           3          0          1   3.796E-03
  CGR           4          0          1   5.520E-04
  CGR           5          0          1   1.477E-04
  CGR           6          0          1   2.589E-05
  CGR           7          0          1   2.300E-06
  CGR           8          1          0   2.188E-07

    CGRSolver converged.

Problem determining natural orbital and density matrix symmetries.
Future calls to oeprop using this density will not work. Try disabling symmetry.

  ==> DFCorrGrad: Density-Fitted Correlated Gradients <==

    OpenMP threads:             24
    Integrals threads:          24
    Memory [GiB]:          100.583
    Schwarz Cutoff:          0E+00
    Fitting Condition:       1E-10

   => Auxiliary Basis Set <=

  Basis Set: (AUG-CC-PV(Q+D)Z AUX)
    Blend: AUG-CC-PVQZ-JKFIT
    Number of shells: 64
    Number of basis function: 260
    Number of Cartesian functions: 348
    Spherical Harmonics?: true
    Max angular momentum: 5

	-----------------------------------------------------------
	 ==================> DF-MP2 Energies <==================== 
	-----------------------------------------------------------
	 Reference Energy          =    -460.1120657999758237 [Eh]
	 Singles Energy            =      -0.0000000000000000 [Eh]
	 Same-Spin Energy          =      -0.0928408567732459 [Eh]
	 Opposite-Spin Energy      =      -0.2684420932150683 [Eh]
	 Correlation Energy        =      -0.3612829499883142 [Eh]
	 Total Energy              =    -460.4733487499641456 [Eh]
	-----------------------------------------------------------
	 ================> DF-SCS-MP2 Energies <================== 
	-----------------------------------------------------------
	 SCS Same-Spin Scale       =       0.3333333333333333 [-]
	 SCS Opposite-Spin Scale   =       1.2000000000000000 [-]
	 SCS Same-Spin Energy      =      -0.0309469522577486 [Eh]
	 SCS Opposite-Spin Energy  =      -0.3221305118580819 [Eh]
	 SCS Correlation Energy    =      -0.3530774641158306 [Eh]
	 SCS Total Energy          =    -460.4651432640916369 [Eh]
	-----------------------------------------------------------


  -Total Gradient:
     Atom            X                  Y                   Z
    ------   -----------------  -----------------  -----------------
       1       -0.000000000000     0.000000000000    -0.003277693897
       2        0.000000000000     0.000000000000     0.003277693897


*** tstop() called on bp1-compute00149.data.bp.acrc.priv at Mon Apr 19 16:14:24 2021
Module time:
	user time   =      67.33 seconds =       1.12 minutes
	system time =       9.94 seconds =       0.17 minutes
	total time  =          7 seconds =       0.12 minutes
Total time:
	user time   =      92.06 seconds =       1.53 minutes
	system time =      11.17 seconds =       0.19 minutes
	total time  =          8 seconds =       0.13 minutes

			-----------------------------------------
			 OPTKING 2.0: for geometry optimizations 
			  - R.A. King,  Bethel University        
			-----------------------------------------

	Internal coordinates to be generated automatically.
	Detected frag 1 with atoms:  1 2
	---Fragment 1 Bond Connectivity---
	 1 : 2
	 2 : 1

	---Fragment 1 Geometry and Gradient---
	 CL          0.0000000000        0.0000000000        0.0669721620
	 H           0.0000000000        0.0000000000       -2.3237561991
	            -0.0000000000        0.0000000000       -0.0032776939
	             0.0000000000        0.0000000000        0.0032776939

	Previous optimization step data not found.  Starting new optimization.

	---Fragment 1 Intrafragment Coordinates---
	 - Coordinate -           - BOHR/RAD -       - ANG/DEG -
	 R(1,2)           =         2.390728	       1.265119

	Current energy   :      -460.4733487500

	Generating empirical Hessian (Schlegel '84) for each fragment.
	Taking RFO optimization step.
	Going to follow RFO solution 1.
	Using RFO vector 1.
	Norm of target step-size    0.00980
	Projected energy change by RFO approximation:         0.0000158880

	Back-transformation to cartesian coordinates...
	Successfully converged to displaced geometry.

	--- Internal Coordinate Step in ANG or DEG, aJ/ANG or AJ/DEG ---
	 ---------------------------------------------------------------------------
	   Coordinate                Previous        Force       Change         New 
	   ----------                --------       ------       ------       ------
	    1 R(1,2)          =      1.265119     0.027004     0.005185     1.270304
	 ---------------------------------------------------------------------------
	Successfully symmetrized geometry.

  ==> Convergence Check <==

  Measures of convergence in internal coordinates in au.
  Criteria marked as inactive (o), active & met (*), and active & unmet ( ).
  --------------------------------------------------------------------------------------------- ~
   Step     Total Energy     Delta E     MAX Force     RMS Force      MAX Disp      RMS Disp    ~
  --------------------------------------------------------------------------------------------- ~
    Convergence Criteria    1.00e-06 *    3.00e-04 *             o    1.20e-03 *             o  ~
  --------------------------------------------------------------------------------------------- ~
      1    -460.47334875   -4.60e+02      3.28e-03      3.28e-03 o    9.80e-03      9.80e-03 o  ~
  ---------------------------------------------------------------------------------------------

	Writing optimization data to binary file.
	Structure for next step:
	Cartesian Geometry (in Angstrom)
	   CL     0.0000000000   0.0000000000   0.0380327414
	    H     0.0000000000   0.0000000000  -1.2322714186
			--------------------------
			 OPTKING Finished Execution 
			--------------------------

    Structure for next step:
    Molecular point group: c2v
    Full point group: C_inf_v

    Geometry (in Angstrom), charge = 0, multiplicity = 1:

    CL           0.000000000000     0.000000000000     0.035585396356
    H            0.000000000000     0.000000000000    -1.234718768634

gradient() will perform analytic gradient computation.
    SCF Algorithm Type (re)set to DF.

*** tstart() called on bp1-compute00149.data.bp.acrc.priv
*** at Mon Apr 19 16:14:24 2021

   => Loading Basis Set <=

    Name: AUG-CC-PV(Q+D)Z
    Role: ORBITAL
    Keyword: BASIS
    atoms 1 entry CL         line  1246 file /work/zw18965/.conda/envs/p4env/share/psi4/basis/aug-cc-pv_qpd_z.gbs 
    atoms 2 entry H          line    56 file /work/zw18965/.conda/envs/p4env/share/psi4/basis/aug-cc-pv_qpd_z.gbs 


         ---------------------------------------------------------
                                   SCF
               by Justin Turney, Rob Parrish, Andy Simmonett
                          and Daniel G. A. Smith
                              RHF Reference
                       24 Threads, 137329 MiB Core
         ---------------------------------------------------------

  ==> Geometry <==

    Molecular point group: c2v
    Full point group: C_inf_v

    Geometry (in Angstrom), charge = 0, multiplicity = 1:

       Center              X                  Y                   Z               Mass       
    ------------   -----------------  -----------------  -----------------  -----------------
         CL           0.000000000000     0.000000000000     0.035585396356    34.968852682000
         H            0.000000000000     0.000000000000    -1.234718768634     1.007825032230

  Running in c2v symmetry.

  Rotational constants: A = ************  B =     10.66438  C =     10.66438 [cm^-1]
  Rotational constants: A = ************  B = 319710.04852  C = 319710.04852 [MHz]
  Nuclear repulsion =    7.081778387667115

  Charge       = 0
  Multiplicity = 1
  Electrons    = 18
  Nalpha       = 9
  Nbeta        = 9

  ==> Algorithm <==

  SCF Algorithm Type is DF.
  DIIS enabled.
  MOM disabled.
  Fractional occupation disabled.
  Guess Type is READ.
  Energy threshold   = 1.00e-10
  Density threshold  = 1.00e-10
  Integral threshold = 0.00e+00

  ==> Primary Basis <==

  Basis Set: AUG-CC-PV(Q+D)Z
    Blend: AUG-CC-PV(Q+D)Z
    Number of shells: 37
    Number of basis function: 135
    Number of Cartesian functions: 170
    Spherical Harmonics?: true
    Max angular momentum: 4

   => Loading Basis Set <=

    Name: (AUG-CC-PV(Q+D)Z AUX)
    Role: JKFIT
    Keyword: DF_BASIS_SCF
    atoms 1 entry CL         line   904 file /work/zw18965/.conda/envs/p4env/share/psi4/basis/aug-cc-pvqz-jkfit.gbs 
    atoms 2 entry H          line    70 file /work/zw18965/.conda/envs/p4env/share/psi4/basis/aug-cc-pvqz-jkfit.gbs 

   => Loading Basis Set <=

    Name: AUG-CC-PV(Q+D)Z
    Role: ORBITAL
    Keyword: BASIS
    atoms 1 entry CL         line  1246 file /work/zw18965/.conda/envs/p4env/share/psi4/basis/aug-cc-pv_qpd_z.gbs 
    atoms 2 entry H          line    56 file /work/zw18965/.conda/envs/p4env/share/psi4/basis/aug-cc-pv_qpd_z.gbs 

  Reading orbitals from file 180, no projection.

  ==> Pre-Iterations <==

   -------------------------------------------------------
    Irrep   Nso     Nmo     Nalpha   Nbeta   Ndocc  Nsocc
   -------------------------------------------------------
     A1        54      54       0       0       0       0
     A2        17      17       0       0       0       0
     B1        32      32       0       0       0       0
     B2        32      32       0       0       0       0
   -------------------------------------------------------
    Total     135     135       9       9       9       0
   -------------------------------------------------------

  ==> Integral Setup <==

  DFHelper Memory: AOs need 0.044 GiB; user supplied 100.583 GiB. Using in-core AOs.

  ==> MemDFJK: Density-Fitted J/K Matrices <==

    J tasked:                   Yes
    K tasked:                   Yes
    wK tasked:                   No
    OpenMP threads:              24
    Memory [MiB]:            102996
    Algorithm:                 Core
    Schwarz Cutoff:           1E-12
    Mask sparsity (%):       0.0000
    Fitting Condition:        1E-10

   => Auxiliary Basis Set <=

  Basis Set: (AUG-CC-PV(Q+D)Z AUX)
    Blend: AUG-CC-PVQZ-JKFIT
    Number of shells: 64
    Number of basis function: 260
    Number of Cartesian functions: 348
    Spherical Harmonics?: true
    Max angular momentum: 5

  Minimum eigenvalue in the overlap matrix is 9.3347180506E-05.
  Using Symmetric Orthogonalization.

  SCF Guess: Orbitals guess was supplied from a previous computation.

  ==> Iterations <==

                           Total Energy        Delta E     RMS |[F,P]|

   @DF-RHF iter   0:  -460.10945209439637   -4.60109e+02   1.42198e-04 
   @DF-RHF iter   1:  -460.11204288833761   -2.59079e-03   1.65043e-05 DIIS
   @DF-RHF iter   2:  -460.11204366264883   -7.74311e-07   6.77686e-06 DIIS
   @DF-RHF iter   3:  -460.11204372605266   -6.34038e-08   9.43201e-07 DIIS
   @DF-RHF iter   4:  -460.11204373074469   -4.69203e-09   2.16478e-07 DIIS
   @DF-RHF iter   5:  -460.11204373103106   -2.86377e-10   5.28772e-08 DIIS
   @DF-RHF iter   6:  -460.11204373104329   -1.22213e-11   1.33720e-08 DIIS
   @DF-RHF iter   7:  -460.11204373104505   -1.76215e-12   2.60986e-09 DIIS
   @DF-RHF iter   8:  -460.11204373104533   -2.84217e-13   5.28551e-10 DIIS
   @DF-RHF iter   9:  -460.11204373104505    2.84217e-13   7.47407e-11 DIIS
  Energy and wave function converged.


  ==> Post-Iterations <==

    Orbital Energies [Eh]
    ---------------------

    Doubly Occupied:                                                      

       1A1  -104.848303     2A1   -10.574131     3A1    -8.041479  
       1B2    -8.039500     1B1    -8.039500     4A1    -1.117780  
       5A1    -0.626933     2B1    -0.477156     2B2    -0.477156  

    Virtual:                                                              

       6A1     0.025790     7A1     0.089182     3B1     0.097018  
       3B2     0.097018     8A1     0.122216     9A1     0.169788  
       4B1     0.201354     4B2     0.201354    10A1     0.258793  
       1A2     0.258793    11A1     0.275543     5B1     0.323953  
       5B2     0.323953    12A1     0.344260    13A1     0.429104  
       6B1     0.473827     6B2     0.473827    14A1     0.489175  
       7B1     0.577945     7B2     0.577945     2A2     0.619974  
      15A1     0.619974    16A1     0.687530     3A2     0.687530  
      17A1     0.689188     8B1     0.732042     8B2     0.732042  
       9B1     0.823228     9B2     0.823228    18A1     0.833346  
      19A1     0.928433    10B1     0.935712    10B2     0.935712  
      20A1     0.965255     4A2     0.965255    21A1     1.104329  
      11B1     1.302542    11B2     1.302542    22A1     1.367425  
      23A1     1.560785    12B1     1.567497    12B2     1.567497  
      24A1     1.607212     5A2     1.607212    13B1     1.609050  
      13B2     1.609050    25A1     1.707436    14B1     1.799362  
      14B2     1.799362     6A2     1.868049    26A1     1.868049  
      27A1     1.870151     7A2     1.870151    15B1     1.889019  
      15B2     1.889019    28A1     1.893832    29A1     1.973893  
       8A2     1.973893    16B1     2.056090    16B2     2.056090  
      17B2     2.099323    17B1     2.099323    18B2     2.110502  
      18B1     2.110502    30A1     2.146500     9A2     2.156326  
      31A1     2.156326    19B1     2.514198    19B2     2.514198  
      32A1     2.552076    33A1     2.792075    34A1     3.091730  
      20B2     3.154087    20B1     3.154087    35A1     3.162311  
      10A2     3.162311    36A1     3.447610    21B1     3.549064  
      21B2     3.549064    11A2     3.773653    37A1     3.773653  
      38A1     3.899197    22B1     4.160818    22B2     4.160818  
      39A1     4.226086    40A1     4.639376    12A2     4.639376  
      23B1     4.702998    23B2     4.702998    13A2     4.720304  
      41A1     4.720304    24B2     4.725705    24B1     4.725705  
      25B2     4.730066    25B1     4.730066    14A2     4.852626  
      42A1     4.852626    43A1     5.025889    26B1     5.297567  
      26B2     5.297567    44A1     5.333926    27B1     6.258397  
      27B2     6.258397    28B2     6.581807    28B1     6.581807  
      15A2     7.077622    45A1     7.077622    46A1     7.287082  
      29B1     7.672042    29B2     7.672042    47A1     7.787695  
      48A1     8.277440    49A1     8.689277    16A2     8.689277  
      30B1     8.857536    30B2     8.857536    31B1     9.376330  
      31B2     9.376330    50A1     9.705665    51A1    11.144761  
      17A2    11.446117    52A1    11.446117    32B1    11.660506  
      32B2    11.660506    53A1    12.393330    54A1    25.937100  

    Final Occupation by Irrep:
             A1    A2    B1    B2 
    DOCC [     5,    0,    2,    2 ]

  @DF-RHF Final Energy:  -460.11204373104505

   => Energetics <=

    Nuclear Repulsion Energy =              7.0817783876671152
    One-Electron Energy =                -649.9037700829974256
    Two-Electron Energy =                 182.7099479642853055
    Total Energy =                       -460.1120437310449915

Computation Completed


Properties will be evaluated at   0.000000,   0.000000,   0.000000 [a0]

Properties computed using the SCF density matrix

  Nuclear Dipole Moment: [e a0]
     X:     0.0000      Y:     0.0000      Z:    -1.1901

  Electronic Dipole Moment: [e a0]
     X:     0.0000      Y:     0.0000      Z:     0.7273

  Dipole Moment: [e a0]
     X:     0.0000      Y:     0.0000      Z:    -0.4628     Total:     0.4628

  Dipole Moment: [D]
     X:     0.0000      Y:     0.0000      Z:    -1.1764     Total:     1.1764


*** tstop() called on bp1-compute00149.data.bp.acrc.priv at Mon Apr 19 16:14:25 2021
Module time:
	user time   =      15.54 seconds =       0.26 minutes
	system time =       0.63 seconds =       0.01 minutes
	total time  =          1 seconds =       0.02 minutes
Total time:
	user time   =     107.98 seconds =       1.80 minutes
	system time =      11.82 seconds =       0.20 minutes
	total time  =          9 seconds =       0.15 minutes

*** tstart() called on bp1-compute00149.data.bp.acrc.priv
*** at Mon Apr 19 16:14:25 2021


  //>>>>>>>>>>>>>>>>>>>>>>>>>>>>>>>>>>>//
  //               DFMP2               //
  //<<<<<<<<<<<<<<<<<<<<<<<<<<<<<<<<<<<//

   => Loading Basis Set <=

    Name: (AUG-CC-PV(Q+D)Z AUX)
    Role: RIFIT
    Keyword: DF_BASIS_MP2
    atoms 1 entry CL         line   914 file /work/zw18965/.conda/envs/p4env/share/psi4/basis/aug-cc-pvqz-ri.gbs 
    atoms 2 entry H          line    30 file /work/zw18965/.conda/envs/p4env/share/psi4/basis/aug-cc-pvqz-ri.gbs 

	 --------------------------------------------------------
	                          DF-MP2                         
	      2nd-Order Density-Fitted Moller-Plesset Theory     
	              RMP2 Wavefunction,  24 Threads             
	                                                         
	        Rob Parrish, Justin Turney, Andy Simmonett,      
	           Ed Hohenstein, and C. David Sherrill          
	 --------------------------------------------------------

   => Auxiliary Basis Set <=

  Basis Set: (AUG-CC-PV(Q+D)Z AUX)
    Blend: AUG-CC-PVQZ-RI
    Number of shells: 64
    Number of basis function: 274
    Number of Cartesian functions: 373
    Spherical Harmonics?: true
    Max angular momentum: 5

	 --------------------------------------------------------
	                 NBF =   135, NAUX =   274
	 --------------------------------------------------------
	   CLASS    FOCC     OCC    AOCC    AVIR     VIR    FVIR
	   PAIRS       0       9       9     126     126       0
	 --------------------------------------------------------

  DFHelper Memory: AOs need 0.044 GiB; user supplied 100.583 GiB. Using in-core AOs.


         ------------------------------------------------------------
                                     CPHF                           
                                  Rob Parrish                       
         ------------------------------------------------------------

  ==> Geometry <==

    Molecular point group: c2v
    Full point group: C_inf_v

    Geometry (in Angstrom), charge = 0, multiplicity = 1:

       Center              X                  Y                   Z               Mass       
    ------------   -----------------  -----------------  -----------------  -----------------
         CL           0.000000000000     0.000000000000     0.035585396356    34.968852682000
         H            0.000000000000     0.000000000000    -1.234718768634     1.007825032230

  Nuclear repulsion =    7.081778387667115
  Reference energy  = -460.112043731045048

  ==> Basis Set <==

  Basis Set: AUG-CC-PV(Q+D)Z
    Blend: AUG-CC-PV(Q+D)Z
    Number of shells: 37
    Number of basis function: 135
    Number of Cartesian functions: 170
    Spherical Harmonics?: true
    Max angular momentum: 4

  ==> CGRSolver (by Rob Parrish) <==

   Number of roots    =         1
   Preconditioning    =    JACOBI
   Convergence cutoff =     1E-06
   Maximum iterations =       100

  ==> CPHFRHamiltonian (by Rob Parrish) <== 

  ==> MemDFJK: Density-Fitted J/K Matrices <==

    J tasked:                   Yes
    K tasked:                   Yes
    wK tasked:                   No
    OpenMP threads:              24
    Memory [MiB]:            102996
    Algorithm:                 Core
    Schwarz Cutoff:           1E-12
    Mask sparsity (%):       0.0000
    Fitting Condition:        1E-10

   => Auxiliary Basis Set <=

  Basis Set: (AUG-CC-PV(Q+D)Z AUX)
    Blend: AUG-CC-PVQZ-JKFIT
    Number of shells: 64
    Number of basis function: 260
    Number of Cartesian functions: 348
    Spherical Harmonics?: true
    Max angular momentum: 5

  ==> CPHF Iterations <==

  => Iterations <=

             Iter  Converged  Remaining    Residual
  CGR           1          0          1   4.723E-02
  CGR           2          0          1   1.479E-02
  CGR           3          0          1   3.817E-03
  CGR           4          0          1   5.612E-04
  CGR           5          0          1   1.493E-04
  CGR           6          0          1   2.613E-05
  CGR           7          0          1   2.330E-06
  CGR           8          1          0   2.220E-07

    CGRSolver converged.

Problem determining natural orbital and density matrix symmetries.
Future calls to oeprop using this density will not work. Try disabling symmetry.

  ==> DFCorrGrad: Density-Fitted Correlated Gradients <==

    OpenMP threads:             24
    Integrals threads:          24
    Memory [GiB]:          100.583
    Schwarz Cutoff:          0E+00
    Fitting Condition:       1E-10

   => Auxiliary Basis Set <=

  Basis Set: (AUG-CC-PV(Q+D)Z AUX)
    Blend: AUG-CC-PVQZ-JKFIT
    Number of shells: 64
    Number of basis function: 260
    Number of Cartesian functions: 348
    Spherical Harmonics?: true
    Max angular momentum: 5

	-----------------------------------------------------------
	 ==================> DF-MP2 Energies <==================== 
	-----------------------------------------------------------
	 Reference Energy          =    -460.1120437310450484 [Eh]
	 Singles Energy            =      -0.0000000000000000 [Eh]
	 Same-Spin Energy          =      -0.0928410502417325 [Eh]
	 Opposite-Spin Energy      =      -0.2684792771648710 [Eh]
	 Correlation Energy        =      -0.3613203274066035 [Eh]
	 Total Energy              =    -460.4733640584516365 [Eh]
	-----------------------------------------------------------
	 ================> DF-SCS-MP2 Energies <================== 
	-----------------------------------------------------------
	 SCS Same-Spin Scale       =       0.3333333333333333 [-]
	 SCS Opposite-Spin Scale   =       1.2000000000000000 [-]
	 SCS Same-Spin Energy      =      -0.0309470167472442 [Eh]
	 SCS Opposite-Spin Energy  =      -0.3221751325978451 [Eh]
	 SCS Correlation Energy    =      -0.3531221493450893 [Eh]
	 SCS Total Energy          =    -460.4651658803901455 [Eh]
	-----------------------------------------------------------


  -Total Gradient:
     Atom            X                  Y                   Z
    ------   -----------------  -----------------  -----------------
       1        0.000000000000     0.000000000000     0.000136993139
       2       -0.000000000000     0.000000000000    -0.000136993139


*** tstop() called on bp1-compute00149.data.bp.acrc.priv at Mon Apr 19 16:14:31 2021
Module time:
	user time   =      66.36 seconds =       1.11 minutes
	system time =       3.93 seconds =       0.07 minutes
	total time  =          6 seconds =       0.10 minutes
Total time:
	user time   =     174.35 seconds =       2.91 minutes
	system time =      15.75 seconds =       0.26 minutes
	total time  =         15 seconds =       0.25 minutes

			-----------------------------------------
			 OPTKING 2.0: for geometry optimizations 
			  - R.A. King,  Bethel University        
			-----------------------------------------

	Previous internal coordinate definitions found.
	---Fragment 1 Geometry and Gradient---
	 CL          0.0000000000        0.0000000000        0.0672466532
	 H           0.0000000000        0.0000000000       -2.3332803147
	             0.0000000000        0.0000000000        0.0001369931
	            -0.0000000000        0.0000000000       -0.0001369931

	---Fragment 1 Intrafragment Coordinates---
	 - Coordinate -           - BOHR/RAD -       - ANG/DEG -
	 R(1,2)           =         2.400527	       1.270304

	Current energy   :      -460.4733640585

	Energy change for the previous step:
		Projected    :         0.0000158880
		Actual       :        -0.0000153085

	Performing BFGS update.
	Previous computed or guess Hessian on step 1.
	Steps to be used in Hessian update: 1
	Taking RFO optimization step.
	Going to follow RFO solution 1.
	Using RFO vector 1.
	Norm of target step-size    0.00039
	Projected energy change by RFO approximation:         0.0000000234

	Back-transformation to cartesian coordinates...
	Successfully converged to displaced geometry.

	--- Internal Coordinate Step in ANG or DEG, aJ/ANG or AJ/DEG ---
	 ---------------------------------------------------------------------------
	   Coordinate                Previous        Force       Change         New 
	   ----------                --------       ------       ------       ------
	    1 R(1,2)          =      1.270304    -0.001129    -0.000208     1.270096
	 ---------------------------------------------------------------------------
	Successfully symmetrized geometry.

  ==> Convergence Check <==

  Measures of convergence in internal coordinates in au.
  Criteria marked as inactive (o), active & met (*), and active & unmet ( ).
  ---------------------------------------------------------------------------------------------
   Step     Total Energy     Delta E     MAX Force     RMS Force      MAX Disp      RMS Disp   
  ---------------------------------------------------------------------------------------------
    Convergence Criteria    1.00e-06 *    3.00e-04 *             o    1.20e-03 *             o
  ---------------------------------------------------------------------------------------------
      2    -460.47336406   -1.53e-05      1.37e-04 *    1.37e-04 o    3.93e-04 *    3.93e-04 o  ~
  ---------------------------------------------------------------------------------------------


  **** Optimization is complete! (in 2 steps) ****

  ==> Optimization Summary <==

  Measures of convergence in internal coordinates in au.
  --------------------------------------------------------------------------------------------------------------- ~
   Step         Total Energy             Delta E       MAX Force       RMS Force        MAX Disp        RMS Disp  ~
  --------------------------------------------------------------------------------------------------------------- ~
      1    -460.473348749964   -460.473348749964      0.00327769      0.00327769      0.00979861      0.00979861  ~
      2    -460.473364058452     -0.000015308487      0.00013699      0.00013699      0.00039311      0.00039311  ~
  --------------------------------------------------------------------------------------------------------------- ~

	Writing optimization data to binary file.
	Final energy is   -460.4733640584516
	Final (previous) structure:
	Cartesian Geometry (in Angstrom)
	   CL     0.0000000000   0.0000000000   0.0355853962
	    H     0.0000000000   0.0000000000  -1.2347187638
	Saving final (previous) structure.
			--------------------------
			 OPTKING Finished Execution 
			--------------------------

    Final optimized geometry and variables:
    Molecular point group: c2v
    Full point group: C_inf_v

    Geometry (in Angstrom), charge = 0, multiplicity = 1:

    CL           0.000000000000     0.000000000000     0.035585396356
    H            0.000000000000     0.000000000000    -1.234718768634

	Removing binary optimization data file.
	Cleaning optimization helper files.
gradient() will perform analytic gradient computation.
    SCF Algorithm Type (re)set to DF.

*** tstart() called on bp1-compute00149.data.bp.acrc.priv
*** at Mon Apr 19 16:14:31 2021

   => Loading Basis Set <=

    Name: AUG-CC-PV(Q+D)Z
    Role: ORBITAL
    Keyword: BASIS
    atoms 1 entry CL         line  1246 file /work/zw18965/.conda/envs/p4env/share/psi4/basis/aug-cc-pv_qpd_z.gbs 
    atoms 2 entry H          line    56 file /work/zw18965/.conda/envs/p4env/share/psi4/basis/aug-cc-pv_qpd_z.gbs 


         ---------------------------------------------------------
                                   SCF
               by Justin Turney, Rob Parrish, Andy Simmonett
                          and Daniel G. A. Smith
                              RHF Reference
                       24 Threads, 137329 MiB Core
         ---------------------------------------------------------

  ==> Geometry <==

    Molecular point group: c2v
    Full point group: C_inf_v

    Geometry (in Angstrom), charge = 0, multiplicity = 1:

       Center              X                  Y                   Z               Mass       
    ------------   -----------------  -----------------  -----------------  -----------------
         CL           0.000000000000     0.000000000000     0.035585396356    34.968852682000
         H            0.000000000000     0.000000000000    -1.234718768634     1.007825032230

  Running in c2v symmetry.

  Rotational constants: A = ************  B =     10.66438  C =     10.66438 [cm^-1]
  Rotational constants: A = ************  B = 319710.04852  C = 319710.04852 [MHz]
  Nuclear repulsion =    7.081778387667115

  Charge       = 0
  Multiplicity = 1
  Electrons    = 18
  Nalpha       = 9
  Nbeta        = 9

  ==> Algorithm <==

  SCF Algorithm Type is DF.
  DIIS enabled.
  MOM disabled.
  Fractional occupation disabled.
  Guess Type is SAD.
  Energy threshold   = 1.00e-10
  Density threshold  = 1.00e-10
  Integral threshold = 0.00e+00

  ==> Primary Basis <==

  Basis Set: AUG-CC-PV(Q+D)Z
    Blend: AUG-CC-PV(Q+D)Z
    Number of shells: 37
    Number of basis function: 135
    Number of Cartesian functions: 170
    Spherical Harmonics?: true
    Max angular momentum: 4

   => Loading Basis Set <=

    Name: (AUG-CC-PV(Q+D)Z AUX)
    Role: JKFIT
    Keyword: DF_BASIS_SCF
    atoms 1 entry CL         line   904 file /work/zw18965/.conda/envs/p4env/share/psi4/basis/aug-cc-pvqz-jkfit.gbs 
    atoms 2 entry H          line    70 file /work/zw18965/.conda/envs/p4env/share/psi4/basis/aug-cc-pvqz-jkfit.gbs 

  ==> Pre-Iterations <==

   -------------------------------------------------------
    Irrep   Nso     Nmo     Nalpha   Nbeta   Ndocc  Nsocc
   -------------------------------------------------------
     A1        54      54       0       0       0       0
     A2        17      17       0       0       0       0
     B1        32      32       0       0       0       0
     B2        32      32       0       0       0       0
   -------------------------------------------------------
    Total     135     135       9       9       9       0
   -------------------------------------------------------

  ==> Integral Setup <==

  DFHelper Memory: AOs need 0.044 GiB; user supplied 100.583 GiB. Using in-core AOs.

  ==> MemDFJK: Density-Fitted J/K Matrices <==

    J tasked:                   Yes
    K tasked:                   Yes
    wK tasked:                   No
    OpenMP threads:              24
    Memory [MiB]:            102996
    Algorithm:                 Core
    Schwarz Cutoff:           1E-12
    Mask sparsity (%):       0.0000
    Fitting Condition:        1E-10

   => Auxiliary Basis Set <=

  Basis Set: (AUG-CC-PV(Q+D)Z AUX)
    Blend: AUG-CC-PVQZ-JKFIT
    Number of shells: 64
    Number of basis function: 260
    Number of Cartesian functions: 348
    Spherical Harmonics?: true
    Max angular momentum: 5

  Minimum eigenvalue in the overlap matrix is 9.3347180506E-05.
  Using Symmetric Orthogonalization.

  SCF Guess: Superposition of Atomic Densities via on-the-fly atomic UHF.

  ==> Iterations <==

                           Total Energy        Delta E     RMS |[F,P]|

   @DF-RHF iter SAD:  -459.91945055746334   -4.59919e+02   0.00000e+00 
   @DF-RHF iter   1:  -460.09117785586562   -1.71727e-01   2.54630e-03 DIIS
   @DF-RHF iter   2:  -460.10932703509013   -1.81492e-02   1.04307e-03 DIIS
   @DF-RHF iter   3:  -460.11166820431765   -2.34117e-03   2.16127e-04 DIIS
   @DF-RHF iter   4:  -460.11200150556368   -3.33301e-04   6.81526e-05 DIIS
   @DF-RHF iter   5:  -460.11204272987482   -4.12243e-05   1.14911e-05 DIIS
   @DF-RHF iter   6:  -460.11204369963713   -9.69762e-07   2.77070e-06 DIIS
   @DF-RHF iter   7:  -460.11204372892405   -2.92869e-08   5.33194e-07 DIIS
   @DF-RHF iter   8:  -460.11204373100003   -2.07598e-09   8.39121e-08 DIIS
   @DF-RHF iter   9:  -460.11204373104465   -4.46221e-11   8.21285e-09 DIIS
   @DF-RHF iter  10:  -460.11204373104476   -1.13687e-13   1.15011e-09 DIIS
   @DF-RHF iter  11:  -460.11204373104511   -3.41061e-13   1.01054e-10 DIIS
   @DF-RHF iter  12:  -460.11204373104505    5.68434e-14   1.21965e-11 DIIS
  Energy and wave function converged.


  ==> Post-Iterations <==

    Orbital Energies [Eh]
    ---------------------

    Doubly Occupied:                                                      

       1A1  -104.848303     2A1   -10.574131     3A1    -8.041479  
       1B2    -8.039500     1B1    -8.039500     4A1    -1.117780  
       5A1    -0.626933     2B1    -0.477156     2B2    -0.477156  

    Virtual:                                                              

       6A1     0.025790     7A1     0.089182     3B1     0.097018  
       3B2     0.097018     8A1     0.122216     9A1     0.169788  
       4B1     0.201354     4B2     0.201354    10A1     0.258793  
       1A2     0.258793    11A1     0.275543     5B1     0.323953  
       5B2     0.323953    12A1     0.344260    13A1     0.429104  
       6B1     0.473827     6B2     0.473827    14A1     0.489175  
       7B1     0.577945     7B2     0.577945     2A2     0.619974  
      15A1     0.619974    16A1     0.687530     3A2     0.687530  
      17A1     0.689188     8B1     0.732042     8B2     0.732042  
       9B1     0.823228     9B2     0.823228    18A1     0.833346  
      19A1     0.928433    10B1     0.935712    10B2     0.935712  
      20A1     0.965255     4A2     0.965255    21A1     1.104329  
      11B1     1.302542    11B2     1.302542    22A1     1.367425  
      23A1     1.560785    12B1     1.567497    12B2     1.567497  
      24A1     1.607212     5A2     1.607212    13B1     1.609050  
      13B2     1.609050    25A1     1.707436    14B1     1.799362  
      14B2     1.799362     6A2     1.868049    26A1     1.868049  
      27A1     1.870151     7A2     1.870151    15B1     1.889019  
      15B2     1.889019    28A1     1.893832    29A1     1.973893  
       8A2     1.973893    16B1     2.056090    16B2     2.056090  
      17B2     2.099323    17B1     2.099323    18B2     2.110502  
      18B1     2.110502    30A1     2.146500     9A2     2.156326  
      31A1     2.156326    19B1     2.514198    19B2     2.514198  
      32A1     2.552076    33A1     2.792075    34A1     3.091730  
      20B2     3.154087    20B1     3.154087    35A1     3.162311  
      10A2     3.162311    36A1     3.447610    21B1     3.549064  
      21B2     3.549064    11A2     3.773653    37A1     3.773653  
      38A1     3.899197    22B1     4.160818    22B2     4.160818  
      39A1     4.226086    40A1     4.639376    12A2     4.639376  
      23B1     4.702998    23B2     4.702998    13A2     4.720304  
      41A1     4.720304    24B2     4.725705    24B1     4.725705  
      25B2     4.730066    25B1     4.730066    14A2     4.852626  
      42A1     4.852626    43A1     5.025889    26B1     5.297567  
      26B2     5.297567    44A1     5.333926    27B1     6.258397  
      27B2     6.258397    28B2     6.581807    28B1     6.581807  
      15A2     7.077622    45A1     7.077622    46A1     7.287082  
      29B1     7.672042    29B2     7.672042    47A1     7.787695  
      48A1     8.277440    49A1     8.689277    16A2     8.689277  
      30B1     8.857536    30B2     8.857536    31B1     9.376330  
      31B2     9.376330    50A1     9.705665    51A1    11.144761  
      17A2    11.446117    52A1    11.446117    32B1    11.660506  
      32B2    11.660506    53A1    12.393330    54A1    25.937100  

    Final Occupation by Irrep:
             A1    A2    B1    B2 
    DOCC [     5,    0,    2,    2 ]

  @DF-RHF Final Energy:  -460.11204373104505

   => Energetics <=

    Nuclear Repulsion Energy =              7.0817783876671152
    One-Electron Energy =                -649.9037700690498696
    Two-Electron Energy =                 182.7099479503376926
    Total Energy =                       -460.1120437310451052

Computation Completed


Properties will be evaluated at   0.000000,   0.000000,   0.000000 [a0]

Properties computed using the SCF density matrix

  Nuclear Dipole Moment: [e a0]
     X:     0.0000      Y:     0.0000      Z:    -1.1901

  Electronic Dipole Moment: [e a0]
     X:     0.0000      Y:     0.0000      Z:     0.7273

  Dipole Moment: [e a0]
     X:     0.0000      Y:     0.0000      Z:    -0.4628     Total:     0.4628

  Dipole Moment: [D]
     X:     0.0000      Y:     0.0000      Z:    -1.1764     Total:     1.1764


*** tstop() called on bp1-compute00149.data.bp.acrc.priv at Mon Apr 19 16:14:32 2021
Module time:
	user time   =      26.57 seconds =       0.44 minutes
	system time =       1.10 seconds =       0.02 minutes
	total time  =          1 seconds =       0.02 minutes
Total time:
	user time   =     201.65 seconds =       3.36 minutes
	system time =      16.89 seconds =       0.28 minutes
	total time  =         16 seconds =       0.27 minutes

*** tstart() called on bp1-compute00149.data.bp.acrc.priv
*** at Mon Apr 19 16:14:32 2021


  //>>>>>>>>>>>>>>>>>>>>>>>>>>>>>>>>>>>//
  //               DFMP2               //
  //<<<<<<<<<<<<<<<<<<<<<<<<<<<<<<<<<<<//

   => Loading Basis Set <=

    Name: (AUG-CC-PV(Q+D)Z AUX)
    Role: RIFIT
    Keyword: DF_BASIS_MP2
    atoms 1 entry CL         line   914 file /work/zw18965/.conda/envs/p4env/share/psi4/basis/aug-cc-pvqz-ri.gbs 
    atoms 2 entry H          line    30 file /work/zw18965/.conda/envs/p4env/share/psi4/basis/aug-cc-pvqz-ri.gbs 

	 --------------------------------------------------------
	                          DF-MP2                         
	      2nd-Order Density-Fitted Moller-Plesset Theory     
	              RMP2 Wavefunction,  24 Threads             
	                                                         
	        Rob Parrish, Justin Turney, Andy Simmonett,      
	           Ed Hohenstein, and C. David Sherrill          
	 --------------------------------------------------------

   => Auxiliary Basis Set <=

  Basis Set: (AUG-CC-PV(Q+D)Z AUX)
    Blend: AUG-CC-PVQZ-RI
    Number of shells: 64
    Number of basis function: 274
    Number of Cartesian functions: 373
    Spherical Harmonics?: true
    Max angular momentum: 5

	 --------------------------------------------------------
	                 NBF =   135, NAUX =   274
	 --------------------------------------------------------
	   CLASS    FOCC     OCC    AOCC    AVIR     VIR    FVIR
	   PAIRS       0       9       9     126     126       0
	 --------------------------------------------------------

  DFHelper Memory: AOs need 0.044 GiB; user supplied 100.583 GiB. Using in-core AOs.


         ------------------------------------------------------------
                                     CPHF                           
                                  Rob Parrish                       
         ------------------------------------------------------------

  ==> Geometry <==

    Molecular point group: c2v
    Full point group: C_inf_v

    Geometry (in Angstrom), charge = 0, multiplicity = 1:

       Center              X                  Y                   Z               Mass       
    ------------   -----------------  -----------------  -----------------  -----------------
         CL           0.000000000000     0.000000000000     0.035585396356    34.968852682000
         H            0.000000000000     0.000000000000    -1.234718768634     1.007825032230

  Nuclear repulsion =    7.081778387667115
  Reference energy  = -460.112043731045048

  ==> Basis Set <==

  Basis Set: AUG-CC-PV(Q+D)Z
    Blend: AUG-CC-PV(Q+D)Z
    Number of shells: 37
    Number of basis function: 135
    Number of Cartesian functions: 170
    Spherical Harmonics?: true
    Max angular momentum: 4

  ==> CGRSolver (by Rob Parrish) <==

   Number of roots    =         1
   Preconditioning    =    JACOBI
   Convergence cutoff =     1E-06
   Maximum iterations =       100

  ==> CPHFRHamiltonian (by Rob Parrish) <== 

  ==> MemDFJK: Density-Fitted J/K Matrices <==

    J tasked:                   Yes
    K tasked:                   Yes
    wK tasked:                   No
    OpenMP threads:              24
    Memory [MiB]:            102996
    Algorithm:                 Core
    Schwarz Cutoff:           1E-12
    Mask sparsity (%):       0.0000
    Fitting Condition:        1E-10

   => Auxiliary Basis Set <=

  Basis Set: (AUG-CC-PV(Q+D)Z AUX)
    Blend: AUG-CC-PVQZ-JKFIT
    Number of shells: 64
    Number of basis function: 260
    Number of Cartesian functions: 348
    Spherical Harmonics?: true
    Max angular momentum: 5

  ==> CPHF Iterations <==

  => Iterations <=

             Iter  Converged  Remaining    Residual
  CGR           1          0          1   4.723E-02
  CGR           2          0          1   1.479E-02
  CGR           3          0          1   3.817E-03
  CGR           4          0          1   5.612E-04
  CGR           5          0          1   1.493E-04
  CGR           6          0          1   2.613E-05
  CGR           7          0          1   2.330E-06
  CGR           8          1          0   2.220E-07

    CGRSolver converged.

Problem determining natural orbital and density matrix symmetries.
Future calls to oeprop using this density will not work. Try disabling symmetry.

  ==> DFCorrGrad: Density-Fitted Correlated Gradients <==

    OpenMP threads:             24
    Integrals threads:          24
    Memory [GiB]:          100.583
    Schwarz Cutoff:          0E+00
    Fitting Condition:       1E-10

   => Auxiliary Basis Set <=

  Basis Set: (AUG-CC-PV(Q+D)Z AUX)
    Blend: AUG-CC-PVQZ-JKFIT
    Number of shells: 64
    Number of basis function: 260
    Number of Cartesian functions: 348
    Spherical Harmonics?: true
    Max angular momentum: 5

	-----------------------------------------------------------
	 ==================> DF-MP2 Energies <==================== 
	-----------------------------------------------------------
	 Reference Energy          =    -460.1120437310450484 [Eh]
	 Singles Energy            =      -0.0000000000000000 [Eh]
	 Same-Spin Energy          =      -0.0928410502429373 [Eh]
	 Opposite-Spin Energy      =      -0.2684792771676500 [Eh]
	 Correlation Energy        =      -0.3613203274105873 [Eh]
	 Total Energy              =    -460.4733640584556156 [Eh]
	-----------------------------------------------------------
	 ================> DF-SCS-MP2 Energies <================== 
	-----------------------------------------------------------
	 SCS Same-Spin Scale       =       0.3333333333333333 [-]
	 SCS Opposite-Spin Scale   =       1.2000000000000000 [-]
	 SCS Same-Spin Energy      =      -0.0309470167476458 [Eh]
	 SCS Opposite-Spin Energy  =      -0.3221751326011800 [Eh]
	 SCS Correlation Energy    =      -0.3531221493488257 [Eh]
	 SCS Total Energy          =    -460.4651658803938972 [Eh]
	-----------------------------------------------------------


  -Total Gradient:
     Atom            X                  Y                   Z
    ------   -----------------  -----------------  -----------------
       1        0.000000000000     0.000000000000     0.000136993191
       2       -0.000000000000    -0.000000000000    -0.000136993191


*** tstop() called on bp1-compute00149.data.bp.acrc.priv at Mon Apr 19 16:14:39 2021
Module time:
	user time   =      65.82 seconds =       1.10 minutes
	system time =       3.92 seconds =       0.07 minutes
	total time  =          7 seconds =       0.12 minutes
Total time:
	user time   =     267.48 seconds =       4.46 minutes
	system time =      20.81 seconds =       0.35 minutes
	total time  =         23 seconds =       0.38 minutes

  Based on options and gradient (rms=7.91E-05), recommend projecting translations and projecting rotations.
hessian() will perform frequency computation by finite difference of analytic gradients.

         ----------------------------------------------------------
                                   FINDIF
                     R. A. King and Jonathon Misiewicz
         ---------------------------------------------------------

  Using finite-differences of gradients to determine vibrational frequencies and 
  normal modes.  Resulting frequencies are only valid at stationary points.
    Generating geometries for use with 3-point formula.
    Displacement size will be 5.00e-03.
    Number of atoms is 2.
    Number of irreps is 4.
    Number of SALCs is 1.
    Translations projected? 1. Rotations projected? 1.
    Index of SALCs per irrep:
     1 :  0 
     2 : 
     3 : 
     4 : 
    Number of SALCs per irrep:
     Irrep 1: 1
     Irrep 2: 0
     Irrep 3: 0
     Irrep 4: 0
    Number of geometries (including reference) is 3.
    Number of displacements per irrep:
      Irrep 1: 2
      Irrep 2: 0
      Irrep 3: 0
      Irrep 4: 0

  //>>>>>>>>>>>>>>>>>>>>>>>>>>>>>>>>>>>//
  //    Loading displacement 1 of 3    //
  //<<<<<<<<<<<<<<<<<<<<<<<<<<<<<<<<<<<//
gradient() will perform analytic gradient computation.
    SCF Algorithm Type (re)set to DF.

*** tstart() called on bp1-compute00149.data.bp.acrc.priv
*** at Mon Apr 19 16:14:39 2021

   => Loading Basis Set <=

    Name: AUG-CC-PV(Q+D)Z
    Role: ORBITAL
    Keyword: BASIS
    atoms 1 entry CL         line  1246 file /work/zw18965/.conda/envs/p4env/share/psi4/basis/aug-cc-pv_qpd_z.gbs 
    atoms 2 entry H          line    56 file /work/zw18965/.conda/envs/p4env/share/psi4/basis/aug-cc-pv_qpd_z.gbs 


         ---------------------------------------------------------
                                   SCF
               by Justin Turney, Rob Parrish, Andy Simmonett
                          and Daniel G. A. Smith
                              RHF Reference
                       24 Threads, 137329 MiB Core
         ---------------------------------------------------------

  ==> Geometry <==

    Molecular point group: c2v
    Full point group: C_inf_v

    Geometry (in Angstrom), charge = 0, multiplicity = 1:

       Center              X                  Y                   Z               Mass       
    ------------   -----------------  -----------------  -----------------  -----------------
         CL           0.000000000000     0.000000000000     0.035585396356    34.968852682000
         H            0.000000000000     0.000000000000    -1.234718768634     1.007825032230

  Running in c2v symmetry.

  Rotational constants: A = ************  B =     10.66438  C =     10.66438 [cm^-1]
  Rotational constants: A = ************  B = 319710.04852  C = 319710.04852 [MHz]
  Nuclear repulsion =    7.081778387667115

  Charge       = 0
  Multiplicity = 1
  Electrons    = 18
  Nalpha       = 9
  Nbeta        = 9

  ==> Algorithm <==

  SCF Algorithm Type is DF.
  DIIS enabled.
  MOM disabled.
  Fractional occupation disabled.
  Guess Type is SAD.
  Energy threshold   = 1.00e-10
  Density threshold  = 1.00e-10
  Integral threshold = 0.00e+00

  ==> Primary Basis <==

  Basis Set: AUG-CC-PV(Q+D)Z
    Blend: AUG-CC-PV(Q+D)Z
    Number of shells: 37
    Number of basis function: 135
    Number of Cartesian functions: 170
    Spherical Harmonics?: true
    Max angular momentum: 4

   => Loading Basis Set <=

    Name: (AUG-CC-PV(Q+D)Z AUX)
    Role: JKFIT
    Keyword: DF_BASIS_SCF
    atoms 1 entry CL         line   904 file /work/zw18965/.conda/envs/p4env/share/psi4/basis/aug-cc-pvqz-jkfit.gbs 
    atoms 2 entry H          line    70 file /work/zw18965/.conda/envs/p4env/share/psi4/basis/aug-cc-pvqz-jkfit.gbs 

  ==> Pre-Iterations <==

   -------------------------------------------------------
    Irrep   Nso     Nmo     Nalpha   Nbeta   Ndocc  Nsocc
   -------------------------------------------------------
     A1        54      54       0       0       0       0
     A2        17      17       0       0       0       0
     B1        32      32       0       0       0       0
     B2        32      32       0       0       0       0
   -------------------------------------------------------
    Total     135     135       9       9       9       0
   -------------------------------------------------------

  ==> Integral Setup <==

  DFHelper Memory: AOs need 0.044 GiB; user supplied 100.583 GiB. Using in-core AOs.

  ==> MemDFJK: Density-Fitted J/K Matrices <==

    J tasked:                   Yes
    K tasked:                   Yes
    wK tasked:                   No
    OpenMP threads:              24
    Memory [MiB]:            102996
    Algorithm:                 Core
    Schwarz Cutoff:           1E-12
    Mask sparsity (%):       0.0000
    Fitting Condition:        1E-10

   => Auxiliary Basis Set <=

  Basis Set: (AUG-CC-PV(Q+D)Z AUX)
    Blend: AUG-CC-PVQZ-JKFIT
    Number of shells: 64
    Number of basis function: 260
    Number of Cartesian functions: 348
    Spherical Harmonics?: true
    Max angular momentum: 5

  Minimum eigenvalue in the overlap matrix is 9.3347180506E-05.
  Using Symmetric Orthogonalization.

  SCF Guess: Superposition of Atomic Densities via on-the-fly atomic UHF.

  ==> Iterations <==

                           Total Energy        Delta E     RMS |[F,P]|

   @DF-RHF iter SAD:  -459.91945055746356   -4.59919e+02   0.00000e+00 
   @DF-RHF iter   1:  -460.09117785586545   -1.71727e-01   2.54630e-03 DIIS
   @DF-RHF iter   2:  -460.10932703509025   -1.81492e-02   1.04307e-03 DIIS
   @DF-RHF iter   3:  -460.11166820431731   -2.34117e-03   2.16127e-04 DIIS
   @DF-RHF iter   4:  -460.11200150556380   -3.33301e-04   6.81526e-05 DIIS
   @DF-RHF iter   5:  -460.11204272987442   -4.12243e-05   1.14911e-05 DIIS
   @DF-RHF iter   6:  -460.11204369963690   -9.69762e-07   2.77070e-06 DIIS
   @DF-RHF iter   7:  -460.11204372892439   -2.92875e-08   5.33194e-07 DIIS
   @DF-RHF iter   8:  -460.11204373099997   -2.07558e-09   8.39121e-08 DIIS
   @DF-RHF iter   9:  -460.11204373104471   -4.47358e-11   8.21286e-09 DIIS
   @DF-RHF iter  10:  -460.11204373104488   -1.70530e-13   1.15011e-09 DIIS
   @DF-RHF iter  11:  -460.11204373104516   -2.84217e-13   1.01054e-10 DIIS
   @DF-RHF iter  12:  -460.11204373104511    5.68434e-14   1.21953e-11 DIIS
  Energy and wave function converged.


  ==> Post-Iterations <==

    Orbital Energies [Eh]
    ---------------------

    Doubly Occupied:                                                      

       1A1  -104.848303     2A1   -10.574131     3A1    -8.041479  
       1B2    -8.039500     1B1    -8.039500     4A1    -1.117780  
       5A1    -0.626933     2B1    -0.477156     2B2    -0.477156  

    Virtual:                                                              

       6A1     0.025790     7A1     0.089182     3B1     0.097018  
       3B2     0.097018     8A1     0.122216     9A1     0.169788  
       4B1     0.201354     4B2     0.201354    10A1     0.258793  
       1A2     0.258793    11A1     0.275543     5B1     0.323953  
       5B2     0.323953    12A1     0.344260    13A1     0.429104  
       6B1     0.473827     6B2     0.473827    14A1     0.489175  
       7B1     0.577945     7B2     0.577945     2A2     0.619974  
      15A1     0.619974    16A1     0.687530     3A2     0.687530  
      17A1     0.689188     8B1     0.732042     8B2     0.732042  
       9B1     0.823228     9B2     0.823228    18A1     0.833346  
      19A1     0.928433    10B1     0.935712    10B2     0.935712  
      20A1     0.965255     4A2     0.965255    21A1     1.104329  
      11B1     1.302542    11B2     1.302542    22A1     1.367425  
      23A1     1.560785    12B1     1.567497    12B2     1.567497  
      24A1     1.607212     5A2     1.607212    13B1     1.609050  
      13B2     1.609050    25A1     1.707436    14B1     1.799362  
      14B2     1.799362     6A2     1.868049    26A1     1.868049  
      27A1     1.870151     7A2     1.870151    15B1     1.889019  
      15B2     1.889019    28A1     1.893832    29A1     1.973893  
       8A2     1.973893    16B1     2.056090    16B2     2.056090  
      17B2     2.099323    17B1     2.099323    18B2     2.110502  
      18B1     2.110502    30A1     2.146500     9A2     2.156326  
      31A1     2.156326    19B1     2.514198    19B2     2.514198  
      32A1     2.552076    33A1     2.792075    34A1     3.091730  
      20B2     3.154087    20B1     3.154087    35A1     3.162311  
      10A2     3.162311    36A1     3.447610    21B1     3.549064  
      21B2     3.549064    11A2     3.773653    37A1     3.773653  
      38A1     3.899197    22B1     4.160818    22B2     4.160818  
      39A1     4.226086    40A1     4.639376    12A2     4.639376  
      23B1     4.702998    23B2     4.702998    13A2     4.720304  
      41A1     4.720304    24B2     4.725705    24B1     4.725705  
      25B2     4.730066    25B1     4.730066    14A2     4.852626  
      42A1     4.852626    43A1     5.025889    26B1     5.297567  
      26B2     5.297567    44A1     5.333926    27B1     6.258397  
      27B2     6.258397    28B2     6.581807    28B1     6.581807  
      15A2     7.077622    45A1     7.077622    46A1     7.287082  
      29B1     7.672042    29B2     7.672042    47A1     7.787695  
      48A1     8.277440    49A1     8.689277    16A2     8.689277  
      30B1     8.857536    30B2     8.857536    31B1     9.376330  
      31B2     9.376330    50A1     9.705665    51A1    11.144761  
      17A2    11.446117    52A1    11.446117    32B1    11.660506  
      32B2    11.660506    53A1    12.393330    54A1    25.937100  

    Final Occupation by Irrep:
             A1    A2    B1    B2 
    DOCC [     5,    0,    2,    2 ]

  @DF-RHF Final Energy:  -460.11204373104511

   => Energetics <=

    Nuclear Repulsion Energy =              7.0817783876671152
    One-Electron Energy =                -649.9037700690470274
    Two-Electron Energy =                 182.7099479503347936
    Total Energy =                       -460.1120437310451052

Computation Completed


Properties will be evaluated at   0.000000,   0.000000,   0.000000 [a0]

Properties computed using the SCF density matrix

  Nuclear Dipole Moment: [e a0]
     X:     0.0000      Y:     0.0000      Z:    -1.1901

  Electronic Dipole Moment: [e a0]
     X:     0.0000      Y:     0.0000      Z:     0.7273

  Dipole Moment: [e a0]
     X:     0.0000      Y:     0.0000      Z:    -0.4628     Total:     0.4628

  Dipole Moment: [D]
     X:     0.0000      Y:     0.0000      Z:    -1.1764     Total:     1.1764


*** tstop() called on bp1-compute00149.data.bp.acrc.priv at Mon Apr 19 16:14:40 2021
Module time:
	user time   =      23.30 seconds =       0.39 minutes
	system time =       0.83 seconds =       0.01 minutes
	total time  =          1 seconds =       0.02 minutes
Total time:
	user time   =     295.28 seconds =       4.92 minutes
	system time =      21.83 seconds =       0.36 minutes
	total time  =         24 seconds =       0.40 minutes

*** tstart() called on bp1-compute00149.data.bp.acrc.priv
*** at Mon Apr 19 16:14:40 2021


  //>>>>>>>>>>>>>>>>>>>>>>>>>>>>>>>>>>>//
  //               DFMP2               //
  //<<<<<<<<<<<<<<<<<<<<<<<<<<<<<<<<<<<//

   => Loading Basis Set <=

    Name: (AUG-CC-PV(Q+D)Z AUX)
    Role: RIFIT
    Keyword: DF_BASIS_MP2
    atoms 1 entry CL         line   914 file /work/zw18965/.conda/envs/p4env/share/psi4/basis/aug-cc-pvqz-ri.gbs 
    atoms 2 entry H          line    30 file /work/zw18965/.conda/envs/p4env/share/psi4/basis/aug-cc-pvqz-ri.gbs 

	 --------------------------------------------------------
	                          DF-MP2                         
	      2nd-Order Density-Fitted Moller-Plesset Theory     
	              RMP2 Wavefunction,  24 Threads             
	                                                         
	        Rob Parrish, Justin Turney, Andy Simmonett,      
	           Ed Hohenstein, and C. David Sherrill          
	 --------------------------------------------------------

   => Auxiliary Basis Set <=

  Basis Set: (AUG-CC-PV(Q+D)Z AUX)
    Blend: AUG-CC-PVQZ-RI
    Number of shells: 64
    Number of basis function: 274
    Number of Cartesian functions: 373
    Spherical Harmonics?: true
    Max angular momentum: 5

	 --------------------------------------------------------
	                 NBF =   135, NAUX =   274
	 --------------------------------------------------------
	   CLASS    FOCC     OCC    AOCC    AVIR     VIR    FVIR
	   PAIRS       0       9       9     126     126       0
	 --------------------------------------------------------

  DFHelper Memory: AOs need 0.044 GiB; user supplied 100.583 GiB. Using in-core AOs.


         ------------------------------------------------------------
                                     CPHF                           
                                  Rob Parrish                       
         ------------------------------------------------------------

  ==> Geometry <==

    Molecular point group: c2v
    Full point group: C_inf_v

    Geometry (in Angstrom), charge = 0, multiplicity = 1:

       Center              X                  Y                   Z               Mass       
    ------------   -----------------  -----------------  -----------------  -----------------
         CL           0.000000000000     0.000000000000     0.035585396356    34.968852682000
         H            0.000000000000     0.000000000000    -1.234718768634     1.007825032230

  Nuclear repulsion =    7.081778387667115
  Reference energy  = -460.112043731045105

  ==> Basis Set <==

  Basis Set: AUG-CC-PV(Q+D)Z
    Blend: AUG-CC-PV(Q+D)Z
    Number of shells: 37
    Number of basis function: 135
    Number of Cartesian functions: 170
    Spherical Harmonics?: true
    Max angular momentum: 4

  ==> CGRSolver (by Rob Parrish) <==

   Number of roots    =         1
   Preconditioning    =    JACOBI
   Convergence cutoff =     1E-06
   Maximum iterations =       100

  ==> CPHFRHamiltonian (by Rob Parrish) <== 

  ==> MemDFJK: Density-Fitted J/K Matrices <==

    J tasked:                   Yes
    K tasked:                   Yes
    wK tasked:                   No
    OpenMP threads:              24
    Memory [MiB]:            102996
    Algorithm:                 Core
    Schwarz Cutoff:           1E-12
    Mask sparsity (%):       0.0000
    Fitting Condition:        1E-10

   => Auxiliary Basis Set <=

  Basis Set: (AUG-CC-PV(Q+D)Z AUX)
    Blend: AUG-CC-PVQZ-JKFIT
    Number of shells: 64
    Number of basis function: 260
    Number of Cartesian functions: 348
    Spherical Harmonics?: true
    Max angular momentum: 5

  ==> CPHF Iterations <==

  => Iterations <=

             Iter  Converged  Remaining    Residual
  CGR           1          0          1   4.723E-02
  CGR           2          0          1   1.479E-02
  CGR           3          0          1   3.817E-03
  CGR           4          0          1   5.612E-04
  CGR           5          0          1   1.493E-04
  CGR           6          0          1   2.613E-05
  CGR           7          0          1   2.330E-06
  CGR           8          1          0   2.220E-07

    CGRSolver converged.

Problem determining natural orbital and density matrix symmetries.
Future calls to oeprop using this density will not work. Try disabling symmetry.

  ==> DFCorrGrad: Density-Fitted Correlated Gradients <==

    OpenMP threads:             24
    Integrals threads:          24
    Memory [GiB]:          100.583
    Schwarz Cutoff:          0E+00
    Fitting Condition:       1E-10

   => Auxiliary Basis Set <=

  Basis Set: (AUG-CC-PV(Q+D)Z AUX)
    Blend: AUG-CC-PVQZ-JKFIT
    Number of shells: 64
    Number of basis function: 260
    Number of Cartesian functions: 348
    Spherical Harmonics?: true
    Max angular momentum: 5

	-----------------------------------------------------------
	 ==================> DF-MP2 Energies <==================== 
	-----------------------------------------------------------
	 Reference Energy          =    -460.1120437310451052 [Eh]
	 Singles Energy            =      -0.0000000000000000 [Eh]
	 Same-Spin Energy          =      -0.0928410502429380 [Eh]
	 Opposite-Spin Energy      =      -0.2684792771676475 [Eh]
	 Correlation Energy        =      -0.3613203274105855 [Eh]
	 Total Energy              =    -460.4733640584556724 [Eh]
	-----------------------------------------------------------
	 ================> DF-SCS-MP2 Energies <================== 
	-----------------------------------------------------------
	 SCS Same-Spin Scale       =       0.3333333333333333 [-]
	 SCS Opposite-Spin Scale   =       1.2000000000000000 [-]
	 SCS Same-Spin Energy      =      -0.0309470167476460 [Eh]
	 SCS Opposite-Spin Energy  =      -0.3221751326011770 [Eh]
	 SCS Correlation Energy    =      -0.3531221493488230 [Eh]
	 SCS Total Energy          =    -460.4651658803939540 [Eh]
	-----------------------------------------------------------


  -Total Gradient:
     Atom            X                  Y                   Z
    ------   -----------------  -----------------  -----------------
       1        0.000000000000    -0.000000000000     0.000136993269
       2        0.000000000000     0.000000000000    -0.000136993269


*** tstop() called on bp1-compute00149.data.bp.acrc.priv at Mon Apr 19 16:14:46 2021
Module time:
	user time   =      65.73 seconds =       1.10 minutes
	system time =       3.95 seconds =       0.07 minutes
	total time  =          6 seconds =       0.10 minutes
Total time:
	user time   =     361.02 seconds =       6.02 minutes
	system time =      25.78 seconds =       0.43 minutes
	total time  =         30 seconds =       0.50 minutes

  //>>>>>>>>>>>>>>>>>>>>>>>>>>>>>>>>>>>//
  //    Loading displacement 2 of 3    //
  //<<<<<<<<<<<<<<<<<<<<<<<<<<<<<<<<<<<//
gradient() will perform analytic gradient computation.
    SCF Algorithm Type (re)set to DF.

*** tstart() called on bp1-compute00149.data.bp.acrc.priv
*** at Mon Apr 19 16:14:46 2021

   => Loading Basis Set <=

    Name: AUG-CC-PV(Q+D)Z
    Role: ORBITAL
    Keyword: BASIS
    atoms 1 entry CL         line  1246 file /work/zw18965/.conda/envs/p4env/share/psi4/basis/aug-cc-pv_qpd_z.gbs 
    atoms 2 entry H          line    56 file /work/zw18965/.conda/envs/p4env/share/psi4/basis/aug-cc-pv_qpd_z.gbs 


         ---------------------------------------------------------
                                   SCF
               by Justin Turney, Rob Parrish, Andy Simmonett
                          and Daniel G. A. Smith
                              RHF Reference
                       24 Threads, 137329 MiB Core
         ---------------------------------------------------------

  ==> Geometry <==

    Molecular point group: c2v
    Full point group: C_inf_v

    Geometry (in Angstrom), charge = 0, multiplicity = 1:

       Center              X                  Y                   Z               Mass       
    ------------   -----------------  -----------------  -----------------  -----------------
         CL           0.000000000000     0.000000000000     0.035510508312    34.968852682000
         H            0.000000000000     0.000000000000    -1.232120352343     1.007825032230

  Running in c2v symmetry.

  Rotational constants: A = ************  B =     10.70941  C =     10.70941 [cm^-1]
  Rotational constants: A = ************  B = 321059.94226  C = 321059.94226 [MHz]
  Nuclear repulsion =    7.096713136774625

  Charge       = 0
  Multiplicity = 1
  Electrons    = 18
  Nalpha       = 9
  Nbeta        = 9

  ==> Algorithm <==

  SCF Algorithm Type is DF.
  DIIS enabled.
  MOM disabled.
  Fractional occupation disabled.
  Guess Type is SAD.
  Energy threshold   = 1.00e-10
  Density threshold  = 1.00e-10
  Integral threshold = 0.00e+00

  ==> Primary Basis <==

  Basis Set: AUG-CC-PV(Q+D)Z
    Blend: AUG-CC-PV(Q+D)Z
    Number of shells: 37
    Number of basis function: 135
    Number of Cartesian functions: 170
    Spherical Harmonics?: true
    Max angular momentum: 4

   => Loading Basis Set <=

    Name: (AUG-CC-PV(Q+D)Z AUX)
    Role: JKFIT
    Keyword: DF_BASIS_SCF
    atoms 1 entry CL         line   904 file /work/zw18965/.conda/envs/p4env/share/psi4/basis/aug-cc-pvqz-jkfit.gbs 
    atoms 2 entry H          line    70 file /work/zw18965/.conda/envs/p4env/share/psi4/basis/aug-cc-pvqz-jkfit.gbs 

  ==> Pre-Iterations <==

   -------------------------------------------------------
    Irrep   Nso     Nmo     Nalpha   Nbeta   Ndocc  Nsocc
   -------------------------------------------------------
     A1        54      54       0       0       0       0
     A2        17      17       0       0       0       0
     B1        32      32       0       0       0       0
     B2        32      32       0       0       0       0
[...]
    Schwarz Cutoff:           1E-12
    Mask sparsity (%):       0.0000
    Fitting Condition:        1E-10

   => Auxiliary Basis Set <=

  Basis Set: (AUG-CC-PV(Q+D)Z AUX)
    Blend: AUG-CC-PVQZ-JKFIT
    Number of shells: 64
    Number of basis function: 260
    Number of Cartesian functions: 348
    Spherical Harmonics?: true
    Max angular momentum: 5

  Minimum eigenvalue in the overlap matrix is 9.3975711595E-05.
  Using Symmetric Orthogonalization.

  SCF Guess: Superposition of Atomic Densities via on-the-fly atomic UHF.

  ==> Iterations <==

                           Total Energy        Delta E     RMS |[F,P]|

   @DF-RHF iter SAD:  -459.91764891895917   -4.59918e+02   0.00000e+00 
   @DF-RHF iter   1:  -460.09107829978393   -1.73429e-01   2.54891e-03 DIIS
   @DF-RHF iter   2:  -460.10928722075079   -1.82089e-02   1.04632e-03 DIIS
   @DF-RHF iter   3:  -460.11164270315470   -2.35548e-03   2.16215e-04 DIIS
   @DF-RHF iter   4:  -460.11197661038045   -3.33907e-04   6.82327e-05 DIIS
   @DF-RHF iter   5:  -460.11201797508392   -4.13647e-05   1.15068e-05 DIIS
   @DF-RHF iter   6:  -460.11201895011112   -9.75027e-07   2.77570e-06 DIIS
   @DF-RHF iter   7:  -460.11201897938929   -2.92782e-08   5.32433e-07 DIIS
   @DF-RHF iter   8:  -460.11201898146470   -2.07541e-09   8.42192e-08 DIIS
   @DF-RHF iter   9:  -460.11201898150904   -4.43379e-11   8.27310e-09 DIIS
   @DF-RHF iter  10:  -460.11201898150892    1.13687e-13   1.16033e-09 DIIS
   @DF-RHF iter  11:  -460.11201898150892    0.00000e+00   1.02060e-10 DIIS
   @DF-RHF iter  12:  -460.11201898150955   -6.25278e-13   1.23319e-11 DIIS
  Energy and wave function converged.


  ==> Post-Iterations <==

    Orbital Energies [Eh]
    ---------------------

    Doubly Occupied:                                                      

       1A1  -104.848451     2A1   -10.574204     3A1    -8.041544  
       1B1    -8.039577     1B2    -8.039577     4A1    -1.117272  
       5A1    -0.626358     2B1    -0.477087     2B2    -0.477087  

    Virtual:                                                              

       6A1     0.025756     7A1     0.089214     3B2     0.097040  
       3B1     0.097040     8A1     0.121949     9A1     0.169638  
       4B2     0.201313     4B1     0.201313    10A1     0.258826  
       1A2     0.258826    11A1     0.275368     5B2     0.323930  
       5B1     0.323930    12A1     0.344037    13A1     0.429087  
       6B2     0.473769     6B1     0.473769    14A1     0.489312  
       7B1     0.578153     7B2     0.578153     2A2     0.620148  
      15A1     0.620148    16A1     0.687474     3A2     0.687474  
      17A1     0.688932     8B1     0.731689     8B2     0.731689  
       9B1     0.823270     9B2     0.823270    18A1     0.832737  
      19A1     0.928223    10B1     0.935564    10B2     0.935564  
      20A1     0.965113     4A2     0.965113    21A1     1.104490  
      11B1     1.302015    11B2     1.302015    22A1     1.366549  
      23A1     1.560469    12B1     1.567413    12B2     1.567413  
      24A1     1.607274     5A2     1.607274    13B1     1.608537  
      13B2     1.608537    25A1     1.707645    14B1     1.800133  
      14B2     1.800133    26A1     1.868105     6A2     1.868105  
      27A1     1.872150     7A2     1.872150    15B1     1.888218  
      15B2     1.888218    28A1     1.892123    29A1     1.972523  
       8A2     1.972523    16B1     2.056209    16B2     2.056209  
      17B1     2.098599    17B2     2.098599    18B1     2.110111  
      18B2     2.110111    30A1     2.147106    31A1     2.156070  
       9A2     2.156070    19B1     2.512643    19B2     2.512643  
      32A1     2.552843    33A1     2.788856    34A1     3.089110  
      20B1     3.151699    20B2     3.151699    35A1     3.158646  
      10A2     3.158646    36A1     3.446960    21B1     3.548455  
      21B2     3.548455    11A2     3.773150    37A1     3.773150  
      38A1     3.901080    22B1     4.160486    22B2     4.160486  
      39A1     4.222370    12A2     4.639797    40A1     4.639797  
      23B2     4.703023    23B1     4.703023    13A2     4.720364  
      41A1     4.720364    24B1     4.724328    24B2     4.724328  
      25B1     4.730299    25B2     4.730299    14A2     4.851662  
      42A1     4.851662    43A1     5.025286    26B1     5.295559  
      26B2     5.295559    44A1     5.331608    27B1     6.255085  
      27B2     6.255085    28B2     6.580968    28B1     6.580968  
      45A1     7.073303    15A2     7.073303    46A1     7.278752  
      29B1     7.667823    29B2     7.667823    47A1     7.793921  
      48A1     8.268534    49A1     8.685738    16A2     8.685738  
      30B1     8.848372    30B2     8.848372    31B1     9.374784  
      31B2     9.374784    50A1     9.703041    51A1    11.137902  
      17A2    11.445951    52A1    11.445951    32B1    11.660029  
      32B2    11.660029    53A1    12.378710    54A1    25.908194  

    Final Occupation by Irrep:
             A1    A2    B1    B2 
    DOCC [     5,    0,    2,    2 ]

  @DF-RHF Final Energy:  -460.11201898150955

   => Energetics <=

    Nuclear Repulsion Energy =              7.0669063657177791
    One-Electron Energy =                -649.8755382772078519
    Two-Electron Energy =                 182.6966129299805743
    Total Energy =                       -460.1120189815095500

Computation Completed


Properties will be evaluated at   0.000000,   0.000000,   0.000000 [a0]

Properties computed using the SCF density matrix

  Nuclear Dipole Moment: [e a0]
     X:     0.0000      Y:     0.0000      Z:    -1.1926

  Electronic Dipole Moment: [e a0]
     X:     0.0000      Y:     0.0000      Z:     0.7286

  Dipole Moment: [e a0]
     X:     0.0000      Y:     0.0000      Z:    -0.4640     Total:     0.4640

  Dipole Moment: [D]
     X:     0.0000      Y:     0.0000      Z:    -1.1794     Total:     1.1794


*** tstop() called on bp1-compute00149.data.bp.acrc.priv at Mon Apr 19 16:14:55 2021
Module time:
	user time   =      27.27 seconds =       0.45 minutes
	system time =       1.08 seconds =       0.02 minutes
	total time  =          1 seconds =       0.02 minutes
Total time:
	user time   =     481.74 seconds =       8.03 minutes
	system time =      31.78 seconds =       0.53 minutes
	total time  =         39 seconds =       0.65 minutes

*** tstart() called on bp1-compute00149.data.bp.acrc.priv
*** at Mon Apr 19 16:14:55 2021


  //>>>>>>>>>>>>>>>>>>>>>>>>>>>>>>>>>>>//
  //               DFMP2               //
  //<<<<<<<<<<<<<<<<<<<<<<<<<<<<<<<<<<<//

   => Loading Basis Set <=

    Name: (AUG-CC-PV(Q+D)Z AUX)
    Role: RIFIT
    Keyword: DF_BASIS_MP2
    atoms 1 entry CL         line   914 file /work/zw18965/.conda/envs/p4env/share/psi4/basis/aug-cc-pvqz-ri.gbs 
    atoms 2 entry H          line    30 file /work/zw18965/.conda/envs/p4env/share/psi4/basis/aug-cc-pvqz-ri.gbs 

	 --------------------------------------------------------
	                          DF-MP2                         
	      2nd-Order Density-Fitted Moller-Plesset Theory     
	              RMP2 Wavefunction,  24 Threads             
	                                                         
	        Rob Parrish, Justin Turney, Andy Simmonett,      
	           Ed Hohenstein, and C. David Sherrill          
	 --------------------------------------------------------

   => Auxiliary Basis Set <=

  Basis Set: (AUG-CC-PV(Q+D)Z AUX)
    Blend: AUG-CC-PVQZ-RI
    Number of shells: 64
    Number of basis function: 274
    Number of Cartesian functions: 373
    Spherical Harmonics?: true
    Max angular momentum: 5

	 --------------------------------------------------------
	                 NBF =   135, NAUX =   274
	 --------------------------------------------------------
	   CLASS    FOCC     OCC    AOCC    AVIR     VIR    FVIR
	   PAIRS       0       9       9     126     126       0
	 --------------------------------------------------------

  DFHelper Memory: AOs need 0.044 GiB; user supplied 100.583 GiB. Using in-core AOs.


         ------------------------------------------------------------
                                     CPHF                           
                                  Rob Parrish                       
         ------------------------------------------------------------

  ==> Geometry <==

    Molecular point group: c2v
    Full point group: C_inf_v

    Geometry (in Angstrom), charge = 0, multiplicity = 1:

       Center              X                  Y                   Z               Mass       
    ------------   -----------------  -----------------  -----------------  -----------------
         CL           0.000000000000     0.000000000000     0.035660284400    34.968852682000
         H            0.000000000000     0.000000000000    -1.237317184925     1.007825032230

  Nuclear repulsion =    7.066906365717779
  Reference energy  = -460.112018981509550

  ==> Basis Set <==

  Basis Set: AUG-CC-PV(Q+D)Z
    Blend: AUG-CC-PV(Q+D)Z
    Number of shells: 37
    Number of basis function: 135
    Number of Cartesian functions: 170
    Spherical Harmonics?: true
    Max angular momentum: 4

  ==> CGRSolver (by Rob Parrish) <==

   Number of roots    =         1
   Preconditioning    =    JACOBI
   Convergence cutoff =     1E-06
   Maximum iterations =       100

  ==> CPHFRHamiltonian (by Rob Parrish) <== 

  ==> MemDFJK: Density-Fitted J/K Matrices <==

    J tasked:                   Yes
    K tasked:                   Yes
    wK tasked:                   No
    OpenMP threads:              24
    Memory [MiB]:            102996
    Algorithm:                 Core
    Schwarz Cutoff:           1E-12
    Mask sparsity (%):       0.0000
    Fitting Condition:        1E-10

   => Auxiliary Basis Set <=

  Basis Set: (AUG-CC-PV(Q+D)Z AUX)
    Blend: AUG-CC-PVQZ-JKFIT
    Number of shells: 64
    Number of basis function: 260
    Number of Cartesian functions: 348
    Spherical Harmonics?: true
    Max angular momentum: 5

  ==> CPHF Iterations <==

  => Iterations <=

             Iter  Converged  Remaining    Residual
  CGR           1          0          1   4.725E-02
  CGR           2          0          1   1.482E-02
  CGR           3          0          1   3.828E-03
  CGR           4          0          1   5.661E-04
  CGR           5          0          1   1.502E-04
  CGR           6          0          1   2.625E-05
  CGR           7          0          1   2.346E-06
  CGR           8          1          0   2.237E-07

    CGRSolver converged.

Problem determining natural orbital and density matrix symmetries.
Future calls to oeprop using this density will not work. Try disabling symmetry.

  ==> DFCorrGrad: Density-Fitted Correlated Gradients <==

    OpenMP threads:             24
    Integrals threads:          24
    Memory [GiB]:          100.583
    Schwarz Cutoff:          0E+00
    Fitting Condition:       1E-10

   => Auxiliary Basis Set <=

  Basis Set: (AUG-CC-PV(Q+D)Z AUX)
    Blend: AUG-CC-PVQZ-JKFIT
    Number of shells: 64
    Number of basis function: 260
    Number of Cartesian functions: 348
    Spherical Harmonics?: true
    Max angular momentum: 5

	-----------------------------------------------------------
	 ==================> DF-MP2 Energies <==================== 
	-----------------------------------------------------------
	 Reference Energy          =    -460.1120189815095500 [Eh]
	 Singles Energy            =      -0.0000000000000000 [Eh]
	 Same-Spin Energy          =      -0.0928412102159013 [Eh]
	 Opposite-Spin Energy      =      -0.2684988112217321 [Eh]
	 Correlation Energy        =      -0.3613400214376334 [Eh]
	 Total Energy              =    -460.4733590029471770 [Eh]
	-----------------------------------------------------------
	 ================> DF-SCS-MP2 Energies <================== 
	-----------------------------------------------------------
	 SCS Same-Spin Scale       =       0.3333333333333333 [-]
	 SCS Opposite-Spin Scale   =       1.2000000000000000 [-]
	 SCS Same-Spin Energy      =      -0.0309470700719671 [Eh]
	 SCS Opposite-Spin Energy  =      -0.3221985734660786 [Eh]
	 SCS Correlation Energy    =      -0.3531456435380456 [Eh]
	 SCS Total Energy          =    -460.4651646250475778 [Eh]
	-----------------------------------------------------------


  -Total Gradient:
     Atom            X                  Y                   Z
    ------   -----------------  -----------------  -----------------
       1       -0.000000000000     0.000000000000     0.001860252231
       2        0.000000000000     0.000000000000    -0.001860252231


*** tstop() called on bp1-compute00149.data.bp.acrc.priv at Mon Apr 19 16:15:01 2021
Module time:
	user time   =      66.27 seconds =       1.10 minutes
	system time =       3.79 seconds =       0.06 minutes
	total time  =          6 seconds =       0.10 minutes
Total time:
	user time   =     548.02 seconds =       9.13 minutes
	system time =      35.57 seconds =       0.59 minutes
	total time  =         45 seconds =       0.75 minutes

         ----------------------------------------------------------
                                   FINDIF
                     R. A. King and Jonathon Misiewicz
         ---------------------------------------------------------

  Computing second-derivative from gradients using projected, 
  symmetry-adapted, cartesian coordinates.

  3 gradients passed in, including the reference geometry.
  Generating complete list of displacements from unique ones.


-------------------------------------------------------------


  ==> Harmonic Vibrational Analysis <==

  non-mass-weighted Hessian:       Symmetric? True   Hermitian? True   Lin Dep Dim?  5 (0)
  projection of translations (True) and rotations (True) removed 5 degrees of freedom (5)
  total projector:                 Symmetric? True   Hermitian? True   Lin Dep Dim?  5 (5)
  mass-weighted Hessian:           Symmetric? True   Hermitian? True   Lin Dep Dim?  5 (0)
  pre-proj  low-frequency mode:    0.0000i [cm^-1]
  pre-proj  low-frequency mode:    0.0000  [cm^-1]
  pre-proj  low-frequency mode:    0.0000  [cm^-1]
  pre-proj  low-frequency mode:    0.0000  [cm^-1]
  pre-proj  low-frequency mode:    0.0000  [cm^-1]
  pre-proj  all modes:['0.0000i' '0.0000' '0.0000' '0.0000' '0.0000' '3044.5055']
  projected mass-weighted Hessian: Symmetric? True   Hermitian? True   Lin Dep Dim?  5 (5)
  post-proj low-frequency mode:    0.0000i [cm^-1] (TR)
  post-proj low-frequency mode:    0.0000  [cm^-1] (TR)
  post-proj low-frequency mode:    0.0000  [cm^-1] (TR)
  post-proj low-frequency mode:    0.0000  [cm^-1] (TR)
  post-proj low-frequency mode:    0.0000  [cm^-1] (TR)
  post-proj  all modes:['0.0000i' '0.0000' '0.0000' '0.0000' '0.0000' '3044.5055']

  Vibration                       6           
  Freq [cm^-1]                3044.5055       
  Irrep                           A1          
  Reduced mass [u]              1.0360        
  Force const [mDyne/A]         5.6578        
  Turning point v=0 [a0]        0.1954        
  RMS dev v=0 [a0 u^1/2]        0.1406        
  Char temp [K]               4380.3656       
  ----------------------------------------------------------------------------------
      1   CL               0.00  0.00 -0.03   
      2   H                0.00  0.00  1.00   

  ==> Thermochemistry Components <==

  Entropy, S
    Electronic S            0.000 [cal/(mol K)]        0.000 [J/(mol K)]       0.00000000 [mEh/K] (multiplicity = 1)
    Translational S        36.671 [cal/(mol K)]      153.430 [J/(mol K)]       0.05843851 [mEh/K] (mol. weight = 35.9767 [u], P = 101325.00 [Pa])
    Rotational S            7.883 [cal/(mol K)]       32.983 [J/(mol K)]       0.01256240 [mEh/K] (symmetry no. = 1)
    Vibrational S           0.000 [cal/(mol K)]        0.000 [J/(mol K)]       0.00000002 [mEh/K]
  Total S                  44.554 [cal/(mol K)]      186.413 [J/(mol K)]       0.07100093 [mEh/K]
  Correction S              0.000 [cal/(mol K)]        0.000 [J/(mol K)]       0.00000000 [mEh/K]

  Constant volume heat capacity, Cv
    Electronic Cv           0.000 [cal/(mol K)]        0.000 [J/(mol K)]       0.00000000 [mEh/K]
    Translational Cv        2.981 [cal/(mol K)]       12.472 [J/(mol K)]       0.00475022 [mEh/K]
    Rotational Cv           1.987 [cal/(mol K)]        8.314 [J/(mol K)]       0.00316681 [mEh/K]
    Vibrational Cv          0.000 [cal/(mol K)]        0.001 [J/(mol K)]       0.00000028 [mEh/K]
  Total Cv                  4.968 [cal/(mol K)]       20.787 [J/(mol K)]       0.00791731 [mEh/K]
  Correction Cv             0.000 [cal/(mol K)]        0.000 [J/(mol K)]       0.00000000 [mEh/K]

  Constant pressure heat capacity, Cp
    Electronic Cp           0.000 [cal/(mol K)]        0.000 [J/(mol K)]       0.00000000 [mEh/K]
    Translational Cp        4.968 [cal/(mol K)]       20.786 [J/(mol K)]       0.00791703 [mEh/K]
    Rotational Cp           1.987 [cal/(mol K)]        8.314 [J/(mol K)]       0.00316681 [mEh/K]
    Vibrational Cp          0.000 [cal/(mol K)]        0.001 [J/(mol K)]       0.00000028 [mEh/K]
  Total Cp                  6.955 [cal/(mol K)]       29.101 [J/(mol K)]       0.01108412 [mEh/K]
  Correction Cp             0.000 [cal/(mol K)]        0.000 [J/(mol K)]       0.00000000 [mEh/K]

  ==> Thermochemistry Energy Analysis <==

  Raw electronic energy, E0
  Total E0, Electronic energy at well bottom at 0 [K]                 -460.47336406 [Eh]

  Zero-point energy, ZPE_vib = Sum_i nu_i / 2
    Electronic ZPE          0.000 [kcal/mol]        0.000 [kJ/mol]       0.00000000 [Eh]
    Translational ZPE       0.000 [kcal/mol]        0.000 [kJ/mol]       0.00000000 [Eh]
    Rotational ZPE          0.000 [kcal/mol]        0.000 [kJ/mol]       0.00000000 [Eh]
    Vibrational ZPE         4.352 [kcal/mol]       18.210 [kJ/mol]       0.00693589 [Eh]        1522.253 [cm^-1]
  Correction ZPE            4.352 [kcal/mol]       18.210 [kJ/mol]       0.00693589 [Eh]        1522.253 [cm^-1]
  Total ZPE, Electronic energy at 0 [K]                               -460.46642816 [Eh]

  Thermal Energy, E (includes ZPE)
    Electronic E            0.000 [kcal/mol]        0.000 [kJ/mol]       0.00000000 [Eh]
    Translational E         0.889 [kcal/mol]        3.718 [kJ/mol]       0.00141628 [Eh]
    Rotational E            0.592 [kcal/mol]        2.479 [kJ/mol]       0.00094418 [Eh]
    Vibrational E           4.352 [kcal/mol]       18.210 [kJ/mol]       0.00693590 [Eh]
  Correction E              5.834 [kcal/mol]       24.408 [kJ/mol]       0.00929636 [Eh]
  Total E, Electronic energy at  298.15 [K]                           -460.46406770 [Eh]

  Enthalpy, H_trans = E_trans + k_B * T
    Electronic H            0.000 [kcal/mol]        0.000 [kJ/mol]       0.00000000 [Eh]
    Translational H         1.481 [kcal/mol]        6.197 [kJ/mol]       0.00236046 [Eh]
    Rotational H            0.592 [kcal/mol]        2.479 [kJ/mol]       0.00094418 [Eh]
    Vibrational H           4.352 [kcal/mol]       18.210 [kJ/mol]       0.00693590 [Eh]
  Correction H              6.426 [kcal/mol]       26.887 [kJ/mol]       0.01024055 [Eh]
  Total H, Enthalpy at  298.15 [K]                                    -460.46312351 [Eh]

  Gibbs free energy, G = H - T * S
    Electronic G            0.000 [kcal/mol]        0.000 [kJ/mol]       0.00000000 [Eh]
    Translational G        -9.452 [kcal/mol]      -39.548 [kJ/mol]      -0.01506298 [Eh]
    Rotational G           -1.758 [kcal/mol]       -7.355 [kJ/mol]      -0.00280130 [Eh]
    Vibrational G           4.352 [kcal/mol]       18.210 [kJ/mol]       0.00693589 [Eh]
  Correction G             -6.858 [kcal/mol]      -28.692 [kJ/mol]      -0.01092838 [Eh]
  Total G, Free enthalpy at  298.15 [K]                               -460.48429244 [Eh]

    Psi4 stopped on: Monday, 19 April 2021 04:15PM
    Psi4 wall time for execution: 0:00:45.37

*** Psi4 exiting successfully. Buy a developer a beer!
