
    -----------------------------------------------------------------------
          Psi4: An Open-Source Ab Initio Electronic Structure Package
                               Psi4 1.3.2 release

                         Git: Rev {HEAD} ecbda83 


    R. M. Parrish, L. A. Burns, D. G. A. Smith, A. C. Simmonett,
    A. E. DePrince III, E. G. Hohenstein, U. Bozkaya, A. Yu. Sokolov,
    R. Di Remigio, R. M. Richard, J. F. Gonthier, A. M. James,
    H. R. McAlexander, A. Kumar, M. Saitow, X. Wang, B. P. Pritchard,
    P. Verma, H. F. Schaefer III, K. Patkowski, R. A. King, E. F. Valeev,
    F. A. Evangelista, J. M. Turney, T. D. Crawford, and C. D. Sherrill,
    J. Chem. Theory Comput. 13(7) pp 3185--3197 (2017).
    (doi: 10.1021/acs.jctc.7b00174)


                         Additional Contributions by
    P. Kraus, H. Kruse, M. H. Lechner, M. C. Schieber, R. A. Shaw,
    A. Alenaizan, R. Galvelis, Z. L. Glick, S. Lehtola, and J. P. Misiewicz

    -----------------------------------------------------------------------


    Psi4 started on: Monday, 19 April 2021 04:40PM

    Process ID: 7568
    Host:       bp1-compute00192.data.bp.acrc.priv
    PSIDATADIR: /work/zw18965/.conda/envs/p4env/share/psi4
    Memory:     500.0 MiB
    Threads:    24
    
  ==> Input File <==

--------------------------------------------------------------------------
memory 144 GB

molecule {
0 1
B     0.000025702137  -0.000052552589  -0.198407020528
H    -0.399622606768  -1.029858472420   0.215550091991
H    -0.171134703482   0.990434479161   0.419174884486
H     0.570731623988   0.039476540557  -1.230190221591}

set basis aug-cc-pV(Q+d)Z
set dynamic_level 1
 
optimize("DSD-BLYP-D3BJ")
frequencies("DSD-BLYP-D3BJ")
--------------------------------------------------------------------------

  Memory set to 134.110 GiB by Python driver.
gradient() will perform gradient computation by finite difference of analytic energies.

         ----------------------------------------------------------
                                   FINDIF
                     R. A. King and Jonathon Misiewicz
         ---------------------------------------------------------

  Using finite-differences of energies to determine gradients.
    Generating geometries for use with 3-point formula.
    Displacement size will be 5.00e-03.
    Number of atoms is 4.
    Number of symmetric SALCs is 6.
    Translations projected? 1. Rotations projected? 1.
    Number of geometries (including reference) is 13.

  //>>>>>>>>>>>>>>>>>>>>>>>>>>>>>>>>>>>//
  //    Loading displacement 1 of 13   //
  //<<<<<<<<<<<<<<<<<<<<<<<<<<<<<<<<<<<//

*** tstart() called on bp1-compute00192.data.bp.acrc.priv
*** at Mon Apr 19 16:40:25 2021

   => Loading Basis Set <=

    Name: AUG-CC-PV(Q+D)Z
    Role: ORBITAL
    Keyword: BASIS
    atoms 1   entry B          line   259 file /work/zw18965/.conda/envs/p4env/share/psi4/basis/aug-cc-pv_qpd_z.gbs 
    atoms 2-4 entry H          line    56 file /work/zw18965/.conda/envs/p4env/share/psi4/basis/aug-cc-pv_qpd_z.gbs 


         ---------------------------------------------------------
                                   SCF
               by Justin Turney, Rob Parrish, Andy Simmonett
                          and Daniel G. A. Smith
                              RKS Reference
                       24 Threads, 137329 MiB Core
         ---------------------------------------------------------

  ==> Geometry <==

    Molecular point group: c1
    Full point group: C1

    Geometry (in Angstrom), charge = 0, multiplicity = 1:

       Center              X                  Y                   Z               Mass       
    ------------   -----------------  -----------------  -----------------  -----------------
         B            0.000007382502    -0.000015096789     0.000017537100    11.009305360000
         H           -0.399640926403    -1.029821016620     0.413974649619     1.007825032230
         H           -0.171153023117     0.990471934961     0.617599442114     1.007825032230
         H            0.570713304353     0.039513996357    -1.031765663963     1.007825032230

  Running in c1 symmetry.

  Rotational constants: A =      8.01264  B =      8.01225  C =      4.00622 [cm^-1]
  Rotational constants: A = 240212.77897  B = 240201.18959  C = 120103.49291 [MHz]
  Nuclear repulsion =    7.505380673888212

  Charge       = 0
  Multiplicity = 1
  Electrons    = 8
  Nalpha       = 4
  Nbeta        = 4

  ==> Algorithm <==

  SCF Algorithm Type is DF.
  DIIS enabled.
  MOM disabled.
  Fractional occupation disabled.
  Guess Type is SAD.
  Energy threshold   = 1.00e-08
  Density threshold  = 1.00e-08
  Integral threshold = 0.00e+00

  ==> Primary Basis <==

  Basis Set: AUG-CC-PV(Q+D)Z
    Blend: AUG-CC-PV(Q+D)Z
    Number of shells: 62
    Number of basis function: 218
    Number of Cartesian functions: 270
    Spherical Harmonics?: true
    Max angular momentum: 4

  ==> DFT Potential <==

   => Composite Functional: DSD-BLYP-D3BJ <= 

    DSD-BLYP-D3BJ Dispersion-corrected SCS Double Hybrid XC Functional

    S. Kozuch, J.M.L. Martin, J. Comp. Chem., 34, 2327-2344, 2013


    Deriv               =              1
    GGA                 =           TRUE
    Meta                =          FALSE

    Exchange Hybrid     =           TRUE
    MP2 Hybrid          =           TRUE

   => Exchange Functionals <=

    0.2900     XC_GGA_X_B88

   => Exact (HF) Exchange <=

    0.7100               HF 

   => Correlation Functionals <=

    0.5400     XC_GGA_C_LYP

   => MP2 Correlation <=

    MP2 SCS Hybrid      =           TRUE
    MP2 OS Alpha        =       0.470000
    MP2 SS Alpha        =       0.400000

   => Molecular Quadrature <=

    Radial Scheme          =       TREUTLER
    Pruning Scheme         =           FLAT
    Nuclear Scheme         =       TREUTLER

    BS radius alpha        =              1
    Pruning alpha          =              1
    Radial Points          =             75
    Spherical Points       =            302
    Total Points           =          90600
    Total Blocks           =            743
    Max Points             =            256
    Max Functions          =            218

   => DSD-BLYP-D3BJ: Empirical Dispersion <=

    Grimme's -D3 (BJ-damping) Dispersion Correction
    Grimme S.; Ehrlich S.; Goerigk L. (2011), J. Comput. Chem., 32: 1456
    Parametrisation from:    S. Kozuch, J.M.L. Martin, J. Comp. Chem., 34, 2327-2344, 2013

        s6 =       0.570000
        s8 =       0.000000
        a1 =       0.000000
        a2 =       5.400000

   => Loading Basis Set <=

    Name: (AUG-CC-PV(Q+D)Z AUX)
    Role: JKFIT
    Keyword: DF_BASIS_SCF
    atoms 1   entry B          line   108 file /work/zw18965/.conda/envs/p4env/share/psi4/basis/aug-cc-pvqz-jkfit.gbs 
    atoms 2-4 entry H          line    70 file /work/zw18965/.conda/envs/p4env/share/psi4/basis/aug-cc-pvqz-jkfit.gbs 

  ==> Pre-Iterations <==

   -------------------------------------------------------
    Irrep   Nso     Nmo     Nalpha   Nbeta   Ndocc  Nsocc
   -------------------------------------------------------
     A        218     218       0       0       0       0
   -------------------------------------------------------
    Total     218     218       4       4       4       0
   -------------------------------------------------------

  ==> Integral Setup <==

  DFHelper Memory: AOs need 0.152 GiB; user supplied 100.051 GiB. Using in-core AOs.

  ==> MemDFJK: Density-Fitted J/K Matrices <==

    J tasked:                   Yes
    K tasked:                   Yes
    wK tasked:                   No
    OpenMP threads:              24
    Memory [MiB]:            102452
    Algorithm:                 Core
    Schwarz Cutoff:           1E-12
    Mask sparsity (%):       0.0000
    Fitting Condition:        1E-10

   => Auxiliary Basis Set <=

  Basis Set: (AUG-CC-PV(Q+D)Z AUX)
    Blend: AUG-CC-PVQZ-JKFIT
    Number of shells: 88
    Number of basis function: 370
    Number of Cartesian functions: 501
    Spherical Harmonics?: true
    Max angular momentum: 5

  Cached 100.0% of DFT collocation blocks in 0.531 [GiB].

  Minimum eigenvalue in the overlap matrix is 2.6448533738E-05.
  Using Symmetric Orthogonalization.

  SCF Guess: Superposition of Atomic Densities via on-the-fly atomic UHF.

  ==> Iterations <==

                           Total Energy        Delta E     RMS |[F,P]|

   @DF-RKS iter SAD:   -25.82430650963643   -2.58243e+01   0.00000e+00 
   @DF-RKS iter   1:   -26.49566915208344   -6.71363e-01   6.83800e-04 DIIS
   @DF-RKS iter   2:   -26.50927066706176   -1.36015e-02   1.93091e-04 DIIS
   @DF-RKS iter   3:   -26.51036544253638   -1.09478e-03   2.14211e-05 DIIS
   @DF-RKS iter   4:   -26.51039439108905   -2.89486e-05   2.58859e-06 DIIS
   @DF-RKS iter   5:   -26.51039493010463   -5.39016e-07   2.83017e-07 DIIS
   @DF-RKS iter   6:   -26.51039493496624   -4.86161e-09   1.62000e-08 DIIS
   @DF-RKS iter   7:   -26.51039493498568   -1.94404e-11   1.23587e-09 DIIS
  Energy and wave function converged.


  ==> Post-Iterations <==

    Orbital Energies [Eh]
    ---------------------

    Doubly Occupied:                                                      

       1A     -7.306419     2A     -0.642204     3A     -0.451755  
       4A     -0.451717  

    Virtual:                                                              

       5A     -0.001119     6A      0.019750     7A      0.031129  
       8A      0.031131     9A      0.057946    10A      0.069257  
      11A      0.069261    12A      0.092194    13A      0.112704  
      14A      0.112708    15A      0.117676    16A      0.124430  
      17A      0.124433    18A      0.193602    19A      0.193607  
      20A      0.218366    21A      0.239122    22A      0.242143  
      23A      0.256044    24A      0.256330    25A      0.256335  
      26A      0.262735    27A      0.262740    28A      0.291211  
      29A      0.291212    30A      0.296341    31A      0.361711  
      32A      0.399071    33A      0.399077    34A      0.442831  
      35A      0.442848    36A      0.475203    37A      0.494676  
      38A      0.494682    39A      0.535575    40A      0.535584  
      41A      0.541453    42A      0.562833    43A      0.562834  
      44A      0.575452    45A      0.576845    46A      0.673481  
      47A      0.694259    48A      0.719922    49A      0.719930  
      50A      0.735808    51A      0.760353    52A      0.760387  
      53A      0.764146    54A      0.764152    55A      0.823790  
      56A      0.847530    57A      0.847542    58A      0.881440  
      59A      0.881444    60A      0.894005    61A      0.896254  
      62A      0.896271    63A      0.910751    64A      0.977707  
      65A      1.094048    66A      1.094059    67A      1.135419  
      68A      1.135429    69A      1.160660    70A      1.211770  
      71A      1.231428    72A      1.231480    73A      1.237889  
      74A      1.458313    75A      1.458315    76A      1.469298  
      77A      1.470454    78A      1.470484    79A      1.493556  
      80A      1.511809    81A      1.511822    82A      1.550150  
      83A      1.568168    84A      1.568171    85A      1.634343  
      86A      1.647887    87A      1.647914    88A      1.757264  
      89A      1.757284    90A      1.763672    91A      1.763710  
      92A      1.786712    93A      1.787181    94A      1.846068  
      95A      1.881927    96A      1.881968    97A      1.928093  
      98A      1.964143    99A      1.964153   100A      1.964462  
     101A      1.995708   102A      2.077250   103A      2.077265  
     104A      2.079800   105A      2.079810   106A      2.150486  
     107A      2.150491   108A      2.173269   109A      2.185927  
     110A      2.193096   111A      2.193107   112A      2.212206  
     113A      2.212228   114A      2.294177   115A      2.297233  
     116A      2.322130   117A      2.340864   118A      2.340890  
     119A      2.692872   120A      2.826081   121A      2.826283  
     122A      2.948138   123A      3.067031   124A      3.067062  
     125A      3.127689   126A      3.127698   127A      3.206053  
     128A      3.206067   129A      3.277160   130A      3.296694  
     131A      3.296829   132A      3.296870   133A      3.297282  
     134A      3.345269   135A      3.345278   136A      3.439893  
     137A      3.511912   138A      3.511997   139A      3.581335  
     140A      3.581429   141A      3.692442   142A      3.823488  
     143A      3.945148   144A      4.093979   145A      4.093999  
     146A      4.119824   147A      4.119833   148A      4.147883  
     149A      4.219555   150A      4.272451   151A      4.272461  
     152A      4.275463   153A      4.344093   154A      4.344130  
     155A      4.507251   156A      4.507257   157A      4.720255  
     158A      4.839481   159A      5.097037   160A      5.097063  
     161A      5.236320   162A      5.236367   163A      5.253358  
     164A      5.375763   165A      5.375829   166A      5.387468  
     167A      5.461628   168A      6.259580   169A      6.259688  
     170A      6.590301   171A      6.648179   172A      6.648208  
     173A      6.800379   174A      6.816443   175A      6.816448  
     176A      7.068392   177A      7.068422   178A      7.414441  
     179A      7.444412   180A      7.444601   181A      7.732192  
     182A      7.732216   183A      7.740847   184A      7.740923  
     185A      7.780081   186A      7.930360   187A      8.067893  
     188A      8.067993   189A      8.114652   190A      8.124874  
     191A      8.362855   192A      8.532263   193A      8.532393  
     194A      8.842436   195A      8.842483   196A      8.984128  
     197A      8.984256   198A      9.019127   199A      9.040439  
     200A      9.040586   201A      9.076228   202A      9.272966  
     203A      9.320658   204A      9.353610   205A      9.353713  
     206A      9.361415   207A      9.550748   208A      9.582518  
     209A      9.582786   210A      9.826439   211A      9.943527  
     212A      9.943631   213A     10.422924   214A     10.422980  
     215A     10.534017   216A     11.451657   217A     11.452204  
     218A     19.410789  

    Final Occupation by Irrep:
              A 
    DOCC [     4 ]

  @DF-RKS Final Energy:   -26.51039493498568

   => Energetics <=

    Nuclear Repulsion Energy =              7.5053806738882116
    One-Electron Energy =                 -49.2171313298620419
    Two-Electron Energy =                  16.7424260811408097
    DFT Exchange-Correlation Energy =      -1.5402003701526601
    Empirical Dispersion Energy =          -0.0008699900000000
    VV10 Nonlocal Energy =                  0.0000000000000000
    Total Energy =                        -26.5103949349856833

Computation Completed


Properties will be evaluated at   0.000000,   0.000000,   0.000000 [a0]

Properties computed using the SCF density matrix

  Nuclear Dipole Moment: [e a0]
     X:    -0.0001      Y:     0.0002      Z:    -0.0002

  Electronic Dipole Moment: [e a0]
     X:     0.0001      Y:    -0.0002      Z:     0.0003

  Dipole Moment: [e a0]
     X:     0.0000      Y:    -0.0001      Z:     0.0001     Total:     0.0001

  Dipole Moment: [D]
     X:     0.0001      Y:    -0.0002      Z:     0.0002     Total:     0.0003


*** tstop() called on bp1-compute00192.data.bp.acrc.priv at Mon Apr 19 16:40:28 2021
Module time:
	user time   =      45.79 seconds =       0.76 minutes
	system time =       2.98 seconds =       0.05 minutes
	total time  =          3 seconds =       0.05 minutes
Total time:
	user time   =      45.79 seconds =       0.76 minutes
	system time =       2.98 seconds =       0.05 minutes
	total time  =          3 seconds =       0.05 minutes

*** tstart() called on bp1-compute00192.data.bp.acrc.priv
*** at Mon Apr 19 16:40:28 2021

   => Loading Basis Set <=

    Name: (AUG-CC-PV(Q+D)Z AUX)
    Role: RIFIT
    Keyword: DF_BASIS_MP2
    atoms 1   entry B          line   110 file /work/zw18965/.conda/envs/p4env/share/psi4/basis/aug-cc-pvqz-ri.gbs 
    atoms 2-4 entry H          line    30 file /work/zw18965/.conda/envs/p4env/share/psi4/basis/aug-cc-pvqz-ri.gbs 

	 --------------------------------------------------------
	                          DF-MP2                         
	      2nd-Order Density-Fitted Moller-Plesset Theory     
	              RMP2 Wavefunction,  24 Threads             
	                                                         
	        Rob Parrish, Justin Turney, Andy Simmonett,      
	           Ed Hohenstein, and C. David Sherrill          
	 --------------------------------------------------------

   => Auxiliary Basis Set <=

  Basis Set: (AUG-CC-PV(Q+D)Z AUX)
    Blend: AUG-CC-PVQZ-RI
    Number of shells: 96
    Number of basis function: 408
    Number of Cartesian functions: 552
    Spherical Harmonics?: true
    Max angular momentum: 5

	 --------------------------------------------------------
	                 NBF =   218, NAUX =   408
	 --------------------------------------------------------
	   CLASS    FOCC     OCC    AOCC    AVIR     VIR    FVIR
	   PAIRS       0       4       4     214     214       0
	 --------------------------------------------------------

	-----------------------------------------------------------
	 ==================> DF-MP2 Energies <==================== 
	-----------------------------------------------------------
	 Reference Energy          =     -26.5103949349856833 [Eh]
	 Singles Energy            =      -0.0000000000000000 [Eh]
	 Same-Spin Energy          =      -0.0164900428497491 [Eh]
	 Opposite-Spin Energy      =      -0.1452485418316780 [Eh]
	 Correlation Energy        =      -0.1617385846814272 [Eh]
	 Total Energy              =     -26.6721335196671099 [Eh]
	-----------------------------------------------------------
	 ================> DF-SCS-MP2 Energies <================== 
	-----------------------------------------------------------
	 SCS Same-Spin Scale       =       0.4000000000000000 [-]
	 SCS Opposite-Spin Scale   =       0.4700000000000000 [-]
	 SCS Same-Spin Energy      =      -0.0065960171398997 [Eh]
	 SCS Opposite-Spin Energy  =      -0.0682668146608887 [Eh]
	 SCS Correlation Energy    =      -0.0748628318007883 [Eh]
	 SCS Total Energy          =     -26.5852577667864729 [Eh]
	-----------------------------------------------------------



    DSD-BLYP-D3BJ Energy Summary
    ----------------------------
    DFT Reference Energy                  =   -26.5103949349856833
    Scaled MP2 Correlation                =    -0.0748628318007883
    @Final double-hybrid DFT total energy =   -26.5852577667864729


*** tstop() called on bp1-compute00192.data.bp.acrc.priv at Mon Apr 19 16:40:28 2021
Module time:
	user time   =      11.63 seconds =       0.19 minutes
	system time =       0.48 seconds =       0.01 minutes
	total time  =          0 seconds =       0.00 minutes
Total time:
	user time   =      57.44 seconds =       0.96 minutes
	system time =       3.46 seconds =       0.06 minutes
	total time  =          3 seconds =       0.05 minutes

  //>>>>>>>>>>>>>>>>>>>>>>>>>>>>>>>>>>>//
  //    Loading displacement 2 of 13   //
  //<<<<<<<<<<<<<<<<<<<<<<<<<<<<<<<<<<<//

*** tstart() called on bp1-compute00192.data.bp.acrc.priv
*** at Mon Apr 19 16:40:28 2021

   => Loading Basis Set <=

    Name: AUG-CC-PV(Q+D)Z
    Role: ORBITAL
    Keyword: BASIS
    atoms 1   entry B          line   259 file /work/zw18965/.conda/envs/p4env/share/psi4/basis/aug-cc-pv_qpd_z.gbs 
    atoms 2-4 entry H          line    56 file /work/zw18965/.conda/envs/p4env/share/psi4/basis/aug-cc-pv_qpd_z.gbs 


         ---------------------------------------------------------
                                   SCF
               by Justin Turney, Rob Parrish, Andy Simmonett
                          and Daniel G. A. Smith
                              RKS Reference
                       24 Threads, 137329 MiB Core
         ---------------------------------------------------------

  ==> Geometry <==

    Molecular point group: c1
    Full point group: C1

    Geometry (in Angstrom), charge = 0, multiplicity = 1:

       Center              X                  Y                   Z               Mass       
    ------------   -----------------  -----------------  -----------------  -----------------
         B           -0.000362763027    -0.000015096788     0.000017537099    11.009305360000
         H           -0.398292928437    -1.029821059494     0.413974732328     1.007825032230
         H           -0.169805246762     0.990471924508     0.617599451823     1.007825032230
         H            0.572060935412     0.039514049670    -1.031765756371     1.007825032230

  Running in c1 symmetry.

  Rotational constants: A =      8.01261  B =      8.01223  C =      4.00622 [cm^-1]
  Rotational constants: A = 240212.11345  B = 240200.54900  C = 120103.43574 [MHz]
  Nuclear repulsion =    7.505376816307760

  Charge       = 0
  Multiplicity = 1
  Electrons    = 8
  Nalpha       = 4
  Nbeta        = 4

  ==> Algorithm <==

  SCF Algorithm Type is DF.
  DIIS enabled.
  MOM disabled.
  Fractional occupation disabled.
  Guess Type is SAD.
  Energy threshold   = 1.00e-08
  Density threshold  = 1.00e-08
  Integral threshold = 0.00e+00

  ==> Primary Basis <==

  Basis Set: AUG-CC-PV(Q+D)Z
    Blend: AUG-CC-PV(Q+D)Z
    Number of shells: 62
    Number of basis function: 218
    Number of Cartesian functions: 270
    Spherical Harmonics?: true
    Max angular momentum: 4

  ==> DFT Potential <==

   => Composite Functional: DSD-BLYP-D3BJ <= 

    DSD-BLYP-D3BJ Dispersion-corrected SCS Double Hybrid XC Functional

    S. Kozuch, J.M.L. Martin, J. Comp. Chem., 34, 2327-2344, 2013


    Deriv               =              1
    GGA                 =           TRUE
    Meta                =          FALSE

    Exchange Hybrid     =           TRUE
    MP2 Hybrid          =           TRUE

   => Exchange Functionals <=

    0.2900     XC_GGA_X_B88

   => Exact (HF) Exchange <=

    0.7100               HF 

   => Correlation Functionals <=

    0.5400     XC_GGA_C_LYP

   => MP2 Correlation <=

    MP2 SCS Hybrid      =           TRUE
    MP2 OS Alpha        =       0.470000
    MP2 SS Alpha        =       0.400000

   => Molecular Quadrature <=

    Radial Scheme          =       TREUTLER
    Pruning Scheme         =           FLAT
    Nuclear Scheme         =       TREUTLER

    BS radius alpha        =              1
    Pruning alpha          =              1
    Radial Points          =             75
    Spherical Points       =            302
    Total Points           =          90600
    Total Blocks           =            741
    Max Points             =            256
    Max Functions          =            218

   => DSD-BLYP-D3BJ: Empirical Dispersion <=

    Grimme's -D3 (BJ-damping) Dispersion Correction
    Grimme S.; Ehrlich S.; Goerigk L. (2011), J. Comput. Chem., 32: 1456
    Parametrisation from:    S. Kozuch, J.M.L. Martin, J. Comp. Chem., 34, 2327-2344, 2013

        s6 =       0.570000
        s8 =       0.000000
        a1 =       0.000000
        a2 =       5.400000

   => Loading Basis Set <=

    Name: (AUG-CC-PV(Q+D)Z AUX)
    Role: JKFIT
    Keyword: DF_BASIS_SCF
    atoms 1   entry B          line   108 file /work/zw18965/.conda/envs/p4env/share/psi4/basis/aug-cc-pvqz-jkfit.gbs 
    atoms 2-4 entry H          line    70 file /work/zw18965/.conda/envs/p4env/share/psi4/basis/aug-cc-pvqz-jkfit.gbs 

  ==> Pre-Iterations <==

   -------------------------------------------------------
    Irrep   Nso     Nmo     Nalpha   Nbeta   Ndocc  Nsocc
   -------------------------------------------------------
     A        218     218       0       0       0       0
   -------------------------------------------------------
    Total     218     218       4       4       4       0
   -------------------------------------------------------

  ==> Integral Setup <==

  DFHelper Memory: AOs need 0.152 GiB; user supplied 100.051 GiB. Using in-core AOs.

  ==> MemDFJK: Density-Fitted J/K Matrices <==

    J tasked:                   Yes
    K tasked:                   Yes
    wK tasked:                   No
    OpenMP threads:              24
    Memory [MiB]:            102452
    Algorithm:                 Core
    Schwarz Cutoff:           1E-12
    Mask sparsity (%):       0.0000
    Fitting Condition:        1E-10

   => Auxiliary Basis Set <=

  Basis Set: (AUG-CC-PV(Q+D)Z AUX)
    Blend: AUG-CC-PVQZ-JKFIT
    Number of shells: 88
    Number of basis function: 370
    Number of Cartesian functions: 501
    Spherical Harmonics?: true
    Max angular momentum: 5

  Cached 100.0% of DFT collocation blocks in 0.531 [GiB].

  Minimum eigenvalue in the overlap matrix is 2.6448479058E-05.
  Using Symmetric Orthogonalization.

  SCF Guess: Superposition of Atomic Densities via on-the-fly atomic UHF.

  ==> Iterations <==

                           Total Energy        Delta E     RMS |[F,P]|

   @DF-RKS iter SAD:   -25.82430588959328   -2.58243e+01   0.00000e+00 
   @DF-RKS iter   1:   -26.49566794904170   -6.71362e-01   6.83802e-04 DIIS
   @DF-RKS iter   2:   -26.50926955289935   -1.36016e-02   1.93092e-04 DIIS
   @DF-RKS iter   3:   -26.51036433432638   -1.09478e-03   2.14214e-05 DIIS
   @DF-RKS iter   4:   -26.51039328355493   -2.89492e-05   2.58869e-06 DIIS
   @DF-RKS iter   5:   -26.51039382260634   -5.39051e-07   2.83098e-07 DIIS
   @DF-RKS iter   6:   -26.51039382746996   -4.86362e-09   1.62582e-08 DIIS
   @DF-RKS iter   7:   -26.51039382748963   -1.96749e-11   1.26855e-09 DIIS
  Energy and wave function converged.


  ==> Post-Iterations <==

    Orbital Energies [Eh]
    ---------------------

    Doubly Occupied:                                                      

       1A     -7.306419     2A     -0.642204     3A     -0.451954  
       4A     -0.451516  

    Virtual:                                                              

       5A     -0.001119     6A      0.019750     7A      0.031121  
       8A      0.031139     9A      0.057945    10A      0.069241  
      11A      0.069277    12A      0.092194    13A      0.112692  
      14A      0.112719    15A      0.117676    16A      0.124414  
      17A      0.124448    18A      0.193572    19A      0.193638  
      20A      0.218366    21A      0.239122    22A      0.242142  
      23A      0.256043    24A      0.256304    25A      0.256363  
      26A      0.262707    27A      0.262768    28A      0.291204  
      29A      0.291218    30A      0.296343    31A      0.361711  
      32A      0.399051    33A      0.399095    34A      0.442735  
      35A      0.442946    36A      0.475203    37A      0.494648  
      38A      0.494709    39A      0.535545    40A      0.535614  
      41A      0.541453    42A      0.562815    43A      0.562851  
      44A      0.575450    45A      0.576845    46A      0.673482  
      47A      0.694260    48A      0.719886    49A      0.719965  
      50A      0.735810    51A      0.760150    52A      0.760541  
      53A      0.764134    54A      0.764209    55A      0.823786  
      56A      0.847454    57A      0.847608    58A      0.881446  
      59A      0.881452    60A      0.894006    61A      0.896186  
      62A      0.896342    63A      0.910749    64A      0.977714  
      65A      1.093972    66A      1.094134    67A      1.135367  
      68A      1.135475    69A      1.160659    70A      1.211762  
      71A      1.231141    72A      1.231767    73A      1.237897  
      74A      1.458277    75A      1.458334    76A      1.469295  
      77A      1.470363    78A      1.470587    79A      1.493558  
      80A      1.511732    81A      1.511897    82A      1.550151  
      83A      1.568125    84A      1.568216    85A      1.634337  
      86A      1.647726    87A      1.648077    88A      1.757186  
      89A      1.757361    90A      1.763473    91A      1.763914  
      92A      1.786411    93A      1.787486    94A      1.846068  
      95A      1.881733    96A      1.882155    97A      1.928093  
      98A      1.964049    99A      1.964253   100A      1.964458  
     101A      1.995695   102A      2.077220   103A      2.077287  
     104A      2.079786   105A      2.079825   106A      2.150465  
     107A      2.150514   108A      2.173270   109A      2.185921  
     110A      2.193071   111A      2.193133   112A      2.212072  
     113A      2.212364   114A      2.294165   115A      2.297232  
     116A      2.322133   117A      2.340672   118A      2.341084  
     119A      2.692884   120A      2.825035   121A      2.827305  
     122A      2.948142   123A      3.066836   124A      3.067259  
     125A      3.127566   126A      3.127824   127A      3.205938  
     128A      3.206177   129A      3.277147   130A      3.296649  
     131A      3.296697   132A      3.297042   133A      3.297273  
     134A      3.345108   135A      3.345470   136A      3.439890  
     137A      3.511528   138A      3.512386   139A      3.580791  
     140A      3.581977   141A      3.692436   142A      3.823488  
     143A      3.945142   144A      4.093864   145A      4.094051  
     146A      4.119809   147A      4.119897   148A      4.147885  
     149A      4.219559   150A      4.272324   151A      4.272566  
     152A      4.275478   153A      4.343927   154A      4.344307  
     155A      4.507226   156A      4.507283   157A      4.720250  
     158A      4.839471   159A      5.096611   160A      5.097489  
     161A      5.235861   162A      5.236795   163A      5.253357  
     164A      5.375552   165A      5.376034   166A      5.387487  
     167A      5.461632   168A      6.259057   169A      6.260180  
     170A      6.590302   171A      6.648020   172A      6.648375  
     173A      6.800381   174A      6.816313   175A      6.816575  
     176A      7.068347   177A      7.068453   178A      7.414405  
     179A      7.443485   180A      7.445562   181A      7.731909  
     182A      7.732392   183A      7.740400   184A      7.741475  
     185A      7.780089   186A      7.930355   187A      8.067443  
     188A      8.068437   189A      8.114565   190A      8.124931  
     191A      8.362874   192A      8.531438   193A      8.533205  
     194A      8.842201   195A      8.842718   196A      8.983230  
     197A      8.985026   198A      9.019206   199A      9.039687  
     200A      9.041367   201A      9.076223   202A      9.272936  
     203A      9.320683   204A      9.353131   205A      9.354204  
     206A      9.361419   207A      9.550706   208A      9.581435  
     209A      9.583895   210A      9.826446   211A      9.943376  
     212A      9.943780   213A     10.422715   214A     10.423120  
     215A     10.534043   216A     11.448303   217A     11.455539  
     218A     19.410798  

    Final Occupation by Irrep:
              A 
    DOCC [     4 ]

  @DF-RKS Final Energy:   -26.51039382748963

   => Energetics <=

    Nuclear Repulsion Energy =              7.5053768163077601
    One-Electron Energy =                 -49.2171219433722129
    Two-Electron Energy =                  16.7424214167290550
    DFT Exchange-Correlation Energy =      -1.5402001271542338
    Empirical Dispersion Energy =          -0.0008699900000000
    VV10 Nonlocal Energy =                  0.0000000000000000
    Total Energy =                        -26.5103938274896329

Computation Completed


Properties will be evaluated at   0.000000,   0.000000,   0.000000 [a0]

Properties computed using the SCF density matrix

  Nuclear Dipole Moment: [e a0]
     X:     0.0041      Y:     0.0002      Z:    -0.0002

  Electronic Dipole Moment: [e a0]
     X:    -0.0057      Y:    -0.0003      Z:     0.0004

  Dipole Moment: [e a0]
     X:    -0.0016      Y:    -0.0001      Z:     0.0002     Total:     0.0016

  Dipole Moment: [D]
     X:    -0.0041      Y:    -0.0003      Z:     0.0006     Total:     0.0042


*** tstop() called on bp1-compute00192.data.bp.acrc.priv at Mon Apr 19 16:40:31 2021
Module time:
	user time   =      46.28 seconds =       0.77 minutes
	system time =       2.34 seconds =       0.04 minutes
	total time  =          3 seconds =       0.05 minutes
Total time:
	user time   =     103.99 seconds =       1.73 minutes
	system time =       5.81 seconds =       0.10 minutes
	total time  =          6 seconds =       0.10 minutes

*** tstart() called on bp1-compute00192.data.bp.acrc.priv
*** at Mon Apr 19 16:40:31 2021

   => Loading Basis Set <=

    Name: (AUG-CC-PV(Q+D)Z AUX)
    Role: RIFIT
    Keyword: DF_BASIS_MP2
    atoms 1   entry B          line   110 file /work/zw18965/.conda/envs/p4env/share/psi4/basis/aug-cc-pvqz-ri.gbs 
    atoms 2-4 entry H          line    30 file /work/zw18965/.conda/envs/p4env/share/psi4/basis/aug-cc-pvqz-ri.gbs 

	 --------------------------------------------------------
	                          DF-MP2                         
	      2nd-Order Density-Fitted Moller-Plesset Theory     
	              RMP2 Wavefunction,  24 Threads             
	                                                         
	        Rob Parrish, Justin Turney, Andy Simmonett,      
	           Ed Hohenstein, and C. David Sherrill          
	 --------------------------------------------------------

   => Auxiliary Basis Set <=

  Basis Set: (AUG-CC-PV(Q+D)Z AUX)
    Blend: AUG-CC-PVQZ-RI
    Number of shells: 96
    Number of basis function: 408
    Number of Cartesian functions: 552
    Spherical Harmonics?: true
    Max angular momentum: 5

	 --------------------------------------------------------
	                 NBF =   218, NAUX =   408
	 --------------------------------------------------------
	   CLASS    FOCC     OCC    AOCC    AVIR     VIR    FVIR
	   PAIRS       0       4       4     214     214       0
	 --------------------------------------------------------

	-----------------------------------------------------------
	 ==================> DF-MP2 Energies <==================== 
	-----------------------------------------------------------
	 Reference Energy          =     -26.5103938274896329 [Eh]
	 Singles Energy            =      -0.0000000000000000 [Eh]
	 Same-Spin Energy          =      -0.0164900548357743 [Eh]
	 Opposite-Spin Energy      =      -0.1452485856739536 [Eh]
	 Correlation Energy        =      -0.1617386405097278 [Eh]
	 Total Energy              =     -26.6721324679993614 [Eh]
	-----------------------------------------------------------
	 ================> DF-SCS-MP2 Energies <================== 
	-----------------------------------------------------------
	 SCS Same-Spin Scale       =       0.4000000000000000 [-]
	 SCS Opposite-Spin Scale   =       0.4700000000000000 [-]
	 SCS Same-Spin Energy      =      -0.0065960219343097 [Eh]
	 SCS Opposite-Spin Energy  =      -0.0682668352667582 [Eh]
	 SCS Correlation Energy    =      -0.0748628572010679 [Eh]
	 SCS Total Energy          =     -26.5852566846907017 [Eh]
	-----------------------------------------------------------



    DSD-BLYP-D3BJ Energy Summary
    ----------------------------
    DFT Reference Energy                  =   -26.5103938274896329
    Scaled MP2 Correlation                =    -0.0748628572010679
    @Final double-hybrid DFT total energy =   -26.5852566846907017


*** tstop() called on bp1-compute00192.data.bp.acrc.priv at Mon Apr 19 16:40:31 2021
Module time:
	user time   =      11.50 seconds =       0.19 minutes
	system time =       0.46 seconds =       0.01 minutes
	total time  =          0 seconds =       0.00 minutes
Total time:
	user time   =     115.50 seconds =       1.93 minutes
	system time =       6.27 seconds =       0.10 minutes
	total time  =          6 seconds =       0.10 minutes

  //>>>>>>>>>>>>>>>>>>>>>>>>>>>>>>>>>>>//
  //    Loading displacement 3 of 13   //
  //<<<<<<<<<<<<<<<<<<<<<<<<<<<<<<<<<<<//

*** tstart() called on bp1-compute00192.data.bp.acrc.priv
*** at Mon Apr 19 16:40:31 2021

   => Loading Basis Set <=

    Name: AUG-CC-PV(Q+D)Z
    Role: ORBITAL
    Keyword: BASIS
    atoms 1   entry B          line   259 file /work/zw18965/.conda/envs/p4env/share/psi4/basis/aug-cc-pv_qpd_z.gbs 
    atoms 2-4 entry H          line    56 file /work/zw18965/.conda/envs/p4env/share/psi4/basis/aug-cc-pv_qpd_z.gbs 


         ---------------------------------------------------------
                                   SCF
               by Justin Turney, Rob Parrish, Andy Simmonett
                          and Daniel G. A. Smith
                              RKS Reference
                       24 Threads, 137329 MiB Core
         ---------------------------------------------------------

  ==> Geometry <==

    Molecular point group: c1
    Full point group: C1

    Geometry (in Angstrom), charge = 0, multiplicity = 1:

       Center              X                  Y                   Z               Mass       
    ------------   -----------------  -----------------  -----------------  -----------------
         B            0.000377528031    -0.000015096790     0.000017537101    11.009305360000
         H           -0.400988924369    -1.029820973746     0.413974566910     1.007825032230
         H           -0.172500799472     0.990471945414     0.617599432405     1.007825032230
         H            0.569365673293     0.039513943044    -1.031765571555     1.007825032230

  Running in c1 symmetry.

  Rotational constants: A =      8.01261  B =      8.01223  C =      4.00622 [cm^-1]
  Rotational constants: A = 240212.00447  B = 240200.46725  C = 120103.45154 [MHz]
  Nuclear repulsion =    7.505375539775251

  Charge       = 0
  Multiplicity = 1
  Electrons    = 8
  Nalpha       = 4
  Nbeta        = 4

  ==> Algorithm <==

  SCF Algorithm Type is DF.
  DIIS enabled.
  MOM disabled.
  Fractional occupation disabled.
  Guess Type is SAD.
  Energy threshold   = 1.00e-08
  Density threshold  = 1.00e-08
  Integral threshold = 0.00e+00

  ==> Primary Basis <==

  Basis Set: AUG-CC-PV(Q+D)Z
    Blend: AUG-CC-PV(Q+D)Z
    Number of shells: 62
    Number of basis function: 218
    Number of Cartesian functions: 270
    Spherical Harmonics?: true
    Max angular momentum: 4

  ==> DFT Potential <==

   => Composite Functional: DSD-BLYP-D3BJ <= 

    DSD-BLYP-D3BJ Dispersion-corrected SCS Double Hybrid XC Functional

    S. Kozuch, J.M.L. Martin, J. Comp. Chem., 34, 2327-2344, 2013


    Deriv               =              1
    GGA                 =           TRUE
    Meta                =          FALSE

    Exchange Hybrid     =           TRUE
    MP2 Hybrid          =           TRUE

   => Exchange Functionals <=

    0.2900     XC_GGA_X_B88

   => Exact (HF) Exchange <=

    0.7100               HF 

   => Correlation Functionals <=

    0.5400     XC_GGA_C_LYP

   => MP2 Correlation <=

    MP2 SCS Hybrid      =           TRUE
    MP2 OS Alpha        =       0.470000
    MP2 SS Alpha        =       0.400000

   => Molecular Quadrature <=

    Radial Scheme          =       TREUTLER
    Pruning Scheme         =           FLAT
    Nuclear Scheme         =       TREUTLER

    BS radius alpha        =              1
    Pruning alpha          =              1
    Radial Points          =             75
    Spherical Points       =            302
    Total Points           =          90600
    Total Blocks           =            743
    Max Points             =            254
    Max Functions          =            218

   => DSD-BLYP-D3BJ: Empirical Dispersion <=

    Grimme's -D3 (BJ-damping) Dispersion Correction
    Grimme S.; Ehrlich S.; Goerigk L. (2011), J. Comput. Chem., 32: 1456
    Parametrisation from:    S. Kozuch, J.M.L. Martin, J. Comp. Chem., 34, 2327-2344, 2013

        s6 =       0.570000
        s8 =       0.000000
        a1 =       0.000000
        a2 =       5.400000

   => Loading Basis Set <=

    Name: (AUG-CC-PV(Q+D)Z AUX)
    Role: JKFIT
    Keyword: DF_BASIS_SCF
    atoms 1   entry B          line   108 file /work/zw18965/.conda/envs/p4env/share/psi4/basis/aug-cc-pvqz-jkfit.gbs 
    atoms 2-4 entry H          line    70 file /work/zw18965/.conda/envs/p4env/share/psi4/basis/aug-cc-pvqz-jkfit.gbs 

  ==> Pre-Iterations <==

   -------------------------------------------------------
    Irrep   Nso     Nmo     Nalpha   Nbeta   Ndocc  Nsocc
   -------------------------------------------------------
     A        218     218       0       0       0       0
   -------------------------------------------------------
    Total     218     218       4       4       4       0
   -------------------------------------------------------

  ==> Integral Setup <==

  DFHelper Memory: AOs need 0.152 GiB; user supplied 100.051 GiB. Using in-core AOs.

  ==> MemDFJK: Density-Fitted J/K Matrices <==

    J tasked:                   Yes
    K tasked:                   Yes
    wK tasked:                   No
    OpenMP threads:              24
    Memory [MiB]:            102452
    Algorithm:                 Core
    Schwarz Cutoff:           1E-12
    Mask sparsity (%):       0.0000
    Fitting Condition:        1E-10

   => Auxiliary Basis Set <=

  Basis Set: (AUG-CC-PV(Q+D)Z AUX)
    Blend: AUG-CC-PVQZ-JKFIT
    Number of shells: 88
    Number of basis function: 370
    Number of Cartesian functions: 501
    Spherical Harmonics?: true
    Max angular momentum: 5

  Cached 100.0% of DFT collocation blocks in 0.531 [GiB].

  Minimum eigenvalue in the overlap matrix is 2.6448486021E-05.
  Using Symmetric Orthogonalization.

  SCF Guess: Superposition of Atomic Densities via on-the-fly atomic UHF.

  ==> Iterations <==

                           Total Energy        Delta E     RMS |[F,P]|

   @DF-RKS iter SAD:   -25.82430596226476   -2.58243e+01   0.00000e+00 
   @DF-RKS iter   1:   -26.49566800154542   -6.71362e-01   6.83802e-04 DIIS
   @DF-RKS iter   2:   -26.50926960848319   -1.36016e-02   1.93092e-04 DIIS
   @DF-RKS iter   3:   -26.51036438856845   -1.09478e-03   2.14215e-05 DIIS
   @DF-RKS iter   4:   -26.51039333782520   -2.89493e-05   2.58871e-06 DIIS
   @DF-RKS iter   5:   -26.51039387688090   -5.39056e-07   2.83116e-07 DIIS
   @DF-RKS iter   6:   -26.51039388174540   -4.86449e-09   1.62716e-08 DIIS
   @DF-RKS iter   7:   -26.51039388176510   -1.97069e-11   1.27591e-09 DIIS
  Energy and wave function converged.


  ==> Post-Iterations <==

    Orbital Energies [Eh]
    ---------------------

    Doubly Occupied:                                                      

       1A     -7.306419     2A     -0.642204     3A     -0.451922  
       4A     -0.451549  

    Virtual:                                                              

       5A     -0.001119     6A      0.019750     7A      0.031123  
       8A      0.031138     9A      0.057945    10A      0.069243  
      11A      0.069275    12A      0.092194    13A      0.112695  
      14A      0.112717    15A      0.117676    16A      0.124417  
      17A      0.124446    18A      0.193576    19A      0.193633  
      20A      0.218366    21A      0.239121    22A      0.242143  
      23A      0.256043    24A      0.256307    25A      0.256359  
      26A      0.262711    27A      0.262763    28A      0.291205  
      29A      0.291217    30A      0.296344    31A      0.361711  
      32A      0.399056    33A      0.399091    34A      0.442750  
      35A      0.442931    36A      0.475203    37A      0.494653  
      38A      0.494705    39A      0.535553    40A      0.535606  
      41A      0.541453    42A      0.562816    43A      0.562850  
      44A      0.575450    45A      0.576844    46A      0.673481  
      47A      0.694260    48A      0.719892    49A      0.719959  
      50A      0.735810    51A      0.760174    52A      0.760505  
      53A      0.764143    54A      0.764210    55A      0.823786  
      56A      0.847462    57A      0.847597    58A      0.881448  
      59A      0.881454    60A      0.894006    61A      0.896200  
      62A      0.896327    63A      0.910748    64A      0.977715  
      65A      1.093982    66A      1.094125    67A      1.135375  
      68A      1.135466    69A      1.160659    70A      1.211760  
      71A      1.231186    72A      1.231724    73A      1.237899  
      74A      1.458276    75A      1.458331    76A      1.469295  
      77A      1.470390    78A      1.470565    79A      1.493558  
      80A      1.511742    81A      1.511887    82A      1.550151  
      83A      1.568128    84A      1.568214    85A      1.634338  
      86A      1.647747    87A      1.648055    88A      1.757202  
      89A      1.757345    90A      1.763505    91A      1.763883  
      92A      1.786362    93A      1.787535    94A      1.846068  
      95A      1.881766    96A      1.882120    97A      1.928093  
      98A      1.964059    99A      1.964244   100A      1.964458  
     101A      1.995693   102A      2.077231   103A      2.077275  
     104A      2.079777   105A      2.079835   106A      2.150467  
     107A      2.150512   108A      2.173270   109A      2.185922  
     110A      2.193081   111A      2.193121   112A      2.212092  
     113A      2.212345   114A      2.294162   115A      2.297232  
     116A      2.322136   117A      2.340689   118A      2.341066  
     119A      2.692890   120A      2.825199   121A      2.827135  
     122A      2.948143   123A      3.066865   124A      3.067231  
     125A      3.127575   126A      3.127817   127A      3.205949  
     128A      3.206166   129A      3.277144   130A      3.296630  
     131A      3.296762   132A      3.296995   133A      3.297272  
     134A      3.345118   135A      3.345466   136A      3.439890  
     137A      3.511600   138A      3.512315   139A      3.580873  
     140A      3.581896   141A      3.692434   142A      3.823489  
     143A      3.945141   144A      4.093876   145A      4.094026  
     146A      4.119822   147A      4.119897   148A      4.147886  
     149A      4.219558   150A      4.272312   151A      4.272586  
     152A      4.275469   153A      4.343956   154A      4.344279  
     155A      4.507223   156A      4.507284   157A      4.720248  
     158A      4.839472   159A      5.096626   160A      5.097471  
     161A      5.235914   162A      5.236742   163A      5.253357  
     164A      5.375609   165A      5.375977   166A      5.387483  
     167A      5.461634   168A      6.259149   169A      6.260083  
     170A      6.590302   171A      6.648047   172A      6.648349  
     173A      6.800381   174A      6.816315   175A      6.816572  
     176A      7.068324   177A      7.068473   178A      7.414409  
     179A      7.443624   180A      7.445422   181A      7.731924  
     182A      7.732354   183A      7.740476   184A      7.741426  
     185A      7.780086   186A      7.930353   187A      8.067527  
     188A      8.068352   189A      8.114543   190A      8.124945  
     191A      8.362881   192A      8.531542   193A      8.533095  
     194A      8.842250   195A      8.842672   196A      8.983402  
     197A      8.984862   198A      9.019186   199A      9.039815  
     200A      9.041248   201A      9.076218   202A      9.272928  
     203A      9.320686   204A      9.353217   205A      9.354120  
     206A      9.361421   207A      9.550714   208A      9.581688  
     209A      9.583636   210A      9.826456   211A      9.943459  
     212A      9.943691   213A     10.422747   214A     10.423069  
     215A     10.534047   216A     11.448770   217A     11.455064  
     218A     19.410801  

    Final Occupation by Irrep:
              A 
    DOCC [     4 ]

  @DF-RKS Final Energy:   -26.51039388176510

   => Energetics <=

    Nuclear Repulsion Energy =              7.5053755397752511
    One-Electron Energy =                 -49.2171198450506253
    Two-Electron Energy =                  16.7424204820030589
    DFT Exchange-Correlation Energy =      -1.5402000684927912
    Empirical Dispersion Energy =          -0.0008699900000000
    VV10 Nonlocal Energy =                  0.0000000000000000
    Total Energy =                        -26.5103938817651077

Computation Completed


Properties will be evaluated at   0.000000,   0.000000,   0.000000 [a0]

Properties computed using the SCF density matrix

  Nuclear Dipole Moment: [e a0]
     X:    -0.0042      Y:     0.0002      Z:    -0.0002

  Electronic Dipole Moment: [e a0]
     X:     0.0059      Y:    -0.0002      Z:     0.0001

  Dipole Moment: [e a0]
     X:     0.0017      Y:    -0.0000      Z:    -0.0001     Total:     0.0017

  Dipole Moment: [D]
     X:     0.0043      Y:    -0.0001      Z:    -0.0002     Total:     0.0043


*** tstop() called on bp1-compute00192.data.bp.acrc.priv at Mon Apr 19 16:40:33 2021
Module time:
	user time   =      47.17 seconds =       0.79 minutes
	system time =       2.23 seconds =       0.04 minutes
	total time  =          2 seconds =       0.03 minutes
Total time:
	user time   =     162.82 seconds =       2.71 minutes
	system time =       8.50 seconds =       0.14 minutes
	total time  =          8 seconds =       0.13 minutes

*** tstart() called on bp1-compute00192.data.bp.acrc.priv
*** at Mon Apr 19 16:40:33 2021

   => Loading Basis Set <=

    Name: (AUG-CC-PV(Q+D)Z AUX)
    Role: RIFIT
    Keyword: DF_BASIS_MP2
    atoms 1   entry B          line   110 file /work/zw18965/.conda/envs/p4env/share/psi4/basis/aug-cc-pvqz-ri.gbs 
    atoms 2-4 entry H          line    30 file /work/zw18965/.conda/envs/p4env/share/psi4/basis/aug-cc-pvqz-ri.gbs 

	 --------------------------------------------------------
	                          DF-MP2                         
	      2nd-Order Density-Fitted Moller-Plesset Theory     
	              RMP2 Wavefunction,  24 Threads             
	                                                         
	        Rob Parrish, Justin Turney, Andy Simmonett,      
	           Ed Hohenstein, and C. David Sherrill          
	 --------------------------------------------------------

   => Auxiliary Basis Set <=

  Basis Set: (AUG-CC-PV(Q+D)Z AUX)
    Blend: AUG-CC-PVQZ-RI
    Number of shells: 96
    Number of basis function: 408
    Number of Cartesian functions: 552
    Spherical Harmonics?: true
    Max angular momentum: 5

	 --------------------------------------------------------
	                 NBF =   218, NAUX =   408
	 --------------------------------------------------------
	   CLASS    FOCC     OCC    AOCC    AVIR     VIR    FVIR
	   PAIRS       0       4       4     214     214       0
	 --------------------------------------------------------

	-----------------------------------------------------------
	 ==================> DF-MP2 Energies <==================== 
	-----------------------------------------------------------
	 Reference Energy          =     -26.5103938817651041 [Eh]
	 Singles Energy            =      -0.0000000000000000 [Eh]
	 Same-Spin Energy          =      -0.0164900563310125 [Eh]
	 Opposite-Spin Energy      =      -0.1452485876832980 [Eh]
	 Correlation Energy        =      -0.1617386440143105 [Eh]
	 Total Energy              =     -26.6721325257794142 [Eh]
	-----------------------------------------------------------
	 ================> DF-SCS-MP2 Energies <================== 
	-----------------------------------------------------------
	 SCS Same-Spin Scale       =       0.4000000000000000 [-]
	 SCS Opposite-Spin Scale   =       0.4700000000000000 [-]
	 SCS Same-Spin Energy      =      -0.0065960225324050 [Eh]
	 SCS Opposite-Spin Energy  =      -0.0682668362111501 [Eh]
	 SCS Correlation Energy    =      -0.0748628587435551 [Eh]
	 SCS Total Energy          =     -26.5852567405086582 [Eh]
	-----------------------------------------------------------



    DSD-BLYP-D3BJ Energy Summary
    ----------------------------
    DFT Reference Energy                  =   -26.5103938817651041
    Scaled MP2 Correlation                =    -0.0748628587435551
    @Final double-hybrid DFT total energy =   -26.5852567405086582


*** tstop() called on bp1-compute00192.data.bp.acrc.priv at Mon Apr 19 16:40:34 2021
Module time:
	user time   =      11.63 seconds =       0.19 minutes
	system time =       0.40 seconds =       0.01 minutes
	total time  =          1 seconds =       0.02 minutes
Total time:
	user time   =     174.46 seconds =       2.91 minutes
	system time =       8.90 seconds =       0.15 minutes
	total time  =          9 seconds =       0.15 minutes

  //>>>>>>>>>>>>>>>>>>>>>>>>>>>>>>>>>>>//
  //    Loading displacement 4 of 13   //
  //<<<<<<<<<<<<<<<<<<<<<<<<<<<<<<<<<<<//

*** tstart() called on bp1-compute00192.data.bp.acrc.priv
*** at Mon Apr 19 16:40:34 2021

   => Loading Basis Set <=

    Name: AUG-CC-PV(Q+D)Z
    Role: ORBITAL
    Keyword: BASIS
    atoms 1   entry B          line   259 file /work/zw18965/.conda/envs/p4env/share/psi4/basis/aug-cc-pv_qpd_z.gbs 
    atoms 2-4 entry H          line    56 file /work/zw18965/.conda/envs/p4env/share/psi4/basis/aug-cc-pv_qpd_z.gbs 


         ---------------------------------------------------------
                                   SCF
               by Justin Turney, Rob Parrish, Andy Simmonett
                          and Daniel G. A. Smith
                              RKS Reference
                       24 Threads, 137329 MiB Core
         ---------------------------------------------------------

  ==> Geometry <==

    Molecular point group: c1
    Full point group: C1

    Geometry (in Angstrom), charge = 0, multiplicity = 1:

       Center              X                  Y                   Z               Mass       
    ------------   -----------------  -----------------  -----------------  -----------------
         B            0.000007382502    -0.000385242319     0.000017537102    11.009305360000
         H           -0.399640835497    -1.028473204989     0.413974761812     1.007825032230
         H           -0.171153118355     0.991819790259     0.617599329934     1.007825032230
         H            0.570713308685     0.040861734820    -1.031765663995     1.007825032230

  Running in c1 symmetry.

  Rotational constants: A =      8.01263  B =      8.01222  C =      4.00621 [cm^-1]
  Rotational constants: A = 240212.63702  B = 240200.43938  C = 120103.28372 [MHz]
  Nuclear repulsion =    7.505384021429273

  Charge       = 0
  Multiplicity = 1
  Electrons    = 8
  Nalpha       = 4
  Nbeta        = 4

  ==> Algorithm <==

  SCF Algorithm Type is DF.
  DIIS enabled.
  MOM disabled.
  Fractional occupation disabled.
  Guess Type is SAD.
  Energy threshold   = 1.00e-08
  Density threshold  = 1.00e-08
  Integral threshold = 0.00e+00

  ==> Primary Basis <==

  Basis Set: AUG-CC-PV(Q+D)Z
    Blend: AUG-CC-PV(Q+D)Z
    Number of shells: 62
    Number of basis function: 218
    Number of Cartesian functions: 270
    Spherical Harmonics?: true
    Max angular momentum: 4

  ==> DFT Potential <==

   => Composite Functional: DSD-BLYP-D3BJ <= 

    DSD-BLYP-D3BJ Dispersion-corrected SCS Double Hybrid XC Functional

    S. Kozuch, J.M.L. Martin, J. Comp. Chem., 34, 2327-2344, 2013


    Deriv               =              1
    GGA                 =           TRUE
    Meta                =          FALSE

    Exchange Hybrid     =           TRUE
    MP2 Hybrid          =           TRUE

   => Exchange Functionals <=

    0.2900     XC_GGA_X_B88

   => Exact (HF) Exchange <=

    0.7100               HF 

   => Correlation Functionals <=

    0.5400     XC_GGA_C_LYP

   => MP2 Correlation <=

    MP2 SCS Hybrid      =           TRUE
    MP2 OS Alpha        =       0.470000
    MP2 SS Alpha        =       0.400000

   => Molecular Quadrature <=

    Radial Scheme          =       TREUTLER
    Pruning Scheme         =           FLAT
    Nuclear Scheme         =       TREUTLER

    BS radius alpha        =              1
    Pruning alpha          =              1
    Radial Points          =             75
    Spherical Points       =            302
    Total Points           =          90600
    Total Blocks           =            739
    Max Points             =            256
    Max Functions          =            218

   => DSD-BLYP-D3BJ: Empirical Dispersion <=

    Grimme's -D3 (BJ-damping) Dispersion Correction
    Grimme S.; Ehrlich S.; Goerigk L. (2011), J. Comput. Chem., 32: 1456
    Parametrisation from:    S. Kozuch, J.M.L. Martin, J. Comp. Chem., 34, 2327-2344, 2013

        s6 =       0.570000
        s8 =       0.000000
        a1 =       0.000000
        a2 =       5.400000

   => Loading Basis Set <=

    Name: (AUG-CC-PV(Q+D)Z AUX)
    Role: JKFIT
    Keyword: DF_BASIS_SCF
    atoms 1   entry B          line   108 file /work/zw18965/.conda/envs/p4env/share/psi4/basis/aug-cc-pvqz-jkfit.gbs 
    atoms 2-4 entry H          line    70 file /work/zw18965/.conda/envs/p4env/share/psi4/basis/aug-cc-pvqz-jkfit.gbs 

  ==> Pre-Iterations <==

   -------------------------------------------------------
    Irrep   Nso     Nmo     Nalpha   Nbeta   Ndocc  Nsocc
   -------------------------------------------------------
     A        218     218       0       0       0       0
   -------------------------------------------------------
    Total     218     218       4       4       4       0
   -------------------------------------------------------

  ==> Integral Setup <==

  DFHelper Memory: AOs need 0.152 GiB; user supplied 100.051 GiB. Using in-core AOs.

  ==> MemDFJK: Density-Fitted J/K Matrices <==

    J tasked:                   Yes
    K tasked:                   Yes
    wK tasked:                   No
    OpenMP threads:              24
    Memory [MiB]:            102452
    Algorithm:                 Core
    Schwarz Cutoff:           1E-12
    Mask sparsity (%):       0.0000
    Fitting Condition:        1E-10

   => Auxiliary Basis Set <=

  Basis Set: (AUG-CC-PV(Q+D)Z AUX)
    Blend: AUG-CC-PVQZ-JKFIT
    Number of shells: 88
    Number of basis function: 370
    Number of Cartesian functions: 501
    Spherical Harmonics?: true
    Max angular momentum: 5

  Cached 100.0% of DFT collocation blocks in 0.532 [GiB].

  Minimum eigenvalue in the overlap matrix is 2.6448387775E-05.
  Using Symmetric Orthogonalization.

  SCF Guess: Superposition of Atomic Densities via on-the-fly atomic UHF.

  ==> Iterations <==

                           Total Energy        Delta E     RMS |[F,P]|

   @DF-RKS iter SAD:   -25.82430470726861   -2.58243e+01   0.00000e+00 
   @DF-RKS iter   1:   -26.49566655036761   -6.71362e-01   6.83803e-04 DIIS
   @DF-RKS iter   2:   -26.50926820537314   -1.36017e-02   1.93093e-04 DIIS
   @DF-RKS iter   3:   -26.51036300094163   -1.09480e-03   2.14214e-05 DIIS
   @DF-RKS iter   4:   -26.51039195045124   -2.89495e-05   2.58866e-06 DIIS
   @DF-RKS iter   5:   -26.51039248949693   -5.39046e-07   2.83032e-07 DIIS
   @DF-RKS iter   6:   -26.51039249435896   -4.86203e-09   1.62052e-08 DIIS
   @DF-RKS iter   7:   -26.51039249437848   -1.95222e-11   1.23867e-09 DIIS
  Energy and wave function converged.


  ==> Post-Iterations <==

    Orbital Energies [Eh]
    ---------------------

    Doubly Occupied:                                                      

       1A     -7.306419     2A     -0.642205     3A     -0.452153  
       4A     -0.451318  

    Virtual:                                                              

       5A     -0.001119     6A      0.019750     7A      0.031113  
       8A      0.031147     9A      0.057946    10A      0.069224  
      11A      0.069294    12A      0.092194    13A      0.112681  
      14A      0.112731    15A      0.117676    16A      0.124399  
      17A      0.124463    18A      0.193542    19A      0.193667  
      20A      0.218366    21A      0.239122    22A      0.242142  
      23A      0.256039    24A      0.256278    25A      0.256392  
      26A      0.262680    27A      0.262795    28A      0.291198  
      29A      0.291224    30A      0.296341    31A      0.361711  
      32A      0.399032    33A      0.399116    34A      0.442638  
      35A      0.443040    36A      0.475203    37A      0.494621  
      38A      0.494737    39A      0.535515    40A      0.535643  
      41A      0.541453    42A      0.562798    43A      0.562868  
      44A      0.575452    45A      0.576846    46A      0.673482  
      47A      0.694259    48A      0.719849    49A      0.720001  
      50A      0.735809    51A      0.759994    52A      0.760743  
      53A      0.764073    54A      0.764227    55A      0.823783  
      56A      0.847388    57A      0.847687    58A      0.881433  
      59A      0.881446    60A      0.894005    61A      0.896117  
      62A      0.896412    63A      0.910755    64A      0.977712  
      65A      1.093897    66A      1.094209    67A      1.135320  
      68A      1.135527    69A      1.160660    70A      1.211768  
      71A      1.230852    72A      1.232049    73A      1.237890  
      74A      1.458256    75A      1.458369    76A      1.469295  
      77A      1.470257    78A      1.470676    79A      1.493561  
      80A      1.511657    81A      1.511974    82A      1.550152  
      83A      1.568081    84A      1.568259    85A      1.634329  
      86A      1.647566    87A      1.648244    88A      1.757107  
      89A      1.757439    90A      1.763269    91A      1.764114  
      92A      1.786692    93A      1.787205    94A      1.846067  
      95A      1.881551    96A      1.882353    97A      1.928093  
      98A      1.963951    99A      1.964343   100A      1.964461  
     101A      1.995703   102A      2.077192   103A      2.077315  
     104A      2.079760   105A      2.079851   106A      2.150440  
     107A      2.150538   108A      2.173269   109A      2.185913  
     110A      2.193057   111A      2.193164   112A      2.211937  
     113A      2.212494   114A      2.294178   115A      2.297232  
     116A      2.322115   117A      2.340479   118A      2.341287  
     119A      2.692852   120A      2.824018   121A      2.828358  
     122A      2.948141   123A      3.066639   124A      3.067445  
     125A      3.127438   126A      3.127942   127A      3.205825  
     128A      3.206289   129A      3.277162   130A      3.296461  
     131A      3.296724   132A      3.297208   133A      3.297265  
     134A      3.344922   135A      3.345639   136A      3.439890  
     137A      3.511142   138A      3.512768   139A      3.580250  
     140A      3.582518   141A      3.692442   142A      3.823487  
     143A      3.945145   144A      4.093806   145A      4.094154  
     146A      4.119741   147A      4.119909   148A      4.147885  
     149A      4.219564   150A      4.272165   151A      4.272685  
     152A      4.275522   153A      4.343753   154A      4.344483  
     155A      4.507204   156A      4.507314   157A      4.720258  
     158A      4.839454   159A      5.096195   160A      5.097935  
     161A      5.235425   162A      5.237200   163A      5.253363  
     164A      5.375348   165A      5.376241   166A      5.387531  
     167A      5.461625   168A      6.258563   169A      6.260686  
     170A      6.590304   171A      6.647858   172A      6.648530  
     173A      6.800381   174A      6.816185   175A      6.816707  
     176A      7.068293   177A      7.068519   178A      7.414343  
     179A      7.442541   180A      7.446554   181A      7.731721  
     182A      7.732661   183A      7.739831   184A      7.741922  
     185A      7.780118   186A      7.930369   187A      8.066999  
     188A      8.068884   189A      8.114656   190A      8.124878  
     191A      8.362839   192A      8.530635   193A      8.534039  
     194A      8.841961   195A      8.842917   196A      8.982401  
     197A      8.985666   198A      9.019445   199A      9.038903  
     200A      9.042112   201A      9.076242   202A      9.272971  
     203A      9.320686   204A      9.352646   205A      9.354690  
     206A      9.361409   207A      9.550597   208A      9.580439  
     209A      9.584979   210A      9.826382   211A      9.943253  
     212A      9.943950   213A     10.422577   214A     10.423350  
     215A     10.534033   216A     11.445009   217A     11.458871  
     218A     19.410785  

    Final Occupation by Irrep:
              A 
    DOCC [     4 ]

  @DF-RKS Final Energy:   -26.51039249437848

   => Energetics <=

    Nuclear Repulsion Energy =              7.5053840214292729
    One-Electron Energy =                 -49.2171314613897835
    Two-Electron Energy =                  16.7424253297543153
    DFT Exchange-Correlation Energy =      -1.5402003941722811
    Empirical Dispersion Energy =          -0.0008699900000000
    VV10 Nonlocal Energy =                  0.0000000000000000
    Total Energy =                        -26.5103924943784790

Computation Completed


Properties will be evaluated at   0.000000,   0.000000,   0.000000 [a0]

Properties computed using the SCF density matrix

  Nuclear Dipole Moment: [e a0]
     X:    -0.0001      Y:     0.0043      Z:    -0.0002

  Electronic Dipole Moment: [e a0]
     X:     0.0001      Y:    -0.0063      Z:     0.0003

  Dipole Moment: [e a0]
     X:    -0.0000      Y:    -0.0020      Z:     0.0001     Total:     0.0020

  Dipole Moment: [D]
     X:    -0.0000      Y:    -0.0050      Z:     0.0001     Total:     0.0050


*** tstop() called on bp1-compute00192.data.bp.acrc.priv at Mon Apr 19 16:40:36 2021
Module time:
	user time   =      45.71 seconds =       0.76 minutes
	system time =       1.83 seconds =       0.03 minutes
	total time  =          2 seconds =       0.03 minutes
Total time:
	user time   =     220.32 seconds =       3.67 minutes
	system time =      10.73 seconds =       0.18 minutes
	total time  =         11 seconds =       0.18 minutes

*** tstart() called on bp1-compute00192.data.bp.acrc.priv
*** at Mon Apr 19 16:40:36 2021

   => Loading Basis Set <=

    Name: (AUG-CC-PV(Q+D)Z AUX)
    Role: RIFIT
    Keyword: DF_BASIS_MP2
    atoms 1   entry B          line   110 file /work/zw18965/.conda/envs/p4env/share/psi4/basis/aug-cc-pvqz-ri.gbs 
    atoms 2-4 entry H          line    30 file /work/zw18965/.conda/envs/p4env/share/psi4/basis/aug-cc-pvqz-ri.gbs 

	 --------------------------------------------------------
	                          DF-MP2                         
	      2nd-Order Density-Fitted Moller-Plesset Theory     
	              RMP2 Wavefunction,  24 Threads             
	                                                         
	        Rob Parrish, Justin Turney, Andy Simmonett,      
	           Ed Hohenstein, and C. David Sherrill          
	 --------------------------------------------------------

   => Auxiliary Basis Set <=

  Basis Set: (AUG-CC-PV(Q+D)Z AUX)
    Blend: AUG-CC-PVQZ-RI
    Number of shells: 96
    Number of basis function: 408
    Number of Cartesian functions: 552
    Spherical Harmonics?: true
    Max angular momentum: 5

	 --------------------------------------------------------
	                 NBF =   218, NAUX =   408
	 --------------------------------------------------------
	   CLASS    FOCC     OCC    AOCC    AVIR     VIR    FVIR
	   PAIRS       0       4       4     214     214       0
	 --------------------------------------------------------

	-----------------------------------------------------------
	 ==================> DF-MP2 Energies <==================== 
	-----------------------------------------------------------
	 Reference Energy          =     -26.5103924943784790 [Eh]
	 Singles Energy            =      -0.0000000000000000 [Eh]
	 Same-Spin Energy          =      -0.0164900519236264 [Eh]
	 Opposite-Spin Energy      =      -0.1452486041965304 [Eh]
	 Correlation Energy        =      -0.1617386561201568 [Eh]
	 Total Energy              =     -26.6721311504986360 [Eh]
	-----------------------------------------------------------
	 ================> DF-SCS-MP2 Energies <================== 
	-----------------------------------------------------------
	 SCS Same-Spin Scale       =       0.4000000000000000 [-]
	 SCS Opposite-Spin Scale   =       0.4700000000000000 [-]
	 SCS Same-Spin Energy      =      -0.0065960207694506 [Eh]
	 SCS Opposite-Spin Energy  =      -0.0682668439723693 [Eh]
	 SCS Correlation Energy    =      -0.0748628647418199 [Eh]
	 SCS Total Energy          =     -26.5852553591202998 [Eh]
	-----------------------------------------------------------



    DSD-BLYP-D3BJ Energy Summary
    ----------------------------
    DFT Reference Energy                  =   -26.5103924943784790
    Scaled MP2 Correlation                =    -0.0748628647418199
    @Final double-hybrid DFT total energy =   -26.5852553591202998


*** tstop() called on bp1-compute00192.data.bp.acrc.priv at Mon Apr 19 16:40:37 2021
Module time:
	user time   =      11.59 seconds =       0.19 minutes
	system time =       0.41 seconds =       0.01 minutes
	total time  =          1 seconds =       0.02 minutes
Total time:
	user time   =     231.92 seconds =       3.87 minutes
	system time =      11.15 seconds =       0.19 minutes
	total time  =         12 seconds =       0.20 minutes

  //>>>>>>>>>>>>>>>>>>>>>>>>>>>>>>>>>>>//
  //    Loading displacement 5 of 13   //
  //<<<<<<<<<<<<<<<<<<<<<<<<<<<<<<<<<<<//

*** tstart() called on bp1-compute00192.data.bp.acrc.priv
*** at Mon Apr 19 16:40:37 2021

   => Loading Basis Set <=

    Name: AUG-CC-PV(Q+D)Z
    Role: ORBITAL
    Keyword: BASIS
    atoms 1   entry B          line   259 file /work/zw18965/.conda/envs/p4env/share/psi4/basis/aug-cc-pv_qpd_z.gbs 
    atoms 2-4 entry H          line    56 file /work/zw18965/.conda/envs/p4env/share/psi4/basis/aug-cc-pv_qpd_z.gbs 


         ---------------------------------------------------------
                                   SCF
               by Justin Turney, Rob Parrish, Andy Simmonett
                          and Daniel G. A. Smith
                              RKS Reference
                       24 Threads, 137329 MiB Core
         ---------------------------------------------------------

  ==> Geometry <==

    Molecular point group: c1
    Full point group: C1

    Geometry (in Angstrom), charge = 0, multiplicity = 1:

       Center              X                  Y                   Z               Mass       
    ------------   -----------------  -----------------  -----------------  -----------------
         B            0.000007382502     0.000355048741     0.000017537098    11.009305360000
         H           -0.399641017309    -1.031168828251     0.413974537426     1.007825032230
         H           -0.171152927879     0.989124079663     0.617599554294     1.007825032230
         H            0.570713300021     0.038166257894    -1.031765663931     1.007825032230

  Running in c1 symmetry.

  Rotational constants: A =      8.01263  B =      8.01223  C =      4.00622 [cm^-1]
  Rotational constants: A = 240212.63859  B = 240200.58955  C = 120103.31098 [MHz]
  Nuclear repulsion =    7.505384006987323

  Charge       = 0
  Multiplicity = 1
  Electrons    = 8
  Nalpha       = 4
  Nbeta        = 4

  ==> Algorithm <==

  SCF Algorithm Type is DF.
  DIIS enabled.
  MOM disabled.
  Fractional occupation disabled.
  Guess Type is SAD.
  Energy threshold   = 1.00e-08
  Density threshold  = 1.00e-08
  Integral threshold = 0.00e+00

  ==> Primary Basis <==

  Basis Set: AUG-CC-PV(Q+D)Z
    Blend: AUG-CC-PV(Q+D)Z
    Number of shells: 62
    Number of basis function: 218
    Number of Cartesian functions: 270
    Spherical Harmonics?: true
    Max angular momentum: 4

  ==> DFT Potential <==

   => Composite Functional: DSD-BLYP-D3BJ <= 

    DSD-BLYP-D3BJ Dispersion-corrected SCS Double Hybrid XC Functional

    S. Kozuch, J.M.L. Martin, J. Comp. Chem., 34, 2327-2344, 2013


    Deriv               =              1
    GGA                 =           TRUE
    Meta                =          FALSE

    Exchange Hybrid     =           TRUE
    MP2 Hybrid          =           TRUE

   => Exchange Functionals <=

    0.2900     XC_GGA_X_B88

   => Exact (HF) Exchange <=

    0.7100               HF 

   => Correlation Functionals <=

    0.5400     XC_GGA_C_LYP

   => MP2 Correlation <=

    MP2 SCS Hybrid      =           TRUE
    MP2 OS Alpha        =       0.470000
    MP2 SS Alpha        =       0.400000

   => Molecular Quadrature <=

    Radial Scheme          =       TREUTLER
    Pruning Scheme         =           FLAT
    Nuclear Scheme         =       TREUTLER

    BS radius alpha        =              1
    Pruning alpha          =              1
    Radial Points          =             75
    Spherical Points       =            302
    Total Points           =          90600
    Total Blocks           =            737
    Max Points             =            254
    Max Functions          =            218

   => DSD-BLYP-D3BJ: Empirical Dispersion <=

    Grimme's -D3 (BJ-damping) Dispersion Correction
    Grimme S.; Ehrlich S.; Goerigk L. (2011), J. Comput. Chem., 32: 1456
    Parametrisation from:    S. Kozuch, J.M.L. Martin, J. Comp. Chem., 34, 2327-2344, 2013

        s6 =       0.570000
        s8 =       0.000000
        a1 =       0.000000
        a2 =       5.400000

   => Loading Basis Set <=

    Name: (AUG-CC-PV(Q+D)Z AUX)
    Role: JKFIT
    Keyword: DF_BASIS_SCF
    atoms 1   entry B          line   108 file /work/zw18965/.conda/envs/p4env/share/psi4/basis/aug-cc-pvqz-jkfit.gbs 
    atoms 2-4 entry H          line    70 file /work/zw18965/.conda/envs/p4env/share/psi4/basis/aug-cc-pvqz-jkfit.gbs 

  ==> Pre-Iterations <==

   -------------------------------------------------------
    Irrep   Nso     Nmo     Nalpha   Nbeta   Ndocc  Nsocc
   -------------------------------------------------------
     A        218     218       0       0       0       0
   -------------------------------------------------------
    Total     218     218       4       4       4       0
   -------------------------------------------------------

  ==> Integral Setup <==

  DFHelper Memory: AOs need 0.152 GiB; user supplied 100.051 GiB. Using in-core AOs.

  ==> MemDFJK: Density-Fitted J/K Matrices <==

    J tasked:                   Yes
    K tasked:                   Yes
    wK tasked:                   No
    OpenMP threads:              24
    Memory [MiB]:            102452
    Algorithm:                 Core
    Schwarz Cutoff:           1E-12
    Mask sparsity (%):       0.0000
    Fitting Condition:        1E-10

   => Auxiliary Basis Set <=

  Basis Set: (AUG-CC-PV(Q+D)Z AUX)
    Blend: AUG-CC-PVQZ-JKFIT
    Number of shells: 88
    Number of basis function: 370
    Number of Cartesian functions: 501
    Spherical Harmonics?: true
    Max angular momentum: 5

  Cached 100.0% of DFT collocation blocks in 0.532 [GiB].

  Minimum eigenvalue in the overlap matrix is 2.6448406342E-05.
  Using Symmetric Orthogonalization.

  SCF Guess: Superposition of Atomic Densities via on-the-fly atomic UHF.

  ==> Iterations <==

                           Total Energy        Delta E     RMS |[F,P]|

   @DF-RKS iter SAD:   -25.82430489922155   -2.58243e+01   0.00000e+00 
   @DF-RKS iter   1:   -26.49566685737601   -6.71362e-01   6.83802e-04 DIIS
   @DF-RKS iter   2:   -26.50926849857832   -1.36016e-02   1.93093e-04 DIIS
   @DF-RKS iter   3:   -26.51036329213649   -1.09479e-03   2.14214e-05 DIIS
   @DF-RKS iter   4:   -26.51039224151842   -2.89494e-05   2.58865e-06 DIIS
   @DF-RKS iter   5:   -26.51039278055929   -5.39041e-07   2.83028e-07 DIIS
   @DF-RKS iter   6:   -26.51039278542119   -4.86191e-09   1.62026e-08 DIIS
   @DF-RKS iter   7:   -26.51039278544076   -1.95719e-11   1.23724e-09 DIIS
  Energy and wave function converged.


  ==> Post-Iterations <==

    Orbital Energies [Eh]
    ---------------------

    Doubly Occupied:                                                      

       1A     -7.306419     2A     -0.642205     3A     -0.452125  
       4A     -0.451346  

    Virtual:                                                              

       5A     -0.001119     6A      0.019750     7A      0.031114  
       8A      0.031146     9A      0.057946    10A      0.069226  
      11A      0.069292    12A      0.092194    13A      0.112683  
      14A      0.112729    15A      0.117676    16A      0.124401  
      17A      0.124461    18A      0.193546    19A      0.193663  
      20A      0.218366    21A      0.239122    22A      0.242142  
      23A      0.256040    24A      0.256281    25A      0.256388  
      26A      0.262683    27A      0.262792    28A      0.291199  
      29A      0.291223    30A      0.296341    31A      0.361711  
      32A      0.399038    33A      0.399111    34A      0.442650  
      35A      0.443028    36A      0.475203    37A      0.494625  
      38A      0.494733    39A      0.535522    40A      0.535636  
      41A      0.541453    42A      0.562799    43A      0.562867  
      44A      0.575452    45A      0.576846    46A      0.673482  
      47A      0.694259    48A      0.719855    49A      0.719995  
      50A      0.735809    51A      0.760020    52A      0.760720  
      53A      0.764079    54A      0.764220    55A      0.823784  
      56A      0.847397    57A      0.847677    58A      0.881437  
      59A      0.881442    60A      0.894004    61A      0.896130  
      62A      0.896398    63A      0.910755    64A      0.977711  
      65A      1.093905    66A      1.094201    67A      1.135328  
      68A      1.135519    69A      1.160660    70A      1.211768  
      71A      1.230891    72A      1.232011    73A      1.237889  
      74A      1.458258    75A      1.458368    76A      1.469296  
      77A      1.470279    78A      1.470654    79A      1.493560  
      80A      1.511665    81A      1.511965    82A      1.550152  
      83A      1.568082    84A      1.568258    85A      1.634331  
      86A      1.647585    87A      1.648223    88A      1.757122  
      89A      1.757424    90A      1.763298    91A      1.764085  
      92A      1.786711    93A      1.787186    94A      1.846067  
      95A      1.881581    96A      1.882322    97A      1.928093  
      98A      1.963956    99A      1.964338   100A      1.964462  
     101A      1.995704   102A      2.077205   103A      2.077303  
     104A      2.079754   105A      2.079857   106A      2.150445  
     107A      2.150532   108A      2.173269   109A      2.185915  
     110A      2.193064   111A      2.193155   112A      2.211952  
     113A      2.212480   114A      2.294178   115A      2.297232  
     116A      2.322116   117A      2.340500   118A      2.341266  
     119A      2.692853   120A      2.824170   121A      2.828206  
     122A      2.948140   123A      3.066660   124A      3.067425  
     125A      3.127444   126A      3.127937   127A      3.205836  
     128A      3.206279   129A      3.277162   130A      3.296488  
     131A      3.296720   132A      3.297185   133A      3.297267  
     134A      3.344929   135A      3.345630   136A      3.439890  
     137A      3.511204   138A      3.512706   139A      3.580318  
     140A      3.582448   141A      3.692442   142A      3.823487  
     143A      3.945146   144A      4.093823   145A      4.094142  
     146A      4.119747   147A      4.119902   148A      4.147884  
     149A      4.219562   150A      4.272168   151A      4.272695  
     152A      4.275510   153A      4.343781   154A      4.344453  
     155A      4.507198   156A      4.507319   157A      4.720258  
     158A      4.839458   159A      5.096211   160A      5.097915  
     161A      5.235453   162A      5.237179   163A      5.253363  
     164A      5.375397   165A      5.376192   166A      5.387524  
     167A      5.461626   168A      6.258642   169A      6.260610  
     170A      6.590303   171A      6.647877   172A      6.648510  
     173A      6.800381   174A      6.816190   175A      6.816702  
     176A      7.068268   177A      7.068545   178A      7.414351  
     179A      7.442688   180A      7.446402   181A      7.731736  
[...]
      23A      0.255799    24A      0.256048    25A      0.256063  
      26A      0.262435    27A      0.262450    28A      0.291149  
      29A      0.291153    30A      0.295625    31A      0.361380  
      32A      0.399499    33A      0.399682    34A      0.441739  
      35A      0.441876    36A      0.474117    37A      0.494587  
      38A      0.494636    39A      0.535186    40A      0.535516  
      41A      0.541570    42A      0.562163    43A      0.562330  
      44A      0.575632    45A      0.576176    46A      0.672771  
      47A      0.693542    48A      0.719656    49A      0.719749  
      50A      0.735219    51A      0.760235    52A      0.760278  
      53A      0.764502    54A      0.764552    55A      0.822810  
      56A      0.845797    57A      0.845913    58A      0.881908  
      59A      0.882170    60A      0.893669    61A      0.894224  
      62A      0.894648    63A      0.909957    64A      0.976166  
      65A      1.094288    66A      1.094655    67A      1.135025  
      68A      1.135087    69A      1.159691    70A      1.212421  
      71A      1.233546    72A      1.233750    73A      1.237646  
      74A      1.457177    75A      1.457526    76A      1.466447  
      77A      1.466669    78A      1.467596    79A      1.492433  
      80A      1.510461    81A      1.510665    82A      1.548769  
      83A      1.566883    84A      1.567439    85A      1.631968  
      86A      1.644744    87A      1.645143    88A      1.756770  
      89A      1.757217    90A      1.762179    91A      1.762260  
      92A      1.783763    93A      1.785167    94A      1.842779  
      95A      1.879692    96A      1.880034    97A      1.924078  
      98A      1.962700    99A      1.963442   100A      1.964525  
     101A      1.995177   102A      2.075871   103A      2.077255  
     104A      2.078290   105A      2.079172   106A      2.150414  
     107A      2.150446   108A      2.169591   109A      2.183274  
     110A      2.191008   111A      2.191573   112A      2.208658  
     113A      2.209012   114A      2.290450   115A      2.299585  
     116A      2.325440   117A      2.347395   118A      2.348227  
     119A      2.684666   120A      2.821146   121A      2.821452  
     122A      2.956830   123A      3.062790   124A      3.063359  
     125A      3.121085   126A      3.122377   127A      3.202807  
     128A      3.203586   129A      3.275752   130A      3.294634  
     131A      3.295793   132A      3.296896   133A      3.297627  
     134A      3.334872   135A      3.337179   136A      3.431831  
     137A      3.507608   138A      3.508428   139A      3.572410  
     140A      3.573376   141A      3.688078   142A      3.820136  
     143A      3.939280   144A      4.090710   145A      4.091159  
     146A      4.115990   147A      4.116079   148A      4.144755  
     149A      4.211883   150A      4.259375   151A      4.262077  
     152A      4.269239   153A      4.340574   154A      4.340939  
     155A      4.501795   156A      4.502762   157A      4.708442  
     158A      4.828602   159A      5.093717   160A      5.098716  
     161A      5.226292   162A      5.229596   163A      5.249376  
     164A      5.366584   165A      5.368993   166A      5.372282  
     167A      5.442990   168A      6.242697   169A      6.243513  
     170A      6.589924   171A      6.645505   172A      6.645541  
     173A      6.791993   174A      6.808780   175A      6.810619  
     176A      7.053214   177A      7.056974   178A      7.400124  
     179A      7.434110   180A      7.434884   181A      7.720684  
     182A      7.722472   183A      7.723746   184A      7.725595  
     185A      7.766343   186A      7.924126   187A      8.070547  
     188A      8.071493   189A      8.091118   190A      8.115650  
     191A      8.355903   192A      8.521716   193A      8.524078  
     194A      8.833475   195A      8.833579   196A      8.962342  
     197A      8.964789   198A      9.010425   199A      9.039671  
     200A      9.039715   201A      9.075404   202A      9.258723  
     203A      9.308464   204A      9.351496   205A      9.352304  
     206A      9.367512   207A      9.525025   208A      9.566548  
     209A      9.571858   210A      9.782638   211A      9.919549  
     212A      9.926205   213A     10.407135   214A     10.408902  
     215A     10.536523   216A     11.408161   217A     11.416579  
     218A     19.343655  

    Final Occupation by Irrep:
              A 
    DOCC [     4 ]

  @DF-RKS Final Energy:   -26.51041913670997

   => Energetics <=

    Nuclear Repulsion Energy =              7.4726978573189831
    One-Electron Energy =                 -49.1543211752999767
    Two-Electron Energy =                  16.7108652603228514
    DFT Exchange-Correlation Energy =      -1.5387913790518275
    Empirical Dispersion Energy =          -0.0008697000000000
    VV10 Nonlocal Energy =                  0.0000000000000000
    Total Energy =                        -26.5104191367099666

Computation Completed


Properties will be evaluated at   0.000000,   0.000000,   0.000000 [a0]

Properties computed using the SCF density matrix

  Nuclear Dipole Moment: [e a0]
     X:    -0.0001      Y:     0.0000      Z:    -0.0001

  Electronic Dipole Moment: [e a0]
     X:     0.0003      Y:    -0.0006      Z:    -0.0003

  Dipole Moment: [e a0]
     X:     0.0002      Y:    -0.0005      Z:    -0.0004     Total:     0.0007

  Dipole Moment: [D]
     X:     0.0005      Y:    -0.0013      Z:    -0.0011     Total:     0.0018


*** tstop() called on bp1-compute00192.data.bp.acrc.priv at Mon Apr 19 16:45:23 2021
Module time:
	user time   =      47.63 seconds =       0.79 minutes
	system time =       1.57 seconds =       0.03 minutes
	total time  =          2 seconds =       0.03 minutes
Total time:
	user time   =    6126.44 seconds =     102.11 minutes
	system time =     215.89 seconds =       3.60 minutes
	total time  =        298 seconds =       4.97 minutes

*** tstart() called on bp1-compute00192.data.bp.acrc.priv
*** at Mon Apr 19 16:45:23 2021

   => Loading Basis Set <=

    Name: (AUG-CC-PV(Q+D)Z AUX)
    Role: RIFIT
    Keyword: DF_BASIS_MP2
    atoms 1   entry B          line   110 file /work/zw18965/.conda/envs/p4env/share/psi4/basis/aug-cc-pvqz-ri.gbs 
    atoms 2-4 entry H          line    30 file /work/zw18965/.conda/envs/p4env/share/psi4/basis/aug-cc-pvqz-ri.gbs 

	 --------------------------------------------------------
	                          DF-MP2                         
	      2nd-Order Density-Fitted Moller-Plesset Theory     
	              RMP2 Wavefunction,  24 Threads             
	                                                         
	        Rob Parrish, Justin Turney, Andy Simmonett,      
	           Ed Hohenstein, and C. David Sherrill          
	 --------------------------------------------------------

   => Auxiliary Basis Set <=

  Basis Set: (AUG-CC-PV(Q+D)Z AUX)
    Blend: AUG-CC-PVQZ-RI
    Number of shells: 96
    Number of basis function: 408
    Number of Cartesian functions: 552
    Spherical Harmonics?: true
    Max angular momentum: 5

	 --------------------------------------------------------
	                 NBF =   218, NAUX =   408
	 --------------------------------------------------------
	   CLASS    FOCC     OCC    AOCC    AVIR     VIR    FVIR
	   PAIRS       0       4       4     214     214       0
	 --------------------------------------------------------

	-----------------------------------------------------------
	 ==================> DF-MP2 Energies <==================== 
	-----------------------------------------------------------
	 Reference Energy          =     -26.5104191367099666 [Eh]
	 Singles Energy            =      -0.0000000000000000 [Eh]
	 Same-Spin Energy          =      -0.0164552890438447 [Eh]
	 Opposite-Spin Energy      =      -0.1452500227463746 [Eh]
	 Correlation Energy        =      -0.1617053117902193 [Eh]
	 Total Energy              =     -26.6721244485001847 [Eh]
	-----------------------------------------------------------
	 ================> DF-SCS-MP2 Energies <================== 
	-----------------------------------------------------------
	 SCS Same-Spin Scale       =       0.4000000000000000 [-]
	 SCS Opposite-Spin Scale   =       0.4700000000000000 [-]
	 SCS Same-Spin Energy      =      -0.0065821156175379 [Eh]
	 SCS Opposite-Spin Energy  =      -0.0682675106907960 [Eh]
	 SCS Correlation Energy    =      -0.0748496263083339 [Eh]
	 SCS Total Energy          =     -26.5852687630183020 [Eh]
	-----------------------------------------------------------



    DSD-BLYP-D3BJ Energy Summary
    ----------------------------
    DFT Reference Energy                  =   -26.5104191367099666
    Scaled MP2 Correlation                =    -0.0748496263083339
    @Final double-hybrid DFT total energy =   -26.5852687630183020


*** tstop() called on bp1-compute00192.data.bp.acrc.priv at Mon Apr 19 16:45:24 2021
Module time:
	user time   =      12.02 seconds =       0.20 minutes
	system time =       0.43 seconds =       0.01 minutes
	total time  =          1 seconds =       0.02 minutes
Total time:
	user time   =    6138.47 seconds =     102.31 minutes
	system time =     216.32 seconds =       3.61 minutes
	total time  =        299 seconds =       4.98 minutes

         ----------------------------------------------------------
                                   FINDIF
                     R. A. King and Jonathon Misiewicz
         ---------------------------------------------------------

  Computing second-derivative from energies using projected, 
  symmetry-adapted, cartesian coordinates.

  43 energies passed in, including the reference geometry.
    Using 3-point formula.
    Energy without displacement:  -26.5852743199
    Check energies below for precision!
    0: -1        :       -26.5852733011
    0: 1         :       -26.5852732195
    1: -1        :       -26.5852720930
    1: 1         :       -26.5852721226
    2: -1        :       -26.5852724382
    2: 1         :       -26.5852723814
    3: -1        :       -26.5852719062
    3: 1         :       -26.5852718766
    4: -1        :       -26.5852720793
    4: 1         :       -26.5852720689
    5: -1        :       -26.5852717227
    5: 1         :       -26.5852716551
    0: 1, 1: 1   :       -26.5852706048
    0: -1, 1: -1 :       -26.5852706428
    0: 1, 2: 1   :       -26.5852726181
    0: -1, 2: -1 :       -26.5852727614
    1: 1, 2: 1   :       -26.5852699878
    1: -1, 2: -1 :       -26.5852700432
    0: 1, 3: 1   :       -26.5852707019
    0: -1, 3: -1 :       -26.5852708143
    1: 1, 3: 1   :       -26.5852718507
    1: -1, 3: -1 :       -26.5852718382
    2: 1, 3: 1   :       -26.5852707613
    2: -1, 3: -1 :       -26.5852708556
    0: 1, 4: 1   :       -26.5852722017
    0: -1, 4: -1 :       -26.5852722892
    1: 1, 4: 1   :       -26.5852698488
    1: -1, 4: -1 :       -26.5852698548
    2: 1, 4: 1   :       -26.5852679000
    2: -1, 4: -1 :       -26.5852679715
    3: 1, 4: 1   :       -26.5852690513
    3: -1, 4: -1 :       -26.5852691084
    0: 1, 5: 1   :       -26.5852698817
    0: -1, 5: -1 :       -26.5852700385
    1: 1, 5: 1   :       -26.5852676965
    1: -1, 5: -1 :       -26.5852677627
    2: 1, 5: 1   :       -26.5852704198
    2: -1, 5: -1 :       -26.5852705573
    3: 1, 5: 1   :       -26.5852682513
    3: -1, 5: -1 :       -26.5852683769
    4: 1, 5: 1   :       -26.5852686689
    4: -1, 5: -1 :       -26.5852687630

-------------------------------------------------------------


  ==> Harmonic Vibrational Analysis <==

  non-mass-weighted Hessian:       Symmetric? True   Hermitian? True   Lin Dep Dim?  6 (0)
  projection of translations (True) and rotations (True) removed 6 degrees of freedom (6)
  total projector:                 Symmetric? True   Hermitian? True   Lin Dep Dim?  6 (6)
  mass-weighted Hessian:           Symmetric? True   Hermitian? True   Lin Dep Dim?  6 (0)
  pre-proj  low-frequency mode:    0.0000i [cm^-1]
  pre-proj  low-frequency mode:    0.0000i [cm^-1]
  pre-proj  low-frequency mode:    0.0000i [cm^-1]
  pre-proj  low-frequency mode:    0.0000i [cm^-1]
  pre-proj  low-frequency mode:    0.0000  [cm^-1]
  pre-proj  low-frequency mode:    0.0000  [cm^-1]
  pre-proj  all modes:['0.0000i' '0.0000i' '0.0000i' '0.0000i' '0.0000' '0.0000' '1178.8838'
 '1241.5739' '1255.4632' '2612.7512' '2740.8092' '2747.9515']
  projected mass-weighted Hessian: Symmetric? True   Hermitian? True   Lin Dep Dim?  6 (6)
  post-proj low-frequency mode:    0.0000i [cm^-1] (TR)
  post-proj low-frequency mode:    0.0000i [cm^-1] (TR)
  post-proj low-frequency mode:    0.0000  [cm^-1] (TR)
  post-proj low-frequency mode:    0.0000  [cm^-1] (TR)
  post-proj low-frequency mode:    0.0000  [cm^-1] (TR)
  post-proj low-frequency mode:    0.0000  [cm^-1] (TR)
  post-proj  all modes:['0.0000i' '0.0000i' '0.0000' '0.0000' '0.0000' '0.0000' '1178.8838'
 '1241.5739' '1255.4632' '2612.7512' '2740.8092' '2747.9515']

  Vibration                       7                   8                   9           
  Freq [cm^-1]                1178.8838           1241.5739           1255.4632       
  Irrep                           A                   A                   A           
  Reduced mass [u]              1.2530              1.1091              1.1062        
  Force const [mDyne/A]         1.0260              1.0073              1.0273        
  Turning point v=0 [a0]        0.2855              0.2957              0.2944        
  RMS dev v=0 [a0 u^1/2]        0.2260              0.2202              0.2190        
  Char temp [K]               1696.1514           1786.3484           1806.3321       
  ----------------------------------------------------------------------------------
      1   B               -0.14  0.02 -0.07    0.02 -0.08 -0.06    0.04  0.06 -0.06   
      2   H                0.50 -0.09  0.26   -0.28  0.33  0.62   -0.08  0.21  0.22   
      3   H                0.50 -0.07  0.26   -0.04 -0.12  0.04   -0.37 -0.41  0.58   
      4   H                0.50 -0.08  0.27    0.10  0.63  0.02   -0.01 -0.49 -0.11   

  Vibration                       10                  11                  12          
  Freq [cm^-1]                2612.7512           2740.8092           2747.9515       
  Irrep                           A                   A                   A           
  Reduced mass [u]              1.0079              1.1252              1.1285        
  Force const [mDyne/A]         4.0537              4.9801              5.0206        
  Turning point v=0 [a0]        0.2138              0.1976              0.1970        
  RMS dev v=0 [a0 u^1/2]        0.1518              0.1482              0.1480        
  Char temp [K]               3759.1673           3943.4142           3953.6903       
  ----------------------------------------------------------------------------------
      1   B               -0.00 -0.00  0.00    0.01 -0.10 -0.04    0.05  0.04 -0.09   
      2   H                0.20  0.51 -0.21    0.18  0.45 -0.20   -0.20 -0.53  0.21   
      3   H                0.08 -0.49 -0.30   -0.12  0.67  0.42   -0.01  0.12  0.06   
      4   H               -0.27 -0.02  0.49   -0.13 -0.03  0.23   -0.38 -0.02  0.68   

  ==> Thermochemistry Components <==

  Entropy, S
    Electronic S            0.000 [cal/(mol K)]        0.000 [J/(mol K)]       0.00000000 [mEh/K] (multiplicity = 1)
    Translational S        33.864 [cal/(mol K)]      141.688 [J/(mol K)]       0.05396630 [mEh/K] (mol. weight = 14.0328 [u], P = 101325.00 [Pa])
    Rotational S           14.520 [cal/(mol K)]       60.753 [J/(mol K)]       0.02313947 [mEh/K] (symmetry no. = 1)
    Vibrational S           0.113 [cal/(mol K)]        0.473 [J/(mol K)]       0.00018005 [mEh/K]
  Total S                  48.498 [cal/(mol K)]      202.914 [J/(mol K)]       0.07728582 [mEh/K]
  Correction S              0.000 [cal/(mol K)]        0.000 [J/(mol K)]       0.00000000 [mEh/K]

  Constant volume heat capacity, Cv
    Electronic Cv           0.000 [cal/(mol K)]        0.000 [J/(mol K)]       0.00000000 [mEh/K]
    Translational Cv        2.981 [cal/(mol K)]       12.472 [J/(mol K)]       0.00475022 [mEh/K]
    Rotational Cv           2.981 [cal/(mol K)]       12.472 [J/(mol K)]       0.00475022 [mEh/K]
    Vibrational Cv          0.572 [cal/(mol K)]        2.393 [J/(mol K)]       0.00091143 [mEh/K]
  Total Cv                  6.534 [cal/(mol K)]       27.336 [J/(mol K)]       0.01041186 [mEh/K]
  Correction Cv             0.000 [cal/(mol K)]        0.000 [J/(mol K)]       0.00000000 [mEh/K]

  Constant pressure heat capacity, Cp
    Electronic Cp           0.000 [cal/(mol K)]        0.000 [J/(mol K)]       0.00000000 [mEh/K]
    Translational Cp        4.968 [cal/(mol K)]       20.786 [J/(mol K)]       0.00791703 [mEh/K]
    Rotational Cp           2.981 [cal/(mol K)]       12.472 [J/(mol K)]       0.00475022 [mEh/K]
    Vibrational Cp          0.572 [cal/(mol K)]        2.393 [J/(mol K)]       0.00091143 [mEh/K]
  Total Cp                  8.521 [cal/(mol K)]       35.651 [J/(mol K)]       0.01357867 [mEh/K]
  Correction Cp             0.000 [cal/(mol K)]        0.000 [J/(mol K)]       0.00000000 [mEh/K]

  ==> Thermochemistry Energy Analysis <==

  Raw electronic energy, E0
  Total E0, Electronic energy at well bottom at 0 [K]                  -26.58527432 [Eh]

  Zero-point energy, ZPE_vib = Sum_i nu_i / 2
    Electronic ZPE          0.000 [kcal/mol]        0.000 [kJ/mol]       0.00000000 [Eh]
    Translational ZPE       0.000 [kcal/mol]        0.000 [kJ/mol]       0.00000000 [Eh]
    Rotational ZPE          0.000 [kcal/mol]        0.000 [kJ/mol]       0.00000000 [Eh]
    Vibrational ZPE        16.837 [kcal/mol]       70.445 [kJ/mol]       0.02683097 [Eh]        5888.716 [cm^-1]
  Correction ZPE           16.837 [kcal/mol]       70.445 [kJ/mol]       0.02683097 [Eh]        5888.716 [cm^-1]
  Total ZPE, Electronic energy at 0 [K]                                -26.55844335 [Eh]

  Thermal Energy, E (includes ZPE)
    Electronic E            0.000 [kcal/mol]        0.000 [kJ/mol]       0.00000000 [Eh]
    Translational E         0.889 [kcal/mol]        3.718 [kJ/mol]       0.00141628 [Eh]
    Rotational E            0.889 [kcal/mol]        3.718 [kJ/mol]       0.00141628 [Eh]
    Vibrational E          16.865 [kcal/mol]       70.565 [kJ/mol]       0.02687687 [Eh]
  Correction E             18.643 [kcal/mol]       78.002 [kJ/mol]       0.02970942 [Eh]
  Total E, Electronic energy at  298.15 [K]                            -26.55556490 [Eh]

  Enthalpy, H_trans = E_trans + k_B * T
    Electronic H            0.000 [kcal/mol]        0.000 [kJ/mol]       0.00000000 [Eh]
    Translational H         1.481 [kcal/mol]        6.197 [kJ/mol]       0.00236046 [Eh]
    Rotational H            0.889 [kcal/mol]        3.718 [kJ/mol]       0.00141628 [Eh]
    Vibrational H          16.865 [kcal/mol]       70.565 [kJ/mol]       0.02687687 [Eh]
  Correction H             19.235 [kcal/mol]       80.481 [kJ/mol]       0.03065361 [Eh]
  Total H, Enthalpy at  298.15 [K]                                     -26.55462071 [Eh]

  Gibbs free energy, G = H - T * S
    Electronic G            0.000 [kcal/mol]        0.000 [kJ/mol]       0.00000000 [Eh]
    Translational G        -8.615 [kcal/mol]      -36.047 [kJ/mol]      -0.01372959 [Eh]
    Rotational G           -3.440 [kcal/mol]      -14.395 [kJ/mol]      -0.00548276 [Eh]
    Vibrational G          16.832 [kcal/mol]       70.424 [kJ/mol]       0.02682319 [Eh]
  Correction G              4.776 [kcal/mol]       19.982 [kJ/mol]       0.00761084 [Eh]
  Total G, Free enthalpy at  298.15 [K]                                -26.57766348 [Eh]

    Psi4 stopped on: Monday, 19 April 2021 04:45PM
    Psi4 wall time for execution: 0:04:58.59

*** Psi4 exiting successfully. Buy a developer a beer!
