
    -----------------------------------------------------------------------
          Psi4: An Open-Source Ab Initio Electronic Structure Package
                               Psi4 1.3.2 release

                         Git: Rev {HEAD} ecbda83 


    R. M. Parrish, L. A. Burns, D. G. A. Smith, A. C. Simmonett,
    A. E. DePrince III, E. G. Hohenstein, U. Bozkaya, A. Yu. Sokolov,
    R. Di Remigio, R. M. Richard, J. F. Gonthier, A. M. James,
    H. R. McAlexander, A. Kumar, M. Saitow, X. Wang, B. P. Pritchard,
    P. Verma, H. F. Schaefer III, K. Patkowski, R. A. King, E. F. Valeev,
    F. A. Evangelista, J. M. Turney, T. D. Crawford, and C. D. Sherrill,
    J. Chem. Theory Comput. 13(7) pp 3185--3197 (2017).
    (doi: 10.1021/acs.jctc.7b00174)


                         Additional Contributions by
    P. Kraus, H. Kruse, M. H. Lechner, M. C. Schieber, R. A. Shaw,
    A. Alenaizan, R. Galvelis, Z. L. Glick, S. Lehtola, and J. P. Misiewicz

    -----------------------------------------------------------------------


    Psi4 started on: Monday, 19 April 2021 03:42PM

    Process ID: 1414
    Host:       bp1-compute00150.data.bp.acrc.priv
    PSIDATADIR: /work/zw18965/.conda/envs/p4env/share/psi4
    Memory:     500.0 MiB
    Threads:    24
    
  ==> Input File <==

--------------------------------------------------------------------------
memory 144 GB

molecule {
0 1
Cl    0.834210788250   0.000000000000   0.000000000000
F    -0.834210788250   0.000000000000   0.000000000000}

set basis aug-cc-pV(Q+d)Z
 
optimize("DSD-BLYP-D3BJ")
frequencies("DSD-BLYP-D3BJ")--------------------------------------------------------------------------

  Memory set to 134.110 GiB by Python driver.
gradient() will perform gradient computation by finite difference of analytic energies.

         ----------------------------------------------------------
                                   FINDIF
                     R. A. King and Jonathon Misiewicz
         ---------------------------------------------------------

  Using finite-differences of energies to determine gradients.
    Generating geometries for use with 3-point formula.
    Displacement size will be 5.00e-03.
    Number of atoms is 2.
    Number of symmetric SALCs is 1.
    Translations projected? 1. Rotations projected? 1.
    Number of geometries (including reference) is 3.

  //>>>>>>>>>>>>>>>>>>>>>>>>>>>>>>>>>>>//
  //    Loading displacement 1 of 3    //
  //<<<<<<<<<<<<<<<<<<<<<<<<<<<<<<<<<<<//

*** tstart() called on bp1-compute00150.data.bp.acrc.priv
*** at Mon Apr 19 15:42:18 2021

   => Loading Basis Set <=

    Name: AUG-CC-PV(Q+D)Z
    Role: ORBITAL
    Keyword: BASIS
    atoms 1 entry CL         line  1246 file /work/zw18965/.conda/envs/p4env/share/psi4/basis/aug-cc-pv_qpd_z.gbs 
    atoms 2 entry F          line   499 file /work/zw18965/.conda/envs/p4env/share/psi4/basis/aug-cc-pv_qpd_z.gbs 


         ---------------------------------------------------------
                                   SCF
               by Justin Turney, Rob Parrish, Andy Simmonett
                          and Daniel G. A. Smith
                              RKS Reference
                       24 Threads, 137329 MiB Core
         ---------------------------------------------------------

  ==> Geometry <==

    Molecular point group: c2v
    Full point group: C_inf_v

    Geometry (in Angstrom), charge = 0, multiplicity = 1:

       Center              X                  Y                   Z               Mass       
    ------------   -----------------  -----------------  -----------------  -----------------
         CL           0.000000000000     0.000000000000     0.587344034074    34.968852682000
         F            0.000000000000     0.000000000000    -1.081077542426    18.998403162730

  Running in c2v symmetry.

  Rotational constants: A = ************  B =      0.49195  C =      0.49195 [cm^-1]
  Rotational constants: A = ************  B =  14748.14696  C =  14748.14696 [MHz]
  Nuclear repulsion =   48.527371242917987

  Charge       = 0
  Multiplicity = 1
  Electrons    = 26
  Nalpha       = 13
  Nbeta        = 13

  ==> Algorithm <==

  SCF Algorithm Type is DF.
  DIIS enabled.
  MOM disabled.
  Fractional occupation disabled.
  Guess Type is SAD.
  Energy threshold   = 1.00e-08
  Density threshold  = 1.00e-08
  Integral threshold = 0.00e+00

  ==> Primary Basis <==

  Basis Set: AUG-CC-PV(Q+D)Z
    Blend: AUG-CC-PV(Q+D)Z
    Number of shells: 43
    Number of basis function: 169
    Number of Cartesian functions: 220
    Spherical Harmonics?: true
    Max angular momentum: 4

  ==> DFT Potential <==

   => Composite Functional: DSD-BLYP-D3BJ <= 

    DSD-BLYP-D3BJ Dispersion-corrected SCS Double Hybrid XC Functional

    S. Kozuch, J.M.L. Martin, J. Comp. Chem., 34, 2327-2344, 2013


    Deriv               =              1
    GGA                 =           TRUE
    Meta                =          FALSE

    Exchange Hybrid     =           TRUE
    MP2 Hybrid          =           TRUE

   => Exchange Functionals <=

    0.2900     XC_GGA_X_B88

   => Exact (HF) Exchange <=

    0.7100               HF 

   => Correlation Functionals <=

    0.5400     XC_GGA_C_LYP

   => MP2 Correlation <=

    MP2 SCS Hybrid      =           TRUE
    MP2 OS Alpha        =       0.470000
    MP2 SS Alpha        =       0.400000

   => Molecular Quadrature <=

    Radial Scheme          =       TREUTLER
    Pruning Scheme         =           FLAT
    Nuclear Scheme         =       TREUTLER

    BS radius alpha        =              1
    Pruning alpha          =              1
    Radial Points          =             75
    Spherical Points       =            302
    Total Points           =          45099
    Total Blocks           =            423
    Max Points             =            255
    Max Functions          =            169

   => DSD-BLYP-D3BJ: Empirical Dispersion <=

    Grimme's -D3 (BJ-damping) Dispersion Correction
    Grimme S.; Ehrlich S.; Goerigk L. (2011), J. Comput. Chem., 32: 1456
    Parametrisation from:    S. Kozuch, J.M.L. Martin, J. Comp. Chem., 34, 2327-2344, 2013

        s6 =       0.570000
        s8 =       0.000000
        a1 =       0.000000
        a2 =       5.400000

   => Loading Basis Set <=

    Name: (AUG-CC-PV(Q+D)Z AUX)
    Role: JKFIT
    Keyword: DF_BASIS_SCF
    atoms 1 entry CL         line   904 file /work/zw18965/.conda/envs/p4env/share/psi4/basis/aug-cc-pvqz-jkfit.gbs 
    atoms 2 entry F          line   388 file /work/zw18965/.conda/envs/p4env/share/psi4/basis/aug-cc-pvqz-jkfit.gbs 

  ==> Pre-Iterations <==

   -------------------------------------------------------
    Irrep   Nso     Nmo     Nalpha   Nbeta   Ndocc  Nsocc
   -------------------------------------------------------
     A1        66      66       0       0       0       0
     A2        23      23       0       0       0       0
     B1        40      40       0       0       0       0
     B2        40      40       0       0       0       0
   -------------------------------------------------------
    Total     169     169      13      13      13       0
   -------------------------------------------------------

  ==> Integral Setup <==

  DFHelper Memory: AOs need 0.082 GiB; user supplied 100.393 GiB. Using in-core AOs.

  ==> MemDFJK: Density-Fitted J/K Matrices <==

    J tasked:                   Yes
    K tasked:                   Yes
    wK tasked:                   No
    OpenMP threads:              24
    Memory [MiB]:            102802
    Algorithm:                 Core
    Schwarz Cutoff:           1E-12
    Mask sparsity (%):       0.0280
    Fitting Condition:        1E-10

   => Auxiliary Basis Set <=

  Basis Set: (AUG-CC-PV(Q+D)Z AUX)
    Blend: AUG-CC-PVQZ-JKFIT
    Number of shells: 80
    Number of basis function: 326
    Number of Cartesian functions: 445
    Spherical Harmonics?: true
    Max angular momentum: 5

  Cached 100.0% of DFT collocation blocks in 0.190 [GiB].

  Minimum eigenvalue in the overlap matrix is 3.0143615087E-04.
  Using Symmetric Orthogonalization.

  SCF Guess: Superposition of Atomic Densities via on-the-fly atomic UHF.

  ==> Iterations <==

                           Total Energy        Delta E     RMS |[F,P]|

   @DF-RKS iter SAD:  -559.15618206990803   -5.59156e+02   0.00000e+00 
   @DF-RKS iter   1:  -559.47361719785931   -3.17435e-01   2.92987e-03 DIIS
   @DF-RKS iter   2:  -559.48358206135538   -9.96486e-03   2.21341e-03 DIIS
   @DF-RKS iter   3:  -559.49397697252220   -1.03949e-02   5.35354e-04 DIIS
   @DF-RKS iter   4:  -559.49464447553794   -6.67503e-04   8.73774e-05 DIIS
   @DF-RKS iter   5:  -559.49467232592622   -2.78504e-05   2.17591e-05 DIIS
   @DF-RKS iter   6:  -559.49467387025254   -1.54433e-06   2.50227e-06 DIIS
   @DF-RKS iter   7:  -559.49467391740279   -4.71503e-08   4.38344e-07 DIIS
   @DF-RKS iter   8:  -559.49467391842916   -1.02636e-09   1.65595e-07 DIIS
   @DF-RKS iter   9:  -559.49467391852727   -9.81117e-11   3.06026e-08 DIIS
   @DF-RKS iter  10:  -559.49467391853557   -8.29914e-12   6.68709e-09 DIIS
  Energy and wave function converged.


  ==> Post-Iterations <==

    Orbital Energies [Eh]
    ---------------------

    Doubly Occupied:                                                      

       1A1  -103.765589     2A1   -25.777781     3A1   -10.261730  
       4A1    -7.838728     1B2    -7.829852     1B1    -7.829852  
       5A1    -1.488168     6A1    -1.016549     7A1    -0.638218  
       2B2    -0.637993     2B1    -0.637993     3B1    -0.446041  
       3B2    -0.446041  

    Virtual:                                                              

       8A1    -0.033342     9A1     0.055711     4B1     0.076734  
       4B2     0.076734    10A1     0.085815    11A1     0.159196  
       5B1     0.180901     5B2     0.180901     1A2     0.209633  
      12A1     0.209633     6B1     0.276929     6B2     0.276929  
      13A1     0.298712    14A1     0.306442     7B2     0.410490  
       7B1     0.410490    15A1     0.420674    16A1     0.546266  
       2A2     0.546266     8B1     0.562219     8B2     0.562219  
      17A1     0.580076    18A1     0.617940     3A2     0.617940  
      19A1     0.697708     9B2     0.749265     9B1     0.749265  
      10B1     0.751430    10B2     0.751430    20A1     0.814405  
      11B1     0.857891    11B2     0.857891     4A2     0.881188  
      21A1     0.881189    22A1     0.953801    12B2     1.085466  
      12B1     1.085466    23A1     1.104845    24A1     1.363319  
      25A1     1.458133     5A2     1.458133    26A1     1.520849  
      13B1     1.525862    13B2     1.525862    14B1     1.648477  
      14B2     1.648477    15B1     1.684093    15B2     1.684093  
       6A2     1.695759    27A1     1.695760    16B1     1.733888  
      16B2     1.733888    28A1     1.764209     7A2     1.764210  
      17B2     1.927391    17B1     1.927391    29A1     1.940051  
      30A1     1.966984     8A2     1.966984    18B1     2.028650  
      18B2     2.028650    31A1     2.059196     9A2     2.064784  
      32A1     2.064785    19B1     2.105991    19B2     2.105991  
      33A1     2.320929    20B1     2.359243    20B2     2.359243  
      34A1     2.400563    10A2     2.488242    35A1     2.488244  
      36A1     2.688450    21B1     2.878945    21B2     2.878945  
      37A1     2.950398    22B1     3.450566    22B2     3.450566  
      38A1     3.547197    11A2     3.547204    39A1     3.577547  
      23B1     3.734376    23B2     3.734376    24B1     4.226863  
      24B2     4.226863    40A1     4.229012    41A1     4.333074  
      12A2     4.333075    25B2     4.488463    25B1     4.488463  
      26B1     4.520606    26B2     4.520606    13A2     4.524716  
      42A1     4.524717    43A1     4.530626    14A2     4.530647  
      44A1     4.580724    45A1     4.606213    15A2     4.606280  
      27B2     4.707522    27B1     4.707522    28B1     4.769740  
      28B2     4.769740    46A1     5.117040    47A1     5.193072  
      16A2     5.245140    48A1     5.245146    29B2     5.390674  
      29B1     5.390674    30B2     5.420368    30B1     5.420368  
      49A1     5.458300    17A2     5.619047    50A1     5.619063  
      18A2     5.688711    51A1     5.688725    31B2     5.792772  
      31B1     5.792772    52A1     6.142498    32B2     6.229250  
      32B1     6.229250    53A1     6.596436    33B1     6.598186  
      33B2     6.598186    54A1     7.965094    19A2    11.111362  
      55A1    11.111367    34B1    11.262376    34B2    11.262376  
      56A1    11.455805    35B1    12.893719    35B2    12.893719  
      57A1    13.426576    20A2    13.426901    36B1    13.452809  
      36B2    13.452809    58A1    13.621675    21A2    13.621703  
      37B1    13.822739    37B2    13.822739    59A1    13.831311  
      60A1    14.078472    38B2    15.581422    38B1    15.581422  
      61A1    15.692413    22A2    15.692517    39B1    15.824712  
      39B2    15.824712    62A1    15.964956    23A2    16.462395  
      63A1    16.462469    40B2    16.903924    40B1    16.903924  
      64A1    17.148189    65A1    24.331687    66A1    53.843185  

    Final Occupation by Irrep:
             A1    A2    B1    B2 
    DOCC [     7,    0,    3,    3 ]

  @DF-RKS Final Energy:  -559.49467391853557

   => Energetics <=

    Nuclear Repulsion Energy =             48.5273712429179866
    One-Electron Energy =                -870.6114064332302860
    Two-Electron Energy =                 274.0578440647587399
    DFT Exchange-Correlation Energy =     -11.4679564429820964
    Empirical Dispersion Energy =          -0.0005263500000000
    VV10 Nonlocal Energy =                  0.0000000000000000
    Total Energy =                       -559.4946739185356819

Computation Completed


Properties will be evaluated at   0.000000,   0.000000,   0.000000 [a0]

Properties computed using the SCF density matrix

  Nuclear Dipole Moment: [e a0]
     X:     0.0000      Y:     0.0000      Z:     0.4822

  Electronic Dipole Moment: [e a0]
     X:     0.0000      Y:     0.0000      Z:    -0.0261

  Dipole Moment: [e a0]
     X:     0.0000      Y:     0.0000      Z:     0.4561     Total:     0.4561

  Dipole Moment: [D]
     X:     0.0000      Y:     0.0000      Z:     1.1592     Total:     1.1592


*** tstop() called on bp1-compute00150.data.bp.acrc.priv at Mon Apr 19 15:42:20 2021
Module time:
	user time   =      42.53 seconds =       0.71 minutes
	system time =       1.84 seconds =       0.03 minutes
	total time  =          2 seconds =       0.03 minutes
Total time:
	user time   =      42.53 seconds =       0.71 minutes
	system time =       1.84 seconds =       0.03 minutes
	total time  =          2 seconds =       0.03 minutes

*** tstart() called on bp1-compute00150.data.bp.acrc.priv
*** at Mon Apr 19 15:42:20 2021

   => Loading Basis Set <=

    Name: (AUG-CC-PV(Q+D)Z AUX)
    Role: RIFIT
    Keyword: DF_BASIS_MP2
    atoms 1 entry CL         line   914 file /work/zw18965/.conda/envs/p4env/share/psi4/basis/aug-cc-pvqz-ri.gbs 
    atoms 2 entry F          line   406 file /work/zw18965/.conda/envs/p4env/share/psi4/basis/aug-cc-pvqz-ri.gbs 

	 --------------------------------------------------------
	                          DF-MP2                         
	      2nd-Order Density-Fitted Moller-Plesset Theory     
	              RMP2 Wavefunction,  24 Threads             
	                                                         
	        Rob Parrish, Justin Turney, Andy Simmonett,      
	           Ed Hohenstein, and C. David Sherrill          
	 --------------------------------------------------------

   => Auxiliary Basis Set <=

  Basis Set: (AUG-CC-PV(Q+D)Z AUX)
    Blend: AUG-CC-PVQZ-RI
    Number of shells: 80
    Number of basis function: 362
    Number of Cartesian functions: 505
    Spherical Harmonics?: true
    Max angular momentum: 5

	 --------------------------------------------------------
	                 NBF =   169, NAUX =   362
	 --------------------------------------------------------
	   CLASS    FOCC     OCC    AOCC    AVIR     VIR    FVIR
	   PAIRS       0      13      13     156     156       0
	 --------------------------------------------------------

	-----------------------------------------------------------
	 ==================> DF-MP2 Energies <==================== 
	-----------------------------------------------------------
	 Reference Energy          =    -559.4946739185355682 [Eh]
	 Singles Energy            =      -0.0000000000000000 [Eh]
	 Same-Spin Energy          =      -0.1850433950393883 [Eh]
	 Opposite-Spin Energy      =      -0.5423611266236599 [Eh]
	 Correlation Energy        =      -0.7274045216630481 [Eh]
	 Total Energy              =    -560.2220784401986293 [Eh]
	-----------------------------------------------------------
	 ================> DF-SCS-MP2 Energies <================== 
	-----------------------------------------------------------
	 SCS Same-Spin Scale       =       0.4000000000000000 [-]
	 SCS Opposite-Spin Scale   =       0.4700000000000000 [-]
	 SCS Same-Spin Energy      =      -0.0740173580157553 [Eh]
	 SCS Opposite-Spin Energy  =      -0.2549097295131201 [Eh]
	 SCS Correlation Energy    =      -0.3289270875288755 [Eh]
	 SCS Total Energy          =    -559.8236010060644503 [Eh]
	-----------------------------------------------------------



    DSD-BLYP-D3BJ Energy Summary
    ----------------------------
    DFT Reference Energy                  =  -559.4946739185355682
    Scaled MP2 Correlation                =    -0.3289270875288755
    @Final double-hybrid DFT total energy =  -559.8236010060644503


*** tstop() called on bp1-compute00150.data.bp.acrc.priv at Mon Apr 19 15:42:21 2021
Module time:
	user time   =      11.73 seconds =       0.20 minutes
	system time =       0.45 seconds =       0.01 minutes
	total time  =          1 seconds =       0.02 minutes
Total time:
	user time   =      54.27 seconds =       0.90 minutes
	system time =       2.29 seconds =       0.04 minutes
	total time  =          3 seconds =       0.05 minutes

  //>>>>>>>>>>>>>>>>>>>>>>>>>>>>>>>>>>>//
  //    Loading displacement 2 of 3    //
  //<<<<<<<<<<<<<<<<<<<<<<<<<<<<<<<<<<<//

*** tstart() called on bp1-compute00150.data.bp.acrc.priv
*** at Mon Apr 19 15:42:21 2021

   => Loading Basis Set <=

    Name: AUG-CC-PV(Q+D)Z
    Role: ORBITAL
    Keyword: BASIS
    atoms 1 entry CL         line  1246 file /work/zw18965/.conda/envs/p4env/share/psi4/basis/aug-cc-pv_qpd_z.gbs 
    atoms 2 entry F          line   499 file /work/zw18965/.conda/envs/p4env/share/psi4/basis/aug-cc-pv_qpd_z.gbs 


         ---------------------------------------------------------
                                   SCF
               by Justin Turney, Rob Parrish, Andy Simmonett
                          and Daniel G. A. Smith
                              RKS Reference
                       24 Threads, 137329 MiB Core
         ---------------------------------------------------------

  ==> Geometry <==

    Molecular point group: c2v
    Full point group: C_inf_v

    Geometry (in Angstrom), charge = 0, multiplicity = 1:

       Center              X                  Y                   Z               Mass       
    ------------   -----------------  -----------------  -----------------  -----------------
         CL           0.000000000000     0.000000000000     0.587078558953    34.968852682000
         F            0.000000000000     0.000000000000    -1.080588903443    18.998403162730

  Running in c2v symmetry.

  Rotational constants: A = ************  B =      0.49239  C =      0.49239 [cm^-1]
  Rotational constants: A = ************  B =  14761.48811  C =  14761.48811 [MHz]
  Nuclear repulsion =   48.549315171131560

  Charge       = 0
  Multiplicity = 1
  Electrons    = 26
  Nalpha       = 13
  Nbeta        = 13

  ==> Algorithm <==

  SCF Algorithm Type is DF.
  DIIS enabled.
  MOM disabled.
  Fractional occupation disabled.
  Guess Type is SAD.
  Energy threshold   = 1.00e-08
  Density threshold  = 1.00e-08
  Integral threshold = 0.00e+00

  ==> Primary Basis <==

  Basis Set: AUG-CC-PV(Q+D)Z
    Blend: AUG-CC-PV(Q+D)Z
    Number of shells: 43
    Number of basis function: 169
    Number of Cartesian functions: 220
    Spherical Harmonics?: true
    Max angular momentum: 4

  ==> DFT Potential <==

   => Composite Functional: DSD-BLYP-D3BJ <= 

    DSD-BLYP-D3BJ Dispersion-corrected SCS Double Hybrid XC Functional

    S. Kozuch, J.M.L. Martin, J. Comp. Chem., 34, 2327-2344, 2013


    Deriv               =              1
    GGA                 =           TRUE
    Meta                =          FALSE

    Exchange Hybrid     =           TRUE
    MP2 Hybrid          =           TRUE

   => Exchange Functionals <=

    0.2900     XC_GGA_X_B88

   => Exact (HF) Exchange <=

    0.7100               HF 

   => Correlation Functionals <=

    0.5400     XC_GGA_C_LYP

   => MP2 Correlation <=

    MP2 SCS Hybrid      =           TRUE
    MP2 OS Alpha        =       0.470000
    MP2 SS Alpha        =       0.400000

   => Molecular Quadrature <=

    Radial Scheme          =       TREUTLER
    Pruning Scheme         =           FLAT
    Nuclear Scheme         =       TREUTLER

    BS radius alpha        =              1
    Pruning alpha          =              1
    Radial Points          =             75
    Spherical Points       =            302
    Total Points           =          45099
    Total Blocks           =            423
    Max Points             =            255
    Max Functions          =            169

   => DSD-BLYP-D3BJ: Empirical Dispersion <=

    Grimme's -D3 (BJ-damping) Dispersion Correction
    Grimme S.; Ehrlich S.; Goerigk L. (2011), J. Comput. Chem., 32: 1456
    Parametrisation from:    S. Kozuch, J.M.L. Martin, J. Comp. Chem., 34, 2327-2344, 2013

        s6 =       0.570000
        s8 =       0.000000
        a1 =       0.000000
        a2 =       5.400000

   => Loading Basis Set <=

    Name: (AUG-CC-PV(Q+D)Z AUX)
    Role: JKFIT
    Keyword: DF_BASIS_SCF
    atoms 1 entry CL         line   904 file /work/zw18965/.conda/envs/p4env/share/psi4/basis/aug-cc-pvqz-jkfit.gbs 
    atoms 2 entry F          line   388 file /work/zw18965/.conda/envs/p4env/share/psi4/basis/aug-cc-pvqz-jkfit.gbs 

  ==> Pre-Iterations <==

   -------------------------------------------------------
    Irrep   Nso     Nmo     Nalpha   Nbeta   Ndocc  Nsocc
   -------------------------------------------------------
     A1        66      66       0       0       0       0
     A2        23      23       0       0       0       0
     B1        40      40       0       0       0       0
     B2        40      40       0       0       0       0
   -------------------------------------------------------
    Total     169     169      13      13      13       0
   -------------------------------------------------------

  ==> Integral Setup <==

  DFHelper Memory: AOs need 0.082 GiB; user supplied 100.393 GiB. Using in-core AOs.

  ==> MemDFJK: Density-Fitted J/K Matrices <==

    J tasked:                   Yes
    K tasked:                   Yes
    wK tasked:                   No
    OpenMP threads:              24
    Memory [MiB]:            102802
    Algorithm:                 Core
    Schwarz Cutoff:           1E-12
    Mask sparsity (%):       0.0280
    Fitting Condition:        1E-10

   => Auxiliary Basis Set <=

  Basis Set: (AUG-CC-PV(Q+D)Z AUX)
    Blend: AUG-CC-PVQZ-JKFIT
    Number of shells: 80
    Number of basis function: 326
    Number of Cartesian functions: 445
    Spherical Harmonics?: true
    Max angular momentum: 5

  Cached 100.0% of DFT collocation blocks in 0.190 [GiB].

  Minimum eigenvalue in the overlap matrix is 3.0098865276E-04.
  Using Symmetric Orthogonalization.

  SCF Guess: Superposition of Atomic Densities via on-the-fly atomic UHF.

  ==> Iterations <==

                           Total Energy        Delta E     RMS |[F,P]|

   @DF-RKS iter SAD:  -559.15726381555169   -5.59157e+02   0.00000e+00 
   @DF-RKS iter   1:  -559.47369029189326   -3.16426e-01   2.92950e-03 DIIS
   @DF-RKS iter   2:  -559.48368973654556   -9.99944e-03   2.20906e-03 DIIS
   @DF-RKS iter   3:  -559.49403554172875   -1.03458e-02   5.35345e-04 DIIS
   @DF-RKS iter   4:  -559.49470279829495   -6.67257e-04   8.73573e-05 DIIS
   @DF-RKS iter   5:  -559.49473066254757   -2.78643e-05   2.17689e-05 DIIS
   @DF-RKS iter   6:  -559.49473220880043   -1.54625e-06   2.50785e-06 DIIS
   @DF-RKS iter   7:  -559.49473225617601   -4.73756e-08   4.41524e-07 DIIS
   @DF-RKS iter   8:  -559.49473225722420   -1.04819e-09   1.67525e-07 DIIS
   @DF-RKS iter   9:  -559.49473225732629   -1.02091e-10   3.14026e-08 DIIS
   @DF-RKS iter  10:  -559.49473225733482   -8.52651e-12   6.75225e-09 DIIS
  Energy and wave function converged.


  ==> Post-Iterations <==

    Orbital Energies [Eh]
    ---------------------

    Doubly Occupied:                                                      

       1A1  -103.765523     2A1   -25.777807     3A1   -10.261673  
       4A1    -7.838672     1B1    -7.829795     1B2    -7.829795  
       5A1    -1.488424     6A1    -1.016507     7A1    -0.638405  
       2B2    -0.638151     2B1    -0.638151     3B2    -0.445949  
       3B1    -0.445949  

    Virtual:                                                              

       8A1    -0.033087     9A1     0.055706     4B2     0.076733  
       4B1     0.076733    10A1     0.085866    11A1     0.159210  
       5B2     0.180895     5B1     0.180895     1A2     0.209639  
      12A1     0.209639     6B2     0.276973     6B1     0.276973  
      13A1     0.298694    14A1     0.306497     7B1     0.410470  
       7B2     0.410470    15A1     0.420666    16A1     0.546266  
       2A2     0.546266     8B1     0.562287     8B2     0.562287  
      17A1     0.580095    18A1     0.617976     3A2     0.617976  
      19A1     0.697879     9B1     0.749275     9B2     0.749275  
      10B1     0.751387    10B2     0.751387    20A1     0.814529  
      11B1     0.858003    11B2     0.858003     4A2     0.881265  
      21A1     0.881266    22A1     0.953681    12B1     1.085352  
      12B2     1.085352    23A1     1.104882    24A1     1.363388  
      25A1     1.458169     5A2     1.458169    26A1     1.520824  
      13B1     1.525840    13B2     1.525840    14B2     1.648468  
      14B1     1.648468    15B1     1.684370    15B2     1.684370  
       6A2     1.695754    27A1     1.695755    16B1     1.734017  
      16B2     1.734017    28A1     1.764225     7A2     1.764226  
      17B2     1.927417    17B1     1.927417    29A1     1.940221  
      30A1     1.967113     8A2     1.967114    18B2     2.028854  
      18B1     2.028854    31A1     2.059355     9A2     2.064880  
      32A1     2.064882    19B1     2.106129    19B2     2.106129  
      33A1     2.321456    20B1     2.359524    20B2     2.359524  
      34A1     2.400372    10A2     2.488725    35A1     2.488727  
      36A1     2.689474    21B1     2.878534    21B2     2.878534  
      37A1     2.950328    22B1     3.450931    22B2     3.450931  
      38A1     3.547217    11A2     3.547224    39A1     3.577240  
      23B1     3.735272    23B2     3.735272    24B1     4.226785  
      24B2     4.226785    40A1     4.228955    41A1     4.332712  
      12A2     4.332713    25B2     4.488442    25B1     4.488442  
      26B2     4.520452    26B1     4.520452    13A2     4.524913  
      42A1     4.524914    43A1     4.530648    14A2     4.530670  
      44A1     4.581523    45A1     4.606144    15A2     4.606211  
      27B2     4.707896    27B1     4.707896    28B1     4.770236  
      28B2     4.770236    46A1     5.118385    47A1     5.193772  
      16A2     5.246213    48A1     5.246219    29B2     5.390699  
      29B1     5.390699    30B1     5.420396    30B2     5.420396  
      49A1     5.459039    17A2     5.619186    50A1     5.619202  
      18A2     5.689208    51A1     5.689221    31B1     5.792992  
      31B2     5.792992    52A1     6.141078    32B1     6.230250  
      32B2     6.230250    53A1     6.598867    33B1     6.599788  
      33B2     6.599788    54A1     7.966379    19A2    11.111437  
      55A1    11.111443    34B1    11.262590    34B2    11.262590  
      56A1    11.456519    35B1    12.894389    35B2    12.894389  
      57A1    13.426491    20A2    13.426814    36B2    13.452842  
      36B1    13.452842    58A1    13.622021    21A2    13.622049  
      37B1    13.822871    37B2    13.822871    59A1    13.831263  
      60A1    14.080565    38B1    15.581394    38B2    15.581394  
      61A1    15.692525    22A2    15.692630    39B1    15.824939  
      39B2    15.824939    62A1    15.965856    23A2    16.462483  
      63A1    16.462556    40B1    16.904671    40B2    16.904671  
      64A1    17.148364    65A1    24.335192    66A1    53.844720  

    Final Occupation by Irrep:
             A1    A2    B1    B2 
    DOCC [     7,    0,    3,    3 ]

  @DF-RKS Final Energy:  -559.49473225733482

   => Energetics <=

    Nuclear Repulsion Energy =             48.5493151711315605
    One-Electron Energy =                -870.6548159254775783
    Two-Electron Energy =                 274.0793500121276338
    DFT Exchange-Correlation Energy =     -11.4680551151163321
    Empirical Dispersion Energy =          -0.0005264000000000
    VV10 Nonlocal Energy =                  0.0000000000000000
    Total Energy =                       -559.4947322573348174

Computation Completed


Properties will be evaluated at   0.000000,   0.000000,   0.000000 [a0]

Properties computed using the SCF density matrix

  Nuclear Dipole Moment: [e a0]
     X:     0.0000      Y:     0.0000      Z:     0.4819

  Electronic Dipole Moment: [e a0]
     X:     0.0000      Y:     0.0000      Z:    -0.0268

  Dipole Moment: [e a0]
     X:     0.0000      Y:     0.0000      Z:     0.4551     Total:     0.4551

  Dipole Moment: [D]
     X:     0.0000      Y:     0.0000      Z:     1.1569     Total:     1.1569


*** tstop() called on bp1-compute00150.data.bp.acrc.priv at Mon Apr 19 15:42:23 2021
Module time:
	user time   =      43.20 seconds =       0.72 minutes
	system time =       2.14 seconds =       0.04 minutes
	total time  =          2 seconds =       0.03 minutes
Total time:
	user time   =      97.89 seconds =       1.63 minutes
	system time =       4.44 seconds =       0.07 minutes
	total time  =          5 seconds =       0.08 minutes

*** tstart() called on bp1-compute00150.data.bp.acrc.priv
*** at Mon Apr 19 15:42:23 2021

   => Loading Basis Set <=

    Name: (AUG-CC-PV(Q+D)Z AUX)
    Role: RIFIT
    Keyword: DF_BASIS_MP2
    atoms 1 entry CL         line   914 file /work/zw18965/.conda/envs/p4env/share/psi4/basis/aug-cc-pvqz-ri.gbs 
    atoms 2 entry F          line   406 file /work/zw18965/.conda/envs/p4env/share/psi4/basis/aug-cc-pvqz-ri.gbs 

	 --------------------------------------------------------
	                          DF-MP2                         
	      2nd-Order Density-Fitted Moller-Plesset Theory     
	              RMP2 Wavefunction,  24 Threads             
	                                                         
	        Rob Parrish, Justin Turney, Andy Simmonett,      
	           Ed Hohenstein, and C. David Sherrill          
	 --------------------------------------------------------

   => Auxiliary Basis Set <=

  Basis Set: (AUG-CC-PV(Q+D)Z AUX)
    Blend: AUG-CC-PVQZ-RI
    Number of shells: 80
    Number of basis function: 362
    Number of Cartesian functions: 505
    Spherical Harmonics?: true
    Max angular momentum: 5

	 --------------------------------------------------------
	                 NBF =   169, NAUX =   362
	 --------------------------------------------------------
	   CLASS    FOCC     OCC    AOCC    AVIR     VIR    FVIR
	   PAIRS       0      13      13     156     156       0
	 --------------------------------------------------------

	-----------------------------------------------------------
	 ==================> DF-MP2 Energies <==================== 
	-----------------------------------------------------------
	 Reference Energy          =    -559.4947322573348174 [Eh]
	 Singles Energy            =      -0.0000000000000000 [Eh]
	 Same-Spin Energy          =      -0.1850373011219497 [Eh]
	 Opposite-Spin Energy      =      -0.5423082099082693 [Eh]
	 Correlation Energy        =      -0.7273455110302190 [Eh]
	 Total Energy              =    -560.2220777683650113 [Eh]
	-----------------------------------------------------------
	 ================> DF-SCS-MP2 Energies <================== 
	-----------------------------------------------------------
	 SCS Same-Spin Scale       =       0.4000000000000000 [-]
	 SCS Opposite-Spin Scale   =       0.4700000000000000 [-]
	 SCS Same-Spin Energy      =      -0.0740149204487799 [Eh]
	 SCS Opposite-Spin Energy  =      -0.2548848586568866 [Eh]
	 SCS Correlation Energy    =      -0.3288997791056665 [Eh]
	 SCS Total Energy          =    -559.8236320364404719 [Eh]
	-----------------------------------------------------------



    DSD-BLYP-D3BJ Energy Summary
    ----------------------------
    DFT Reference Energy                  =  -559.4947322573348174
    Scaled MP2 Correlation                =    -0.3288997791056665
    @Final double-hybrid DFT total energy =  -559.8236320364404719


*** tstop() called on bp1-compute00150.data.bp.acrc.priv at Mon Apr 19 15:42:23 2021
Module time:
	user time   =      11.78 seconds =       0.20 minutes
	system time =       0.50 seconds =       0.01 minutes
	total time  =          0 seconds =       0.00 minutes
Total time:
	user time   =     109.68 seconds =       1.83 minutes
	system time =       4.94 seconds =       0.08 minutes
	total time  =          5 seconds =       0.08 minutes

  //>>>>>>>>>>>>>>>>>>>>>>>>>>>>>>>>>>>//
  //    Loading displacement 3 of 3    //
  //<<<<<<<<<<<<<<<<<<<<<<<<<<<<<<<<<<<//

*** tstart() called on bp1-compute00150.data.bp.acrc.priv
*** at Mon Apr 19 15:42:23 2021

   => Loading Basis Set <=

    Name: AUG-CC-PV(Q+D)Z
    Role: ORBITAL
    Keyword: BASIS
    atoms 1 entry CL         line  1246 file /work/zw18965/.conda/envs/p4env/share/psi4/basis/aug-cc-pv_qpd_z.gbs 
    atoms 2 entry F          line   499 file /work/zw18965/.conda/envs/p4env/share/psi4/basis/aug-cc-pv_qpd_z.gbs 


         ---------------------------------------------------------
                                   SCF
               by Justin Turney, Rob Parrish, Andy Simmonett
                          and Daniel G. A. Smith
                              RKS Reference
                       24 Threads, 137329 MiB Core
         ---------------------------------------------------------

  ==> Geometry <==

    Molecular point group: c2v
    Full point group: C_inf_v

    Geometry (in Angstrom), charge = 0, multiplicity = 1:

       Center              X                  Y                   Z               Mass       
    ------------   -----------------  -----------------  -----------------  -----------------
         CL           0.000000000000     0.000000000000     0.587609509195    34.968852682000
         F            0.000000000000     0.000000000000    -1.081566181409    18.998403162730

  Running in c2v symmetry.

  Rotational constants: A = ************  B =      0.49150  C =      0.49150 [cm^-1]
  Rotational constants: A = ************  B =  14734.82389  C =  14734.82389 [MHz]
  Nuclear repulsion =   48.505447142725956

  Charge       = 0
  Multiplicity = 1
  Electrons    = 26
  Nalpha       = 13
  Nbeta        = 13

  ==> Algorithm <==

  SCF Algorithm Type is DF.
  DIIS enabled.
  MOM disabled.
  Fractional occupation disabled.
  Guess Type is SAD.
  Energy threshold   = 1.00e-08
  Density threshold  = 1.00e-08
  Integral threshold = 0.00e+00

  ==> Primary Basis <==

  Basis Set: AUG-CC-PV(Q+D)Z
    Blend: AUG-CC-PV(Q+D)Z
    Number of shells: 43
    Number of basis function: 169
    Number of Cartesian functions: 220
    Spherical Harmonics?: true
    Max angular momentum: 4

  ==> DFT Potential <==

   => Composite Functional: DSD-BLYP-D3BJ <= 

    DSD-BLYP-D3BJ Dispersion-corrected SCS Double Hybrid XC Functional

    S. Kozuch, J.M.L. Martin, J. Comp. Chem., 34, 2327-2344, 2013


    Deriv               =              1
    GGA                 =           TRUE
    Meta                =          FALSE

    Exchange Hybrid     =           TRUE
    MP2 Hybrid          =           TRUE

   => Exchange Functionals <=

    0.2900     XC_GGA_X_B88

   => Exact (HF) Exchange <=

    0.7100               HF 

   => Correlation Functionals <=

    0.5400     XC_GGA_C_LYP

   => MP2 Correlation <=

    MP2 SCS Hybrid      =           TRUE
    MP2 OS Alpha        =       0.470000
    MP2 SS Alpha        =       0.400000

   => Molecular Quadrature <=

    Radial Scheme          =       TREUTLER
    Pruning Scheme         =           FLAT
    Nuclear Scheme         =       TREUTLER

    BS radius alpha        =              1
    Pruning alpha          =              1
    Radial Points          =             75
    Spherical Points       =            302
    Total Points           =          45099
    Total Blocks           =            423
    Max Points             =            255
    Max Functions          =            169

   => DSD-BLYP-D3BJ: Empirical Dispersion <=

    Grimme's -D3 (BJ-damping) Dispersion Correction
    Grimme S.; Ehrlich S.; Goerigk L. (2011), J. Comput. Chem., 32: 1456
    Parametrisation from:    S. Kozuch, J.M.L. Martin, J. Comp. Chem., 34, 2327-2344, 2013

        s6 =       0.570000
        s8 =       0.000000
        a1 =       0.000000
        a2 =       5.400000

   => Loading Basis Set <=

    Name: (AUG-CC-PV(Q+D)Z AUX)
    Role: JKFIT
    Keyword: DF_BASIS_SCF
    atoms 1 entry CL         line   904 file /work/zw18965/.conda/envs/p4env/share/psi4/basis/aug-cc-pvqz-jkfit.gbs 
    atoms 2 entry F          line   388 file /work/zw18965/.conda/envs/p4env/share/psi4/basis/aug-cc-pvqz-jkfit.gbs 

  ==> Pre-Iterations <==

   -------------------------------------------------------
    Irrep   Nso     Nmo     Nalpha   Nbeta   Ndocc  Nsocc
   -------------------------------------------------------
     A1        66      66       0       0       0       0
     A2        23      23       0       0       0       0
     B1        40      40       0       0       0       0
     B2        40      40       0       0       0       0
   -------------------------------------------------------
    Total     169     169      13      13      13       0
   -------------------------------------------------------

  ==> Integral Setup <==

  DFHelper Memory: AOs need 0.082 GiB; user supplied 100.393 GiB. Using in-core AOs.

  ==> MemDFJK: Density-Fitted J/K Matrices <==

    J tasked:                   Yes
    K tasked:                   Yes
    wK tasked:                   No
    OpenMP threads:              24
    Memory [MiB]:            102802
    Algorithm:                 Core
    Schwarz Cutoff:           1E-12
    Mask sparsity (%):       0.0280
    Fitting Condition:        1E-10

   => Auxiliary Basis Set <=

  Basis Set: (AUG-CC-PV(Q+D)Z AUX)
    Blend: AUG-CC-PVQZ-JKFIT
    Number of shells: 80
    Number of basis function: 326
    Number of Cartesian functions: 445
    Spherical Harmonics?: true
    Max angular momentum: 5

  Cached 100.0% of DFT collocation blocks in 0.190 [GiB].

  Minimum eigenvalue in the overlap matrix is 3.0188418051E-04.
  Using Symmetric Orthogonalization.

  SCF Guess: Superposition of Atomic Densities via on-the-fly atomic UHF.

  ==> Iterations <==

                           Total Energy        Delta E     RMS |[F,P]|

   @DF-RKS iter SAD:  -559.15511641196861   -5.59155e+02   0.00000e+00 
   @DF-RKS iter   1:  -559.47354376110980   -3.18427e-01   2.93021e-03 DIIS
   @DF-RKS iter   2:  -559.48347379877509   -9.93004e-03   2.21776e-03 DIIS
   @DF-RKS iter   3:  -559.49391793840789   -1.04441e-02   5.35346e-04 DIIS
   @DF-RKS iter   4:  -559.49458565351483   -6.67715e-04   8.73984e-05 DIIS
   @DF-RKS iter   5:  -559.49461349039825   -2.78369e-05   2.17494e-05 DIIS
   @DF-RKS iter   6:  -559.49461503273722   -1.54234e-06   2.49647e-06 DIIS
   @DF-RKS iter   7:  -559.49461507965236   -4.69151e-08   4.35070e-07 DIIS
   @DF-RKS iter   8:  -559.49461508065770   -1.00533e-09   1.63563e-07 DIIS
   @DF-RKS iter   9:  -559.49461508075217   -9.44738e-11   2.97277e-08 DIIS
   @DF-RKS iter  10:  -559.49461508075979   -7.61702e-12   6.60386e-09 DIIS
  Energy and wave function converged.


  ==> Post-Iterations <==

    Orbital Energies [Eh]
    ---------------------

    Doubly Occupied:                                                      

       1A1  -103.765654     2A1   -25.777756     3A1   -10.261788  
       4A1    -7.838784     1B1    -7.829910     1B2    -7.829910  
       5A1    -1.487912     6A1    -1.016591     7A1    -0.638031  
       2B1    -0.637836     2B2    -0.637836     3B2    -0.446133  
       3B1    -0.446133  

    Virtual:                                                              

       8A1    -0.033597     9A1     0.055716     4B2     0.076734  
       4B1     0.076734    10A1     0.085764    11A1     0.159182  
       5B1     0.180908     5B2     0.180908     1A2     0.209628  
      12A1     0.209628     6B1     0.276886     6B2     0.276886  
      13A1     0.298730    14A1     0.306387     7B1     0.410511  
       7B2     0.410511    15A1     0.420682    16A1     0.546265  
       2A2     0.546265     8B1     0.562151     8B2     0.562151  
      17A1     0.580056    18A1     0.617904     3A2     0.617904  
      19A1     0.697538     9B2     0.749254     9B1     0.749254  
      10B1     0.751472    10B2     0.751472    20A1     0.814281  
      11B1     0.857779    11B2     0.857779     4A2     0.881111  
      21A1     0.881111    22A1     0.953921    12B1     1.085579  
      12B2     1.085579    23A1     1.104809    24A1     1.363250  
      25A1     1.458098     5A2     1.458098    26A1     1.520875  
      13B1     1.525884    13B2     1.525884    14B1     1.648486  
      14B2     1.648486    15B1     1.683817    15B2     1.683817  
       6A2     1.695763    27A1     1.695764    16B1     1.733759  
      16B2     1.733759    28A1     1.764192     7A2     1.764194  
      17B1     1.927364    17B2     1.927364    29A1     1.939881  
      30A1     1.966854     8A2     1.966855    18B1     2.028447  
      18B2     2.028447    31A1     2.059037     9A2     2.064687  
      32A1     2.064689    19B1     2.105853    19B2     2.105853  
      33A1     2.320399    20B1     2.358962    20B2     2.358962  
      34A1     2.400755    10A2     2.487760    35A1     2.487762  
      36A1     2.687427    21B1     2.879353    21B2     2.879353  
      37A1     2.950471    22B1     3.450201    22B2     3.450201  
      38A1     3.547178    11A2     3.547184    39A1     3.577855  
      23B1     3.733482    23B2     3.733482    24B1     4.226943  
      24B2     4.226943    40A1     4.229070    41A1     4.333437  
      12A2     4.333437    25B1     4.488484    25B2     4.488484  
      26B1     4.520759    26B2     4.520759    13A2     4.524519  
      42A1     4.524520    43A1     4.530603    14A2     4.530625  
      44A1     4.579922    45A1     4.606281    15A2     4.606348  
      27B1     4.707150    27B2     4.707150    28B1     4.769244  
      28B2     4.769244    46A1     5.115687    47A1     5.192382  
      16A2     5.244066    48A1     5.244072    29B1     5.390650  
      29B2     5.390650    30B1     5.420339    30B2     5.420339  
      49A1     5.457561    17A2     5.618909    50A1     5.618925  
      18A2     5.688216    51A1     5.688230    31B1     5.792552  
      31B2     5.792552    52A1     6.143917    32B1     6.228247  
      32B2     6.228247    53A1     6.594010    33B1     6.596588  
      33B2     6.596588    54A1     7.963800    19A2    11.111287  
      55A1    11.111292    34B1    11.262162    34B2    11.262162  
      56A1    11.455095    35B2    12.893051    35B1    12.893051  
      57A1    13.426661    20A2    13.426988    36B2    13.452775  
      36B1    13.452775    58A1    13.621328    21A2    13.621357  
      37B1    13.822605    37B2    13.822605    59A1    13.831357  
      60A1    14.076379    38B2    15.581449    38B1    15.581449  
      61A1    15.692301    22A2    15.692405    39B2    15.824486  
      39B1    15.824486    62A1    15.964059    23A2    16.462308  
      63A1    16.462382    40B1    16.903176    40B2    16.903176  
      64A1    17.148011    65A1    24.328196    66A1    53.841657  

    Final Occupation by Irrep:
             A1    A2    B1    B2 
    DOCC [     7,    0,    3,    3 ]

  @DF-RKS Final Energy:  -559.49461508075979

   => Energetics <=

    Nuclear Repulsion Energy =             48.5054471427259557
    One-Electron Energy =                -870.5680336671002806
    Two-Electron Energy =                 274.0363556723124248
    DFT Exchange-Correlation Energy =     -11.4678579286979243
    Empirical Dispersion Energy =          -0.0005263000000000
    VV10 Nonlocal Energy =                  0.0000000000000000
    Total Energy =                       -559.4946150807597860

Computation Completed


Properties will be evaluated at   0.000000,   0.000000,   0.000000 [a0]

Properties computed using the SCF density matrix

  Nuclear Dipole Moment: [e a0]
     X:     0.0000      Y:     0.0000      Z:     0.4824

  Electronic Dipole Moment: [e a0]
     X:     0.0000      Y:     0.0000      Z:    -0.0254

  Dipole Moment: [e a0]
     X:     0.0000      Y:     0.0000      Z:     0.4570     Total:     0.4570

  Dipole Moment: [D]
     X:     0.0000      Y:     0.0000      Z:     1.1616     Total:     1.1616


*** tstop() called on bp1-compute00150.data.bp.acrc.priv at Mon Apr 19 15:42:25 2021
Module time:
	user time   =      41.32 seconds =       0.69 minutes
	system time =       1.72 seconds =       0.03 minutes
	total time  =          2 seconds =       0.03 minutes
Total time:
	user time   =     151.14 seconds =       2.52 minutes
	system time =       6.67 seconds =       0.11 minutes
	total time  =          7 seconds =       0.12 minutes

*** tstart() called on bp1-compute00150.data.bp.acrc.priv
*** at Mon Apr 19 15:42:25 2021

   => Loading Basis Set <=

    Name: (AUG-CC-PV(Q+D)Z AUX)
    Role: RIFIT
    Keyword: DF_BASIS_MP2
    atoms 1 entry CL         line   914 file /work/zw18965/.conda/envs/p4env/share/psi4/basis/aug-cc-pvqz-ri.gbs 
    atoms 2 entry F          line   406 file /work/zw18965/.conda/envs/p4env/share/psi4/basis/aug-cc-pvqz-ri.gbs 

	 --------------------------------------------------------
	                          DF-MP2                         
	      2nd-Order Density-Fitted Moller-Plesset Theory     
	              RMP2 Wavefunction,  24 Threads             
	                                                         
	        Rob Parrish, Justin Turney, Andy Simmonett,      
	           Ed Hohenstein, and C. David Sherrill          
	 --------------------------------------------------------

   => Auxiliary Basis Set <=

  Basis Set: (AUG-CC-PV(Q+D)Z AUX)
    Blend: AUG-CC-PVQZ-RI
    Number of shells: 80
    Number of basis function: 362
    Number of Cartesian functions: 505
    Spherical Harmonics?: true
    Max angular momentum: 5

	 --------------------------------------------------------
	                 NBF =   169, NAUX =   362
	 --------------------------------------------------------
	   CLASS    FOCC     OCC    AOCC    AVIR     VIR    FVIR
	   PAIRS       0      13      13     156     156       0
	 --------------------------------------------------------

	-----------------------------------------------------------
	 ==================> DF-MP2 Energies <==================== 
	-----------------------------------------------------------
	 Reference Energy          =    -559.4946150807597860 [Eh]
	 Singles Energy            =      -0.0000000000000000 [Eh]
	 Same-Spin Energy          =      -0.1850494834503452 [Eh]
	 Opposite-Spin Energy      =      -0.5424140765090838 [Eh]
	 Correlation Energy        =      -0.7274635599594290 [Eh]
	 Total Energy              =    -560.2220786407192463 [Eh]
	-----------------------------------------------------------
	 ================> DF-SCS-MP2 Energies <================== 
	-----------------------------------------------------------
	 SCS Same-Spin Scale       =       0.4000000000000000 [-]
	 SCS Opposite-Spin Scale   =       0.4700000000000000 [-]
	 SCS Same-Spin Energy      =      -0.0740197933801381 [Eh]
	 SCS Opposite-Spin Energy  =      -0.2549346159592694 [Eh]
	 SCS Correlation Energy    =      -0.3289544093394074 [Eh]
	 SCS Total Energy          =    -559.8235694900992030 [Eh]
	-----------------------------------------------------------



    DSD-BLYP-D3BJ Energy Summary
    ----------------------------
    DFT Reference Energy                  =  -559.4946150807597860
    Scaled MP2 Correlation                =    -0.3289544093394074
    @Final double-hybrid DFT total energy =  -559.8235694900992030


*** tstop() called on bp1-compute00150.data.bp.acrc.priv at Mon Apr 19 15:42:26 2021
Module time:
	user time   =      11.55 seconds =       0.19 minutes
	system time =       0.56 seconds =       0.01 minutes
	total time  =          1 seconds =       0.02 minutes
Total time:
	user time   =     162.70 seconds =       2.71 minutes
	system time =       7.24 seconds =       0.12 minutes
	total time  =          8 seconds =       0.13 minutes

         ----------------------------------------------------------
                                   FINDIF
                     R. A. King and Jonathon Misiewicz
         ---------------------------------------------------------

  Computing gradient from energies.
    Using 3-point formula.
    Energy without displacement: -559.8236010061
    Check energies below for precision!
    Forces are for mass-weighted, symmetry-adapted cartesians (in au).

     Coord      Energy(-1)        Energy(+1)            Force
        0   -559.8236320364   -559.8235694901      0.0062546341


-------------------------------------------------------------
  ## New Matrix (Symmetry 0) ##
  Irrep: 1 Size: 2 x 3

                 1                   2                   3

    1     0.00000000000000     0.00000000000000     0.02194502014989
    2     0.00000000000000     0.00000000000000    -0.02194502014989




			-----------------------------------------
			 OPTKING 2.0: for geometry optimizations 
			  - R.A. King,  Bethel University        
			-----------------------------------------

	Internal coordinates to be generated automatically.
	Detected frag 1 with atoms:  1 2
	---Fragment 1 Bond Connectivity---
	 1 : 2
	 2 : 1

	---Fragment 1 Geometry and Gradient---
	 CL          0.0000000000        0.0000000000        1.1099193658
	 F           0.0000000000        0.0000000000       -2.0429404756
	             0.0000000000        0.0000000000        0.0219450201
	             0.0000000000        0.0000000000       -0.0219450201

	Previous optimization step data not found.  Starting new optimization.

	---Fragment 1 Intrafragment Coordinates---
	 - Coordinate -           - BOHR/RAD -       - ANG/DEG -
	 R(1,2)           =         3.152860	       1.668422

	Current energy   :      -559.8236010061

	Generating empirical Hessian (Schlegel '84) for each fragment.
	Taking RFO optimization step.
	Going to follow RFO solution 1.
	Using RFO vector 1.
	Norm of target step-size    0.05473
	Projected energy change by RFO approximation:         0.0002957845

	Back-transformation to cartesian coordinates...
	Successfully converged to displaced geometry.

	--- Internal Coordinate Step in ANG or DEG, aJ/ANG or AJ/DEG ---
	 ---------------------------------------------------------------------------
	   Coordinate                Previous        Force       Change         New 
	   ----------                --------       ------       ------       ------
	    1 R(1,2)          =      1.668422    -0.180799    -0.028962     1.639459
	 ---------------------------------------------------------------------------
	Successfully symmetrized geometry.

  ==> Convergence Check <==

  Measures of convergence in internal coordinates in au.
  Criteria marked as inactive (o), active & met (*), and active & unmet ( ).
  --------------------------------------------------------------------------------------------- ~
   Step     Total Energy     Delta E     MAX Force     RMS Force      MAX Disp      RMS Disp    ~
  --------------------------------------------------------------------------------------------- ~
    Convergence Criteria    1.00e-06 *    3.00e-04 *             o    1.20e-03 *             o  ~
  --------------------------------------------------------------------------------------------- ~
      1    -559.82360101   -5.60e+02      2.19e-02      2.19e-02 o    5.47e-02      5.47e-02 o  ~
  ---------------------------------------------------------------------------------------------

	Writing optimization data to binary file.
	Structure for next step:
	Cartesian Geometry (in Angstrom)
	   CL     0.0000000000   0.0000000000   0.5728628146
	    F     0.0000000000   0.0000000000  -1.0665963211
			--------------------------
			 OPTKING Finished Execution 
			--------------------------

    Structure for next step:
    Molecular point group: c2v
    Full point group: C_inf_v

    Geometry (in Angstrom), charge = 0, multiplicity = 1:

    CL           0.000000000000     0.000000000000     0.577148221890
    F            0.000000000000     0.000000000000    -1.062310920244

gradient() will perform gradient computation by finite difference of analytic energies.

         ----------------------------------------------------------
                                   FINDIF
                     R. A. King and Jonathon Misiewicz
         ---------------------------------------------------------

  Using finite-differences of energies to determine gradients.
    Generating geometries for use with 3-point formula.
    Displacement size will be 5.00e-03.
    Number of atoms is 2.
    Number of symmetric SALCs is 1.
    Translations projected? 1. Rotations projected? 1.
    Number of geometries (including reference) is 3.

  //>>>>>>>>>>>>>>>>>>>>>>>>>>>>>>>>>>>//
  //    Loading displacement 1 of 3    //
  //<<<<<<<<<<<<<<<<<<<<<<<<<<<<<<<<<<<//

*** tstart() called on bp1-compute00150.data.bp.acrc.priv
*** at Mon Apr 19 15:42:26 2021

   => Loading Basis Set <=

    Name: AUG-CC-PV(Q+D)Z
    Role: ORBITAL
    Keyword: BASIS
    atoms 1 entry CL         line  1246 file /work/zw18965/.conda/envs/p4env/share/psi4/basis/aug-cc-pv_qpd_z.gbs 
    atoms 2 entry F          line   499 file /work/zw18965/.conda/envs/p4env/share/psi4/basis/aug-cc-pv_qpd_z.gbs 


         ---------------------------------------------------------
                                   SCF
               by Justin Turney, Rob Parrish, Andy Simmonett
                          and Daniel G. A. Smith
                              RKS Reference
                       24 Threads, 137329 MiB Core
         ---------------------------------------------------------

  ==> Geometry <==

    Molecular point group: c2v
    Full point group: C_inf_v

    Geometry (in Angstrom), charge = 0, multiplicity = 1:

       Center              X                  Y                   Z               Mass       
    ------------   -----------------  -----------------  -----------------  -----------------
         CL           0.000000000000     0.000000000000     0.577148221890    34.968852682000
         F            0.000000000000     0.000000000000    -1.062310920244    18.998403162730

  Running in c2v symmetry.

  Rotational constants: A = ************  B =      0.50948  C =      0.50948 [cm^-1]
  Rotational constants: A = ************  B =  15273.82661  C =  15273.82661 [MHz]
  Nuclear repulsion =   49.384648358555509

  Charge       = 0
  Multiplicity = 1
  Electrons    = 26
  Nalpha       = 13
  Nbeta        = 13

  ==> Algorithm <==

  SCF Algorithm Type is DF.
  DIIS enabled.
  MOM disabled.
  Fractional occupation disabled.
  Guess Type is READ.
  Energy threshold   = 1.00e-08
  Density threshold  = 1.00e-08
  Integral threshold = 0.00e+00

  ==> Primary Basis <==

  Basis Set: AUG-CC-PV(Q+D)Z
    Blend: AUG-CC-PV(Q+D)Z
    Number of shells: 43
    Number of basis function: 169
    Number of Cartesian functions: 220
    Spherical Harmonics?: true
    Max angular momentum: 4

  ==> DFT Potential <==

   => Composite Functional: DSD-BLYP-D3BJ <= 

    DSD-BLYP-D3BJ Dispersion-corrected SCS Double Hybrid XC Functional

    S. Kozuch, J.M.L. Martin, J. Comp. Chem., 34, 2327-2344, 2013


    Deriv               =              1
    GGA                 =           TRUE
    Meta                =          FALSE

    Exchange Hybrid     =           TRUE
    MP2 Hybrid          =           TRUE

   => Exchange Functionals <=

    0.2900     XC_GGA_X_B88

   => Exact (HF) Exchange <=

    0.7100               HF 

   => Correlation Functionals <=

    0.5400     XC_GGA_C_LYP

   => MP2 Correlation <=

    MP2 SCS Hybrid      =           TRUE
    MP2 OS Alpha        =       0.470000
    MP2 SS Alpha        =       0.400000

   => Molecular Quadrature <=

    Radial Scheme          =       TREUTLER
    Pruning Scheme         =           FLAT
    Nuclear Scheme         =       TREUTLER

    BS radius alpha        =              1
    Pruning alpha          =              1
    Radial Points          =             75
    Spherical Points       =            302
    Total Points           =          45099
    Total Blocks           =            423
    Max Points             =            255
    Max Functions          =            169

   => DSD-BLYP-D3BJ: Empirical Dispersion <=

    Grimme's -D3 (BJ-damping) Dispersion Correction
    Grimme S.; Ehrlich S.; Goerigk L. (2011), J. Comput. Chem., 32: 1456
    Parametrisation from:    S. Kozuch, J.M.L. Martin, J. Comp. Chem., 34, 2327-2344, 2013

        s6 =       0.570000
        s8 =       0.000000
        a1 =       0.000000
        a2 =       5.400000

   => Loading Basis Set <=

    Name: (AUG-CC-PV(Q+D)Z AUX)
    Role: JKFIT
    Keyword: DF_BASIS_SCF
    atoms 1 entry CL         line   904 file /work/zw18965/.conda/envs/p4env/share/psi4/basis/aug-cc-pvqz-jkfit.gbs 
    atoms 2 entry F          line   388 file /work/zw18965/.conda/envs/p4env/share/psi4/basis/aug-cc-pvqz-jkfit.gbs 

   => Loading Basis Set <=

    Name: AUG-CC-PV(Q+D)Z
    Role: ORBITAL
    Keyword: BASIS
    atoms 1 entry CL         line  1246 file /work/zw18965/.conda/envs/p4env/share/psi4/basis/aug-cc-pv_qpd_z.gbs 
    atoms 2 entry F          line   499 file /work/zw18965/.conda/envs/p4env/share/psi4/basis/aug-cc-pv_qpd_z.gbs 

  Reading orbitals from file 180, no projection.

  ==> Pre-Iterations <==

   -------------------------------------------------------
    Irrep   Nso     Nmo     Nalpha   Nbeta   Ndocc  Nsocc
   -------------------------------------------------------
     A1        66      66       0       0       0       0
     A2        23      23       0       0       0       0
     B1        40      40       0       0       0       0
     B2        40      40       0       0       0       0
   -------------------------------------------------------
    Total     169     169      13      13      13       0
   -------------------------------------------------------

  ==> Integral Setup <==

  DFHelper Memory: AOs need 0.082 GiB; user supplied 100.392 GiB. Using in-core AOs.

  ==> MemDFJK: Density-Fitted J/K Matrices <==

    J tasked:                   Yes
    K tasked:                   Yes
    wK tasked:                   No
    OpenMP threads:              24
    Memory [MiB]:            102801
    Algorithm:                 Core
    Schwarz Cutoff:           1E-12
    Mask sparsity (%):       0.0280
    Fitting Condition:        1E-10

   => Auxiliary Basis Set <=

  Basis Set: (AUG-CC-PV(Q+D)Z AUX)
    Blend: AUG-CC-PVQZ-JKFIT
    Number of shells: 80
    Number of basis function: 326
    Number of Cartesian functions: 445
    Spherical Harmonics?: true
    Max angular momentum: 5

  Cached 100.0% of DFT collocation blocks in 0.191 [GiB].

  Minimum eigenvalue in the overlap matrix is 2.8462060733E-04.
  Using Symmetric Orthogonalization.

  SCF Guess: Orbitals guess was supplied from a previous computation.

  ==> Iterations <==

                           Total Energy        Delta E     RMS |[F,P]|

   @DF-RKS iter   0:  -559.50571856188878   -5.59506e+02   8.74110e-04 
   @DF-RKS iter   1:  -559.49649276970683    9.22579e-03   1.30283e-04 DIIS
   @DF-RKS iter   2:  -559.49652767714042   -3.49074e-05   6.02457e-05 DIIS
   @DF-RKS iter   3:  -559.49653555078226   -7.87364e-06   7.66529e-06 DIIS
   @DF-RKS iter   4:  -559.49653584180692   -2.91025e-07   3.77037e-06 DIIS
   @DF-RKS iter   5:  -559.49653589009029   -4.82834e-08   1.77896e-06 DIIS
   @DF-RKS iter   6:  -559.49653590056073   -1.04704e-08   3.02242e-07 DIIS
   @DF-RKS iter   7:  -559.49653590141929   -8.58563e-10   9.08729e-08 DIIS
   @DF-RKS iter   8:  -559.49653590147238   -5.30918e-11   1.74306e-08 DIIS
   @DF-RKS iter   9:  -559.49653590147352   -1.13687e-12   1.47366e-09 DIIS
  Energy and wave function converged.


  ==> Post-Iterations <==

    Orbital Energies [Eh]
    ---------------------

    Doubly Occupied:                                                      

       1A1  -103.763034     2A1   -25.778821     3A1   -10.259495  
       4A1    -7.836538     1B1    -7.827623     1B2    -7.827623  
       5A1    -1.498479     6A1    -1.014911     7A1    -0.645425  
       2B1    -0.644291     2B2    -0.644291     3B1    -0.442415  
       3B2    -0.442415  

    Virtual:                                                              

       8A1    -0.023601     9A1     0.055518     4B1     0.076710  
       4B2     0.076710    10A1     0.087928    11A1     0.159762  
       5B2     0.180601     5B1     0.180601     1A2     0.209852  
      12A1     0.209852     6B1     0.278637     6B2     0.278637  
      13A1     0.297914    14A1     0.308721     7B1     0.409628  
       7B2     0.409628    15A1     0.420469    16A1     0.546263  
       2A2     0.546263     8B1     0.564923     8B2     0.564923  
      17A1     0.580766    18A1     0.619331     3A2     0.619331  
      19A1     0.704633     9B1     0.749671     9B2     0.749671  
      10B2     0.749819    10B1     0.749819    20A1     0.819126  
      11B1     0.862105    11B2     0.862105     4A2     0.884135  
      21A1     0.884135    22A1     0.949101    12B2     1.080835  
      12B1     1.080835    23A1     1.106399    24A1     1.366224  
      25A1     1.459494     5A2     1.459494    26A1     1.519764  
      13B2     1.525009    13B1     1.525009    14B2     1.648227  
      14B1     1.648227    15B1     1.694928    15B2     1.694928  
       6A2     1.695395    27A1     1.695397    16B1     1.739136  
      16B2     1.739136    28A1     1.764828     7A2     1.764829  
      17B1     1.928378    17B2     1.928378    29A1     1.946850  
      30A1     1.972041     8A2     1.972042    18B1     2.036530  
      18B2     2.036530    31A1     2.065076     9A2     2.068525  
      32A1     2.068525    19B2     2.111428    19B1     2.111428  
      33A1     2.338206    20B2     2.370259    20B1     2.370259  
      34A1     2.394794    10A2     2.506947    35A1     2.506949  
      36A1     2.727954    21B2     2.861881    21B1     2.861881  
      37A1     2.949177    22B2     3.464493    22B1     3.464493  
      38A1     3.548105    11A2     3.548112    39A1     3.567763  
      23B1     3.769939    23B2     3.769939    24B2     4.225047  
      24B1     4.225047    40A1     4.227308    41A1     4.319636  
      12A2     4.319637    25B1     4.486612    25B2     4.486612  
      26B1     4.514851    26B2     4.514851    42A1     4.531591  
      13A2     4.531609    14A2     4.532724    43A1     4.532725  
      44A1     4.603408    15A2     4.603467    45A1     4.609675  
      27B1     4.723071    27B2     4.723071    28B2     4.788899  
      28B1     4.788899    46A1     5.159823    47A1     5.229855  
      16A2     5.285816    48A1     5.285821    29B2     5.391645  
      29B1     5.391645    30B2     5.421260    30B1     5.421260  
      49A1     5.487696    17A2     5.625398    50A1     5.625409  
      18A2     5.708517    51A1     5.708529    31B2     5.801160  
      31B1     5.801160    52A1     6.088450    32B2     6.266107  
      32B1     6.266107    33B2     6.661967    33B1     6.661967  
      53A1     6.692011    54A1     8.009612    19A2    11.114307  
      55A1    11.114311    34B1    11.269892    34B2    11.269892  
      56A1    11.486583    35B2    12.921453    35B1    12.921453  
      57A1    13.423171    20A2    13.423416    36B1    13.454147  
      36B2    13.454147    58A1    13.635042    21A2    13.635062  
      37B2    13.826746    37B1    13.826746    59A1    13.827923  
      60A1    14.159054    38B2    15.580298    38B1    15.580298  
      61A1    15.696724    22A2    15.696833    39B1    15.834571  
      39B2    15.834571    62A1    16.002320    23A2    16.466050  
      63A1    16.466109    40B2    16.931706    40B1    16.931706  
      64A1    17.152454    65A1    24.477281    66A1    53.907227  

    Final Occupation by Irrep:
             A1    A2    B1    B2 
    DOCC [     7,    0,    3,    3 ]

  @DF-RKS Final Energy:  -559.49653590147352

   => Energetics <=

    Nuclear Repulsion Energy =             49.3846483585555092
    One-Electron Energy =                -872.3053874469264883
    Two-Electron Energy =                 274.8965931764740844
    DFT Exchange-Correlation Energy =     -11.4718616695765778
    Empirical Dispersion Energy =          -0.0005283200000000
    VV10 Nonlocal Energy =                  0.0000000000000000
    Total Energy =                       -559.4965359014734076

Computation Completed


Properties will be evaluated at   0.000000,   0.000000,   0.000000 [a0]

Properties computed using the SCF density matrix

  Nuclear Dipole Moment: [e a0]
     X:     0.0000      Y:     0.0000      Z:     0.4738

  Electronic Dipole Moment: [e a0]
     X:     0.0000      Y:     0.0000      Z:    -0.0542

  Dipole Moment: [e a0]
     X:     0.0000      Y:     0.0000      Z:     0.4196     Total:     0.4196

  Dipole Moment: [D]
     X:     0.0000      Y:     0.0000      Z:     1.0666     Total:     1.0666


*** tstop() called on bp1-compute00150.data.bp.acrc.priv at Mon Apr 19 15:42:27 2021
Module time:
	user time   =      26.82 seconds =       0.45 minutes
	system time =       1.09 seconds =       0.02 minutes
	total time  =          1 seconds =       0.02 minutes
Total time:
	user time   =     189.88 seconds =       3.16 minutes
	system time =       8.35 seconds =       0.14 minutes
	total time  =          9 seconds =       0.15 minutes

*** tstart() called on bp1-compute00150.data.bp.acrc.priv
*** at Mon Apr 19 15:42:27 2021

   => Loading Basis Set <=

    Name: (AUG-CC-PV(Q+D)Z AUX)
    Role: RIFIT
    Keyword: DF_BASIS_MP2
    atoms 1 entry CL         line   914 file /work/zw18965/.conda/envs/p4env/share/psi4/basis/aug-cc-pvqz-ri.gbs 
    atoms 2 entry F          line   406 file /work/zw18965/.conda/envs/p4env/share/psi4/basis/aug-cc-pvqz-ri.gbs 

	 --------------------------------------------------------
	                          DF-MP2                         
	      2nd-Order Density-Fitted Moller-Plesset Theory     
	              RMP2 Wavefunction,  24 Threads             
	                                                         
	        Rob Parrish, Justin Turney, Andy Simmonett,      
	           Ed Hohenstein, and C. David Sherrill          
	 --------------------------------------------------------

   => Auxiliary Basis Set <=

  Basis Set: (AUG-CC-PV(Q+D)Z AUX)
    Blend: AUG-CC-PVQZ-RI
    Number of shells: 80
    Number of basis function: 362
    Number of Cartesian functions: 505
    Spherical Harmonics?: true
    Max angular momentum: 5

	 --------------------------------------------------------
	                 NBF =   169, NAUX =   362
	 --------------------------------------------------------
	   CLASS    FOCC     OCC    AOCC    AVIR     VIR    FVIR
	   PAIRS       0      13      13     156     156       0
	 --------------------------------------------------------

	-----------------------------------------------------------
	 ==================> DF-MP2 Energies <==================== 
	-----------------------------------------------------------
	 Reference Energy          =    -559.4965359014735213 [Eh]
	 Singles Energy            =      -0.0000000000000000 [Eh]
	 Same-Spin Energy          =      -0.1848053924605532 [Eh]
	 Opposite-Spin Energy      =      -0.5403528029663661 [Eh]
	 Correlation Energy        =      -0.7251581954269193 [Eh]
	 Total Energy              =    -560.2216940969004781 [Eh]
	-----------------------------------------------------------
	 ================> DF-SCS-MP2 Energies <================== 
	-----------------------------------------------------------
	 SCS Same-Spin Scale       =       0.4000000000000000 [-]
	 SCS Opposite-Spin Scale   =       0.4700000000000000 [-]
	 SCS Same-Spin Energy      =      -0.0739221569842213 [Eh]
	 SCS Opposite-Spin Energy  =      -0.2539658173941921 [Eh]
	 SCS Correlation Energy    =      -0.3278879743784133 [Eh]
	 SCS Total Energy          =    -559.8244238758519487 [Eh]
	-----------------------------------------------------------



    DSD-BLYP-D3BJ Energy Summary
    ----------------------------
    DFT Reference Energy                  =  -559.4965359014735213
    Scaled MP2 Correlation                =    -0.3278879743784133
    @Final double-hybrid DFT total energy =  -559.8244238758519487


*** tstop() called on bp1-compute00150.data.bp.acrc.priv at Mon Apr 19 15:42:28 2021
Module time:
	user time   =      12.17 seconds =       0.20 minutes
	system time =       0.53 seconds =       0.01 minutes
	total time  =          1 seconds =       0.02 minutes
Total time:
	user time   =     202.06 seconds =       3.37 minutes
	system time =       8.88 seconds =       0.15 minutes
	total time  =         10 seconds =       0.17 minutes

  //>>>>>>>>>>>>>>>>>>>>>>>>>>>>>>>>>>>//
  //    Loading displacement 2 of 3    //
  //<<<<<<<<<<<<<<<<<<<<<<<<<<<<<<<<<<<//

*** tstart() called on bp1-compute00150.data.bp.acrc.priv
*** at Mon Apr 19 15:42:28 2021

   => Loading Basis Set <=

    Name: AUG-CC-PV(Q+D)Z
    Role: ORBITAL
    Keyword: BASIS
    atoms 1 entry CL         line  1246 file /work/zw18965/.conda/envs/p4env/share/psi4/basis/aug-cc-pv_qpd_z.gbs 
    atoms 2 entry F          line   499 file /work/zw18965/.conda/envs/p4env/share/psi4/basis/aug-cc-pv_qpd_z.gbs 


         ---------------------------------------------------------
                                   SCF
               by Justin Turney, Rob Parrish, Andy Simmonett
                          and Daniel G. A. Smith
                              RKS Reference
                       24 Threads, 137329 MiB Core
         ---------------------------------------------------------

  ==> Geometry <==

    Molecular point group: c2v
    Full point group: C_inf_v

    Geometry (in Angstrom), charge = 0, multiplicity = 1:

       Center              X                  Y                   Z               Mass       
    ------------   -----------------  -----------------  -----------------  -----------------
         CL           0.000000000000     0.000000000000     0.576882746769    34.968852682000
         F            0.000000000000     0.000000000000    -1.061822281261    18.998403162730

  Running in c2v symmetry.

  Rotational constants: A = ************  B =      0.50995  C =      0.50995 [cm^-1]
  Rotational constants: A = ************  B =  15287.88754  C =  15287.88754 [MHz]
  Nuclear repulsion =   49.407374632781639

  Charge       = 0
  Multiplicity = 1
  Electrons    = 26
  Nalpha       = 13
  Nbeta        = 13

  ==> Algorithm <==

  SCF Algorithm Type is DF.
  DIIS enabled.
  MOM disabled.
  Fractional occupation disabled.
  Guess Type is READ.
  Energy threshold   = 1.00e-08
  Density threshold  = 1.00e-08
  Integral threshold = 0.00e+00

  ==> Primary Basis <==

  Basis Set: AUG-CC-PV(Q+D)Z
    Blend: AUG-CC-PV(Q+D)Z
    Number of shells: 43
    Number of basis function: 169
    Number of Cartesian functions: 220
    Spherical Harmonics?: true
    Max angular momentum: 4

  ==> DFT Potential <==

   => Composite Functional: DSD-BLYP-D3BJ <= 

    DSD-BLYP-D3BJ Dispersion-corrected SCS Double Hybrid XC Functional

    S. Kozuch, J.M.L. Martin, J. Comp. Chem., 34, 2327-2344, 2013


    Deriv               =              1
    GGA                 =           TRUE
    Meta                =          FALSE

    Exchange Hybrid     =           TRUE
    MP2 Hybrid          =           TRUE

   => Exchange Functionals <=

    0.2900     XC_GGA_X_B88

   => Exact (HF) Exchange <=

    0.7100               HF 

   => Correlation Functionals <=

    0.5400     XC_GGA_C_LYP

   => MP2 Correlation <=

    MP2 SCS Hybrid      =           TRUE
    MP2 OS Alpha        =       0.470000
    MP2 SS Alpha        =       0.400000

   => Molecular Quadrature <=

    Radial Scheme          =       TREUTLER
    Pruning Scheme         =           FLAT
    Nuclear Scheme         =       TREUTLER

    BS radius alpha        =              1
    Pruning alpha          =              1
    Radial Points          =             75
    Spherical Points       =            302
    Total Points           =          45099
    Total Blocks           =            423
    Max Points             =            255
    Max Functions          =            169

   => DSD-BLYP-D3BJ: Empirical Dispersion <=

    Grimme's -D3 (BJ-damping) Dispersion Correction
    Grimme S.; Ehrlich S.; Goerigk L. (2011), J. Comput. Chem., 32: 1456
    Parametrisation from:    S. Kozuch, J.M.L. Martin, J. Comp. Chem., 34, 2327-2344, 2013

        s6 =       0.570000
        s8 =       0.000000
        a1 =       0.000000
        a2 =       5.400000

   => Loading Basis Set <=

    Name: (AUG-CC-PV(Q+D)Z AUX)
    Role: JKFIT
    Keyword: DF_BASIS_SCF
    atoms 1 entry CL         line   904 file /work/zw18965/.conda/envs/p4env/share/psi4/basis/aug-cc-pvqz-jkfit.gbs 
    atoms 2 entry F          line   388 file /work/zw18965/.conda/envs/p4env/share/psi4/basis/aug-cc-pvqz-jkfit.gbs 

   => Loading Basis Set <=

    Name: AUG-CC-PV(Q+D)Z
    Role: ORBITAL
    Keyword: BASIS
    atoms 1 entry CL         line  1246 file /work/zw18965/.conda/envs/p4env/share/psi4/basis/aug-cc-pv_qpd_z.gbs 
    atoms 2 entry F          line   499 file /work/zw18965/.conda/envs/p4env/share/psi4/basis/aug-cc-pv_qpd_z.gbs 

  Reading orbitals from file 180, no projection.

  ==> Pre-Iterations <==

   -------------------------------------------------------
    Irrep   Nso     Nmo     Nalpha   Nbeta   Ndocc  Nsocc
   -------------------------------------------------------
     A1        66      66       0       0       0       0
     A2        23      23       0       0       0       0
     B1        40      40       0       0       0       0
     B2        40      40       0       0       0       0
   -------------------------------------------------------
    Total     169     169      13      13      13       0
   -------------------------------------------------------

  ==> Integral Setup <==

  DFHelper Memory: AOs need 0.082 GiB; user supplied 100.392 GiB. Using in-core AOs.

  ==> MemDFJK: Density-Fitted J/K Matrices <==

    J tasked:                   Yes
    K tasked:                   Yes
    wK tasked:                   No
    OpenMP threads:              24
    Memory [MiB]:            102801
    Algorithm:                 Core
    Schwarz Cutoff:           1E-12
    Mask sparsity (%):       0.0140
    Fitting Condition:        1E-10

   => Auxiliary Basis Set <=

  Basis Set: (AUG-CC-PV(Q+D)Z AUX)
    Blend: AUG-CC-PVQZ-JKFIT
    Number of shells: 80
    Number of basis function: 326
    Number of Cartesian functions: 445
    Spherical Harmonics?: true
    Max angular momentum: 5

  Cached 100.0% of DFT collocation blocks in 0.191 [GiB].

  Minimum eigenvalue in the overlap matrix is 2.8419266818E-04.
  Using Symmetric Orthogonalization.

  SCF Guess: Orbitals guess was supplied from a previous computation.

  ==> Iterations <==

                           Total Energy        Delta E     RMS |[F,P]|

   @DF-RKS iter   0:  -559.49680957327939   -5.59497e+02   2.34550e-05 
   @DF-RKS iter   1:  -559.49657340488125    2.36168e-04   3.44439e-06 DIIS
   @DF-RKS iter   2:  -559.49657342919795   -2.43167e-08   1.59680e-06 DIIS
   @DF-RKS iter   3:  -559.49657343467845   -5.48050e-09   2.23273e-07 DIIS
   @DF-RKS iter   4:  -559.49657343488104   -2.02590e-10   1.31589e-07 DIIS
   @DF-RKS iter   5:  -559.49657343493732   -5.62750e-11   4.22116e-08 DIIS
   @DF-RKS iter   6:  -559.49657343494448   -7.16227e-12   8.24055e-09 DIIS
  Energy and wave function converged.


  ==> Post-Iterations <==

    Orbital Energies [Eh]
    ---------------------

    Doubly Occupied:                                                      

       1A1  -103.762966     2A1   -25.778850     3A1   -10.259436  
       4A1    -7.836481     1B2    -7.827565     1B1    -7.827565  
       5A1    -1.498761     6A1    -1.014868     7A1    -0.645614  
       2B1    -0.644462     2B2    -0.644462     3B1    -0.442318  
       3B2    -0.442318  

    Virtual:                                                              

       8A1    -0.023349     9A1     0.055514     4B1     0.076709  
       4B2     0.076709    10A1     0.087987    11A1     0.159777  
       5B1     0.180592     5B2     0.180592     1A2     0.209857  
      12A1     0.209858     6B1     0.278683     6B2     0.278683  
      13A1     0.297892    14A1     0.308784     7B2     0.409603  
       7B1     0.409603    15A1     0.420467    16A1     0.546262  
       2A2     0.546262     8B1     0.564996     8B2     0.564996  
      17A1     0.580782    18A1     0.619367     3A2     0.619368  
      19A1     0.704823     9B2     0.749681     9B1     0.749681  
      10B1     0.749777    10B2     0.749777    20A1     0.819248  
      11B1     0.862213    11B2     0.862213     4A2     0.884211  
      21A1     0.884211    22A1     0.948976    12B2     1.080707  
      12B1     1.080707    23A1     1.106443    24A1     1.366307  
      25A1     1.459529     5A2     1.459529    26A1     1.519733  
      13B2     1.524986    13B1     1.524986    14B2     1.648223  
      14B1     1.648223    15B2     1.695215    15B1     1.695215  
       6A2     1.695381    27A1     1.695382    16B2     1.739281  
      16B1     1.739281    28A1     1.764844     7A2     1.764845  
      17B2     1.928403    17B1     1.928403    29A1     1.947034  
      30A1     1.972174     8A2     1.972175    18B2     2.036737  
      18B1     2.036737    31A1     2.065223     9A2     2.068623  
      32A1     2.068623    19B2     2.111573    19B1     2.111573  
      33A1     2.338534    20B2     2.370551    20B1     2.370551  
      34A1     2.394734    10A2     2.507438    35A1     2.507440  
      36A1     2.728963    21B2     2.861403    21B1     2.861403  
      37A1     2.949200    22B2     3.464853    22B1     3.464853  
      38A1     3.548133    11A2     3.548140    39A1     3.567566  
      23B1     3.770892    23B2     3.770892    24B2     4.225034  
      24B1     4.225034    40A1     4.227277    41A1     4.319300  
      12A2     4.319301    25B1     4.486529    25B2     4.486529  
[...]

   => Molecular Quadrature <=

    Radial Scheme          =       TREUTLER
    Pruning Scheme         =           FLAT
    Nuclear Scheme         =       TREUTLER

    BS radius alpha        =              1
    Pruning alpha          =              1
    Radial Points          =             75
    Spherical Points       =            302
    Total Points           =          45099
    Total Blocks           =            423
    Max Points             =            256
    Max Functions          =            169

   => DSD-BLYP-D3BJ: Empirical Dispersion <=

    Grimme's -D3 (BJ-damping) Dispersion Correction
    Grimme S.; Ehrlich S.; Goerigk L. (2011), J. Comput. Chem., 32: 1456
    Parametrisation from:    S. Kozuch, J.M.L. Martin, J. Comp. Chem., 34, 2327-2344, 2013

        s6 =       0.570000
        s8 =       0.000000
        a1 =       0.000000
        a2 =       5.400000

   => Loading Basis Set <=

    Name: (AUG-CC-PV(Q+D)Z AUX)
    Role: JKFIT
    Keyword: DF_BASIS_SCF
    atoms 1 entry CL         line   904 file /work/zw18965/.conda/envs/p4env/share/psi4/basis/aug-cc-pvqz-jkfit.gbs 
    atoms 2 entry F          line   388 file /work/zw18965/.conda/envs/p4env/share/psi4/basis/aug-cc-pvqz-jkfit.gbs 

  ==> Pre-Iterations <==

   -------------------------------------------------------
    Irrep   Nso     Nmo     Nalpha   Nbeta   Ndocc  Nsocc
   -------------------------------------------------------
     A1        66      66       0       0       0       0
     A2        23      23       0       0       0       0
     B1        40      40       0       0       0       0
     B2        40      40       0       0       0       0
   -------------------------------------------------------
    Total     169     169      13      13      13       0
   -------------------------------------------------------

  ==> Integral Setup <==

  DFHelper Memory: AOs need 0.082 GiB; user supplied 100.392 GiB. Using in-core AOs.

  ==> MemDFJK: Density-Fitted J/K Matrices <==

    J tasked:                   Yes
    K tasked:                   Yes
    wK tasked:                   No
    OpenMP threads:              24
    Memory [MiB]:            102800
    Algorithm:                 Core
    Schwarz Cutoff:           1E-12
    Mask sparsity (%):       0.0000
    Fitting Condition:        1E-10

   => Auxiliary Basis Set <=

  Basis Set: (AUG-CC-PV(Q+D)Z AUX)
    Blend: AUG-CC-PVQZ-JKFIT
    Number of shells: 80
    Number of basis function: 326
    Number of Cartesian functions: 445
    Spherical Harmonics?: true
    Max angular momentum: 5

  Cached 100.0% of DFT collocation blocks in 0.191 [GiB].

  Minimum eigenvalue in the overlap matrix is 2.7728200005E-04.
  Using Symmetric Orthogonalization.

  SCF Guess: Superposition of Atomic Densities via on-the-fly atomic UHF.

  ==> Iterations <==

                           Total Energy        Delta E     RMS |[F,P]|

   @DF-RKS iter SAD:  -559.21956946096884   -5.59220e+02   0.00000e+00 
   @DF-RKS iter   1:  -559.47668006947151   -2.57111e-01   2.91721e-03 DIIS
   @DF-RKS iter   2:  -559.48840179580600   -1.17217e-02   1.99001e-03 DIIS
   @DF-RKS iter   3:  -559.49643381981184   -8.03202e-03   5.27227e-04 DIIS
   @DF-RKS iter   4:  -559.49707002135960   -6.36202e-04   8.70645e-05 DIIS
   @DF-RKS iter   5:  -559.49709919862187   -2.91773e-05   2.24311e-05 DIIS
   @DF-RKS iter   6:  -559.49710090463793   -1.70602e-06   2.97796e-06 DIIS
   @DF-RKS iter   7:  -559.49710097533830   -7.07004e-08   6.74499e-07 DIIS
   @DF-RKS iter   8:  -559.49710097858053   -3.24223e-09   2.68503e-07 DIIS
   @DF-RKS iter   9:  -559.49710097899151   -4.10978e-10   5.07978e-08 DIIS
   @DF-RKS iter  10:  -559.49710097901948   -2.79670e-11   6.04461e-09 DIIS
   @DF-RKS iter  11:  -559.49710097901948    0.00000e+00   6.13845e-10 DIIS
   @DF-RKS iter  12:  -559.49710097901914    3.41061e-13   7.33001e-11 DIIS
  Energy and wave function converged.


  ==> Post-Iterations <==

    Orbital Energies [Eh]
    ---------------------

    Doubly Occupied:                                                      

       1A1  -103.761855     2A1   -25.779326     3A1   -10.258471  
       4A1    -7.835539     1B1    -7.826601     1B2    -7.826601  
       5A1    -1.503446     6A1    -1.014157     7A1    -0.648693  
       2B2    -0.647300     2B1    -0.647300     3B1    -0.440716  
       3B2    -0.440716  

    Virtual:                                                              

       8A1    -0.019277     9A1     0.055438     4B1     0.076697  
       4B2     0.076697    10A1     0.088990    11A1     0.160035  
       5B1     0.180443     5B2     0.180443     1A2     0.209948  
      12A1     0.209948     6B1     0.279434     6B2     0.279434  
      13A1     0.297518    14A1     0.309838     7B2     0.409194  
       7B1     0.409194    15A1     0.420447    16A1     0.546239  
       2A2     0.546239     8B1     0.566214     8B2     0.566214  
      17A1     0.581034    18A1     0.619966     3A2     0.619967  
      19A1     0.708005     9B1     0.749105     9B2     0.749105  
      10B1     0.749853    10B2     0.749853    20A1     0.821230  
      11B1     0.863949    11B2     0.863949     4A2     0.885445  
      21A1     0.885446    22A1     0.946927    12B1     1.078581  
      12B2     1.078581    23A1     1.107198    24A1     1.367713  
      25A1     1.460103     5A2     1.460103    26A1     1.519209  
      13B2     1.524621    13B1     1.524621    14B2     1.648175  
      14B1     1.648175     6A2     1.695101    27A1     1.695102  
      15B1     1.699938    15B2     1.699938    16B1     1.741698  
      16B2     1.741698    28A1     1.765107     7A2     1.765108  
      17B2     1.928806    17B1     1.928806    29A1     1.950082  
      30A1     1.974367     8A2     1.974368    18B2     2.040126  
      18B1     2.040126    31A1     2.067577    32A1     2.070236  
       9A2     2.070236    19B1     2.113956    19B2     2.113956  
      33A1     2.342496    20B1     2.375368    20B2     2.375368  
      34A1     2.394973    10A2     2.515487    35A1     2.515489  
      36A1     2.744993    21B1     2.853395    21B2     2.853395  
      37A1     2.950167    22B2     3.470681    22B1     3.470681  
      38A1     3.548619    11A2     3.548626    39A1     3.564830  
      23B1     3.786606    23B2     3.786606    24B1     4.225084  
      24B2     4.225084    40A1     4.226875    41A1     4.313916  
      12A2     4.313917    25B2     4.484867    25B1     4.484867  
      26B2     4.512643    26B1     4.512643    42A1     4.532094  
      13A2     4.532111    14A2     4.536603    43A1     4.536604  
      44A1     4.602021    15A2     4.602077    45A1     4.621629  
      27B2     4.730833    27B1     4.730833    28B1     4.797615  
      28B2     4.797615    46A1     5.172067    47A1     5.253827  
      16A2     5.303611    48A1     5.303615    29B2     5.392106  
      29B1     5.392106    30B1     5.421637    30B2     5.421637  
      49A1     5.501609    17A2     5.629085    50A1     5.629094  
      18A2     5.717966    51A1     5.717978    31B1     5.804902  
      31B2     5.804902    52A1     6.064977    32B1     6.281578  
      32B2     6.281578    33B1     6.692186    33B2     6.692186  
      53A1     6.735834    54A1     8.026860    19A2    11.115668  
      55A1    11.115671    34B1    11.272837    34B2    11.272837  
      56A1    11.502521    35B1    12.935325    35B2    12.935325  
      57A1    13.421544    20A2    13.421750    36B1    13.454779  
      36B2    13.454779    58A1    13.641071    21A2    13.641089  
      59A1    13.825430    37B1    13.827823    37B2    13.827823  
      60A1    14.195416    38B2    15.579739    38B1    15.579739  
      61A1    15.698667    22A2    15.698777    39B1    15.839815  
      39B2    15.839815    62A1    16.021084    23A2    16.467910  
      63A1    16.467962    40B1    16.943514    40B2    16.943514  
      64A1    17.152658    65A1    24.550816    66A1    53.939629  

    Final Occupation by Irrep:
             A1    A2    B1    B2 
    DOCC [     7,    0,    3,    3 ]

  @DF-RKS Final Energy:  -559.49710097901914

   => Energetics <=

    Nuclear Repulsion Energy =             49.7809674700554083
    One-Electron Energy =                -873.0871836352907849
    Two-Electron Energy =                 275.2833457507594517
    DFT Exchange-Correlation Energy =     -11.4737014045432524
    Empirical Dispersion Energy =          -0.0005291600000000
    VV10 Nonlocal Energy =                  0.0000000000000000
    Total Energy =                       -559.4971009790191374

Computation Completed


Properties will be evaluated at   0.000000,   0.000000,   0.000000 [a0]

Properties computed using the SCF density matrix

  Nuclear Dipole Moment: [e a0]
     X:     0.0000      Y:     0.0000      Z:     0.4700

  Electronic Dipole Moment: [e a0]
     X:     0.0000      Y:     0.0000      Z:    -0.0674

  Dipole Moment: [e a0]
     X:     0.0000      Y:     0.0000      Z:     0.4026     Total:     0.4026

  Dipole Moment: [D]
     X:     0.0000      Y:     0.0000      Z:     1.0232     Total:     1.0232


*** tstop() called on bp1-compute00150.data.bp.acrc.priv at Mon Apr 19 15:42:58 2021
Module time:
	user time   =      42.78 seconds =       0.71 minutes
	system time =       1.86 seconds =       0.03 minutes
	total time  =          2 seconds =       0.03 minutes
Total time:
	user time   =     807.74 seconds =      13.46 minutes
	system time =      34.44 seconds =       0.57 minutes
	total time  =         40 seconds =       0.67 minutes

*** tstart() called on bp1-compute00150.data.bp.acrc.priv
*** at Mon Apr 19 15:42:58 2021

   => Loading Basis Set <=

    Name: (AUG-CC-PV(Q+D)Z AUX)
    Role: RIFIT
    Keyword: DF_BASIS_MP2
    atoms 1 entry CL         line   914 file /work/zw18965/.conda/envs/p4env/share/psi4/basis/aug-cc-pvqz-ri.gbs 
    atoms 2 entry F          line   406 file /work/zw18965/.conda/envs/p4env/share/psi4/basis/aug-cc-pvqz-ri.gbs 

	 --------------------------------------------------------
	                          DF-MP2                         
	      2nd-Order Density-Fitted Moller-Plesset Theory     
	              RMP2 Wavefunction,  24 Threads             
	                                                         
	        Rob Parrish, Justin Turney, Andy Simmonett,      
	           Ed Hohenstein, and C. David Sherrill          
	 --------------------------------------------------------

   => Auxiliary Basis Set <=

  Basis Set: (AUG-CC-PV(Q+D)Z AUX)
    Blend: AUG-CC-PVQZ-RI
    Number of shells: 80
    Number of basis function: 362
    Number of Cartesian functions: 505
    Spherical Harmonics?: true
    Max angular momentum: 5

	 --------------------------------------------------------
	                 NBF =   169, NAUX =   362
	 --------------------------------------------------------
	   CLASS    FOCC     OCC    AOCC    AVIR     VIR    FVIR
	   PAIRS       0      13      13     156     156       0
	 --------------------------------------------------------

	-----------------------------------------------------------
	 ==================> DF-MP2 Energies <==================== 
	-----------------------------------------------------------
	 Reference Energy          =    -559.4971009790191374 [Eh]
	 Singles Energy            =      -0.0000000000000000 [Eh]
	 Same-Spin Energy          =      -0.1846954790895214 [Eh]
	 Opposite-Spin Energy      =      -0.5394639980013336 [Eh]
	 Correlation Energy        =      -0.7241594770908550 [Eh]
	 Total Energy              =    -560.2212604561100306 [Eh]
	-----------------------------------------------------------
	 ================> DF-SCS-MP2 Energies <================== 
	-----------------------------------------------------------
	 SCS Same-Spin Scale       =       0.4000000000000000 [-]
	 SCS Opposite-Spin Scale   =       0.4700000000000000 [-]
	 SCS Same-Spin Energy      =      -0.0738781916358086 [Eh]
	 SCS Opposite-Spin Energy  =      -0.2535480790606268 [Eh]
	 SCS Correlation Energy    =      -0.3274262706964354 [Eh]
	 SCS Total Energy          =    -559.8245272497156293 [Eh]
	-----------------------------------------------------------



    DSD-BLYP-D3BJ Energy Summary
    ----------------------------
    DFT Reference Energy                  =  -559.4971009790191374
    Scaled MP2 Correlation                =    -0.3274262706964354
    @Final double-hybrid DFT total energy =  -559.8245272497156293


*** tstop() called on bp1-compute00150.data.bp.acrc.priv at Mon Apr 19 15:42:59 2021
Module time:
	user time   =      12.32 seconds =       0.21 minutes
	system time =       0.54 seconds =       0.01 minutes
	total time  =          1 seconds =       0.02 minutes
Total time:
	user time   =     820.07 seconds =      13.67 minutes
	system time =      34.98 seconds =       0.58 minutes
	total time  =         41 seconds =       0.68 minutes

         ----------------------------------------------------------
                                   FINDIF
                     R. A. King and Jonathon Misiewicz
         ---------------------------------------------------------

  Computing second-derivative from energies using projected, 
  symmetry-adapted, cartesian coordinates.

  3 energies passed in, including the reference geometry.
    Using 3-point formula.
    Energy without displacement: -559.8245277288
    Check energies below for precision!
    0: -1 :      -559.8245276026
    0: 1  :      -559.8245272497

-------------------------------------------------------------


  ==> Harmonic Vibrational Analysis <==

  non-mass-weighted Hessian:       Symmetric? True   Hermitian? True   Lin Dep Dim?  5 (0)
  projection of translations (True) and rotations (True) removed 5 degrees of freedom (5)
  total projector:                 Symmetric? True   Hermitian? True   Lin Dep Dim?  5 (5)
  mass-weighted Hessian:           Symmetric? True   Hermitian? True   Lin Dep Dim?  5 (0)
  pre-proj  low-frequency mode:    0.0000i [cm^-1]
  pre-proj  low-frequency mode:    0.0000  [cm^-1]
  pre-proj  low-frequency mode:    0.0000  [cm^-1]
  pre-proj  low-frequency mode:    0.0000  [cm^-1]
  pre-proj  low-frequency mode:    0.0000  [cm^-1]
  pre-proj  all modes:['0.0000i' '0.0000' '0.0000' '0.0000' '0.0000' '799.8353']
  projected mass-weighted Hessian: Symmetric? True   Hermitian? True   Lin Dep Dim?  5 (5)
  post-proj low-frequency mode:    0.0000i [cm^-1] (TR)
  post-proj low-frequency mode:    0.0000  [cm^-1] (TR)
  post-proj low-frequency mode:    0.0000  [cm^-1] (TR)
  post-proj low-frequency mode:    0.0000  [cm^-1] (TR)
  post-proj low-frequency mode:    0.0000  [cm^-1] (TR)
  post-proj  all modes:['0.0000i' '0.0000' '0.0000' '0.0000' '0.0000' '799.8353']

  Vibration                       6           
  Freq [cm^-1]                 799.8353       
  Irrep                           A1          
  Reduced mass [u]             22.6381        
  Force const [mDyne/A]         8.5328        
  Turning point v=0 [a0]        0.0815        
  RMS dev v=0 [a0 u^1/2]        0.2743        
  Char temp [K]               1150.7849       
  ----------------------------------------------------------------------------------
      1   CL               0.00  0.00 -0.48   
      2   F                0.00  0.00  0.88   

  ==> Thermochemistry Components <==

  Entropy, S
    Electronic S            0.000 [cal/(mol K)]        0.000 [J/(mol K)]       0.00000000 [mEh/K] (multiplicity = 1)
    Translational S        37.879 [cal/(mol K)]      158.488 [J/(mol K)]       0.06036475 [mEh/K] (mol. weight = 53.9673 [u], P = 101325.00 [Pa])
    Rotational S           13.893 [cal/(mol K)]       58.128 [J/(mol K)]       0.02213998 [mEh/K] (symmetry no. = 1)
    Vibrational S           0.207 [cal/(mol K)]        0.868 [J/(mol K)]       0.00033057 [mEh/K]
  Total S                  51.980 [cal/(mol K)]      217.484 [J/(mol K)]       0.08283530 [mEh/K]
  Correction S              0.000 [cal/(mol K)]        0.000 [J/(mol K)]       0.00000000 [mEh/K]

  Constant volume heat capacity, Cv
    Electronic Cv           0.000 [cal/(mol K)]        0.000 [J/(mol K)]       0.00000000 [mEh/K]
    Translational Cv        2.981 [cal/(mol K)]       12.472 [J/(mol K)]       0.00475022 [mEh/K]
    Rotational Cv           1.987 [cal/(mol K)]        8.314 [J/(mol K)]       0.00316681 [mEh/K]
    Vibrational Cv          0.651 [cal/(mol K)]        2.724 [J/(mol K)]       0.00103746 [mEh/K]
  Total Cv                  5.619 [cal/(mol K)]       23.510 [J/(mol K)]       0.00895449 [mEh/K]
  Correction Cv             0.000 [cal/(mol K)]        0.000 [J/(mol K)]       0.00000000 [mEh/K]

  Constant pressure heat capacity, Cp
    Electronic Cp           0.000 [cal/(mol K)]        0.000 [J/(mol K)]       0.00000000 [mEh/K]
    Translational Cp        4.968 [cal/(mol K)]       20.786 [J/(mol K)]       0.00791703 [mEh/K]
    Rotational Cp           1.987 [cal/(mol K)]        8.314 [J/(mol K)]       0.00316681 [mEh/K]
    Vibrational Cp          0.651 [cal/(mol K)]        2.724 [J/(mol K)]       0.00103746 [mEh/K]
  Total Cp                  7.606 [cal/(mol K)]       31.824 [J/(mol K)]       0.01212130 [mEh/K]
  Correction Cp             0.000 [cal/(mol K)]        0.000 [J/(mol K)]       0.00000000 [mEh/K]

  ==> Thermochemistry Energy Analysis <==

  Raw electronic energy, E0
  Total E0, Electronic energy at well bottom at 0 [K]                 -559.82452773 [Eh]

  Zero-point energy, ZPE_vib = Sum_i nu_i / 2
    Electronic ZPE          0.000 [kcal/mol]        0.000 [kJ/mol]       0.00000000 [Eh]
    Translational ZPE       0.000 [kcal/mol]        0.000 [kJ/mol]       0.00000000 [Eh]
    Rotational ZPE          0.000 [kcal/mol]        0.000 [kJ/mol]       0.00000000 [Eh]
    Vibrational ZPE         1.143 [kcal/mol]        4.784 [kJ/mol]       0.00182216 [Eh]         399.918 [cm^-1]
  Correction ZPE            1.143 [kcal/mol]        4.784 [kJ/mol]       0.00182216 [Eh]         399.918 [cm^-1]
  Total ZPE, Electronic energy at 0 [K]                               -559.82270557 [Eh]

  Thermal Energy, E (includes ZPE)
    Electronic E            0.000 [kcal/mol]        0.000 [kJ/mol]       0.00000000 [Eh]
    Translational E         0.889 [kcal/mol]        3.718 [kJ/mol]       0.00141628 [Eh]
    Rotational E            0.592 [kcal/mol]        2.479 [kJ/mol]       0.00094418 [Eh]
    Vibrational E           1.193 [kcal/mol]        4.990 [kJ/mol]       0.00190061 [Eh]
  Correction E              2.674 [kcal/mol]       11.187 [kJ/mol]       0.00426107 [Eh]
  Total E, Electronic energy at  298.15 [K]                           -559.82026666 [Eh]

  Enthalpy, H_trans = E_trans + k_B * T
    Electronic H            0.000 [kcal/mol]        0.000 [kJ/mol]       0.00000000 [Eh]
    Translational H         1.481 [kcal/mol]        6.197 [kJ/mol]       0.00236046 [Eh]
    Rotational H            0.592 [kcal/mol]        2.479 [kJ/mol]       0.00094418 [Eh]
    Vibrational H           1.193 [kcal/mol]        4.990 [kJ/mol]       0.00190061 [Eh]
  Correction H              3.266 [kcal/mol]       13.666 [kJ/mol]       0.00520526 [Eh]
  Total H, Enthalpy at  298.15 [K]                                    -559.81932247 [Eh]

  Gibbs free energy, G = H - T * S
    Electronic G            0.000 [kcal/mol]        0.000 [kJ/mol]       0.00000000 [Eh]
    Translational G        -9.813 [kcal/mol]      -41.056 [kJ/mol]      -0.01563729 [Eh]
    Rotational G           -3.550 [kcal/mol]      -14.852 [kJ/mol]      -0.00565685 [Eh]
    Vibrational G           1.131 [kcal/mol]        4.731 [kJ/mol]       0.00180205 [Eh]
  Correction G            -12.231 [kcal/mol]      -51.176 [kJ/mol]      -0.01949209 [Eh]
  Total G, Free enthalpy at  298.15 [K]                               -559.84401982 [Eh]

    Psi4 stopped on: Monday, 19 April 2021 03:42PM
    Psi4 wall time for execution: 0:00:41.49

*** Psi4 exiting successfully. Buy a developer a beer!
