
    -----------------------------------------------------------------------
          Psi4: An Open-Source Ab Initio Electronic Structure Package
                               Psi4 1.3.2 release

                         Git: Rev {HEAD} ecbda83 


    R. M. Parrish, L. A. Burns, D. G. A. Smith, A. C. Simmonett,
    A. E. DePrince III, E. G. Hohenstein, U. Bozkaya, A. Yu. Sokolov,
    R. Di Remigio, R. M. Richard, J. F. Gonthier, A. M. James,
    H. R. McAlexander, A. Kumar, M. Saitow, X. Wang, B. P. Pritchard,
    P. Verma, H. F. Schaefer III, K. Patkowski, R. A. King, E. F. Valeev,
    F. A. Evangelista, J. M. Turney, T. D. Crawford, and C. D. Sherrill,
    J. Chem. Theory Comput. 13(7) pp 3185--3197 (2017).
    (doi: 10.1021/acs.jctc.7b00174)


                         Additional Contributions by
    P. Kraus, H. Kruse, M. H. Lechner, M. C. Schieber, R. A. Shaw,
    A. Alenaizan, R. Galvelis, Z. L. Glick, S. Lehtola, and J. P. Misiewicz

    -----------------------------------------------------------------------


    Psi4 started on: Monday, 19 April 2021 03:42PM

    Process ID: 15013
    Host:       bp1-compute00149.data.bp.acrc.priv
    PSIDATADIR: /work/zw18965/.conda/envs/p4env/share/psi4
    Memory:     500.0 MiB
    Threads:    24
    
  ==> Input File <==

--------------------------------------------------------------------------
memory 144 GB

molecule {
0 1
O    -1.140454996052   0.000000000000   0.000000000000
O     1.140454996052   0.000000000000   0.000000000000
C     0.000000000000   0.000000000000   0.000000000000}

set basis aug-cc-pV(Q+d)Z
 
optimize("DSD-BLYP-D3BJ")
frequencies("DSD-BLYP-D3BJ")--------------------------------------------------------------------------

  Memory set to 134.110 GiB by Python driver.
gradient() will perform gradient computation by finite difference of analytic energies.

         ----------------------------------------------------------
                                   FINDIF
                     R. A. King and Jonathon Misiewicz
         ---------------------------------------------------------

  Using finite-differences of energies to determine gradients.
    Generating geometries for use with 3-point formula.
    Displacement size will be 5.00e-03.
    Number of atoms is 3.
    Number of symmetric SALCs is 1.
    Translations projected? 1. Rotations projected? 1.
    Number of geometries (including reference) is 3.

  //>>>>>>>>>>>>>>>>>>>>>>>>>>>>>>>>>>>//
  //    Loading displacement 1 of 3    //
  //<<<<<<<<<<<<<<<<<<<<<<<<<<<<<<<<<<<//

*** tstart() called on bp1-compute00149.data.bp.acrc.priv
*** at Mon Apr 19 15:42:31 2021

   => Loading Basis Set <=

    Name: AUG-CC-PV(Q+D)Z
    Role: ORBITAL
    Keyword: BASIS
    atoms 1-2 entry O          line   439 file /work/zw18965/.conda/envs/p4env/share/psi4/basis/aug-cc-pv_qpd_z.gbs 
    atoms 3   entry C          line   319 file /work/zw18965/.conda/envs/p4env/share/psi4/basis/aug-cc-pv_qpd_z.gbs 


         ---------------------------------------------------------
                                   SCF
               by Justin Turney, Rob Parrish, Andy Simmonett
                          and Daniel G. A. Smith
                              RKS Reference
                       24 Threads, 137329 MiB Core
         ---------------------------------------------------------

  ==> Geometry <==

    Molecular point group: d2h
    Full point group: D_inf_h

    Geometry (in Angstrom), charge = 0, multiplicity = 1:

       Center              X                  Y                   Z               Mass       
    ------------   -----------------  -----------------  -----------------  -----------------
         O           -1.140454996052    -0.000000000000     0.000000000000    15.994914619570
         O            1.140454996052     0.000000000000     0.000000000000    15.994914619570
         C            0.000000000000     0.000000000000     0.000000000000    12.000000000000

  Running in d2h symmetry.

  Rotational constants: A = ************  B =      0.40516  C =      0.40516 [cm^-1]
  Rotational constants: A = ************  B =  12146.43900  C =  12146.43900 [MHz]
  Nuclear repulsion =   59.392683797468841

  Charge       = 0
  Multiplicity = 1
  Electrons    = 22
  Nalpha       = 11
  Nbeta        = 11

  ==> Algorithm <==

  SCF Algorithm Type is DF.
  DIIS enabled.
  MOM disabled.
  Fractional occupation disabled.
  Guess Type is SAD.
  Energy threshold   = 1.00e-08
  Density threshold  = 1.00e-08
  Integral threshold = 0.00e+00

  ==> Primary Basis <==

  Basis Set: AUG-CC-PV(Q+D)Z
    Blend: AUG-CC-PV(Q+D)Z
    Number of shells: 60
    Number of basis function: 240
    Number of Cartesian functions: 315
    Spherical Harmonics?: true
    Max angular momentum: 4

  ==> DFT Potential <==

   => Composite Functional: DSD-BLYP-D3BJ <= 

    DSD-BLYP-D3BJ Dispersion-corrected SCS Double Hybrid XC Functional

    S. Kozuch, J.M.L. Martin, J. Comp. Chem., 34, 2327-2344, 2013


    Deriv               =              1
    GGA                 =           TRUE
    Meta                =          FALSE

    Exchange Hybrid     =           TRUE
    MP2 Hybrid          =           TRUE

   => Exchange Functionals <=

    0.2900     XC_GGA_X_B88

   => Exact (HF) Exchange <=

    0.7100               HF 

   => Correlation Functionals <=

    0.5400     XC_GGA_C_LYP

   => MP2 Correlation <=

    MP2 SCS Hybrid      =           TRUE
    MP2 OS Alpha        =       0.470000
    MP2 SS Alpha        =       0.400000

   => Molecular Quadrature <=

    Radial Scheme          =       TREUTLER
    Pruning Scheme         =           FLAT
    Nuclear Scheme         =       TREUTLER

    BS radius alpha        =              1
    Pruning alpha          =              1
    Radial Points          =             75
    Spherical Points       =            302
    Total Points           =          67950
    Total Blocks           =            581
    Max Points             =            256
    Max Functions          =            240

   => DSD-BLYP-D3BJ: Empirical Dispersion <=

    Grimme's -D3 (BJ-damping) Dispersion Correction
    Grimme S.; Ehrlich S.; Goerigk L. (2011), J. Comput. Chem., 32: 1456
    Parametrisation from:    S. Kozuch, J.M.L. Martin, J. Comp. Chem., 34, 2327-2344, 2013

        s6 =       0.570000
        s8 =       0.000000
        a1 =       0.000000
        a2 =       5.400000

   => Loading Basis Set <=

    Name: (AUG-CC-PV(Q+D)Z AUX)
    Role: JKFIT
    Keyword: DF_BASIS_SCF
    atoms 1-2 entry O          line   318 file /work/zw18965/.conda/envs/p4env/share/psi4/basis/aug-cc-pvqz-jkfit.gbs 
    atoms 3   entry C          line   178 file /work/zw18965/.conda/envs/p4env/share/psi4/basis/aug-cc-pvqz-jkfit.gbs 

  ==> Pre-Iterations <==

   -------------------------------------------------------
    Irrep   Nso     Nmo     Nalpha   Nbeta   Ndocc  Nsocc
   -------------------------------------------------------
     Ag        51      51       0       0       0       0
     B1g       27      27       0       0       0       0
     B2g       27      27       0       0       0       0
     B3g       19      19       0       0       0       0
     Au        14      14       0       0       0       0
     B1u       30      30       0       0       0       0
     B2u       30      30       0       0       0       0
     B3u       42      42       0       0       0       0
   -------------------------------------------------------
    Total     240     240      11      11      11       0
   -------------------------------------------------------

  ==> Integral Setup <==

  DFHelper Memory: AOs need 0.208 GiB; user supplied 100.176 GiB. Using in-core AOs.

  ==> MemDFJK: Density-Fitted J/K Matrices <==

    J tasked:                   Yes
    K tasked:                   Yes
    wK tasked:                   No
    OpenMP threads:              24
    Memory [MiB]:            102580
    Algorithm:                 Core
    Schwarz Cutoff:           1E-12
    Mask sparsity (%):       0.4618
    Fitting Condition:        1E-10

   => Auxiliary Basis Set <=

  Basis Set: (AUG-CC-PV(Q+D)Z AUX)
    Blend: AUG-CC-PVQZ-JKFIT
    Number of shells: 102
    Number of basis function: 426
    Number of Cartesian functions: 594
    Spherical Harmonics?: true
    Max angular momentum: 5

  Cached 100.0% of DFT collocation blocks in 0.406 [GiB].

  Minimum eigenvalue in the overlap matrix is 4.4423683487E-05.
  Using Symmetric Orthogonalization.

  SCF Guess: Superposition of Atomic Densities via on-the-fly atomic UHF.

  ==> Iterations <==

                           Total Energy        Delta E     RMS |[F,P]|

   @DF-RKS iter SAD:  -187.52592839738358   -1.87526e+02   0.00000e+00 
   @DF-RKS iter   1:  -188.09456472622784   -5.68636e-01   6.03672e-03 DIIS
   @DF-RKS iter   2:  -188.10321796935131   -8.65324e-03   5.74731e-03 DIIS
   @DF-RKS iter   3:  -188.18619689359758   -8.29789e-02   2.58258e-04 DIIS
   @DF-RKS iter   4:  -188.18639000625222   -1.93113e-04   5.43595e-05 DIIS
   @DF-RKS iter   5:  -188.18640220358006   -1.21973e-05   1.07749e-05 DIIS
   @DF-RKS iter   6:  -188.18640258834864   -3.84769e-07   1.89535e-06 DIIS
   @DF-RKS iter   7:  -188.18640260378925   -1.54406e-08   1.83936e-07 DIIS
   @DF-RKS iter   8:  -188.18640260407250   -2.83251e-10   2.60444e-08 DIIS
   @DF-RKS iter   9:  -188.18640260407801   -5.51381e-12   2.33857e-09 DIIS
  Energy and wave function converged.


  ==> Post-Iterations <==

    Orbital Energies [Eh]
    ---------------------

    Doubly Occupied:                                                      

       1B3u  -20.132893     1Ag   -20.132854     2Ag   -11.061621  
       3Ag    -1.415313     2B3u   -1.366746     4Ag    -0.719655  
       3B3u   -0.673094     1B1u   -0.660090     1B2u   -0.660090  
       1B2g   -0.490198     1B1g   -0.490198  

    Virtual:                                                              

       5Ag     0.022510     2B2u    0.053442     2B1u    0.053442  
       4B3u    0.057673     6Ag     0.114437     2B2g    0.121146  
       2B1g    0.121146     3B2u    0.145783     3B1u    0.145783  
       7Ag     0.151458     5B3u    0.179765     4B2u    0.185056  
       4B1u    0.185056     1B3g    0.190507     8Ag     0.190507  
       6B3u    0.226632     5B2u    0.324815     5B1u    0.324815  
       9Ag     0.328975     3B2g    0.350193     3B1g    0.350193  
      10Ag     0.376802     7B3u    0.426535     1Au     0.426535  
       8B3u    0.465904    11Ag     0.531968     2B3g    0.537428  
      12Ag     0.537428     4B2g    0.562018     4B1g    0.562018  
       6B2u    0.587026     6B1u    0.587026     9B3u    0.605095  
      13Ag     0.665111     7B2u    0.684233     7B1u    0.684233  
      14Ag     0.740532     3B3g    0.740532    10B3u    0.781558  
       8B2u    0.802748     8B1u    0.802748    15Ag     0.844425  
       5B2g    0.862611     5B1g    0.862611     2Au     0.913482  
      11B3u    0.913483    12B3u    0.978163     9B1u    1.075301  
       9B2u    1.075301     6B2g    1.141607     6B1g    1.141607  
      13B3u    1.170768    16Ag     1.269109     7B2g    1.273733  
       7B1g    1.273733     3Au     1.437599    14B3u    1.437599  
      17Ag     1.456346    10B2u    1.495800    10B1u    1.495800  
      18Ag     1.503086     4B3g    1.503086    11B1u    1.524079  
      11B2u    1.524079    19Ag     1.575220     5B3g    1.575220  
       8B2g    1.589033     8B1g    1.589033    20Ag     1.595613  
      15B3u    1.635579    16B3u    1.640357    21Ag     1.828130  
       9B2g    1.850402     9B1g    1.850402     4Au     1.855866  
      17B3u    1.855866    12B2u    1.860687    12B1u    1.860687  
      18B3u    1.878699    22Ag     2.003446     6B3g    2.003446  
      13B2u    2.142719    13B1u    2.142719    23Ag     2.164093  
       7B3g    2.164093    14B1u    2.204804    14B2u    2.204804  
      10B1g    2.443502    10B2g    2.443502    11B1g    2.470927  
      11B2g    2.470927    15B1u    2.632393    15B2u    2.632393  
      19B3u    2.639865    24Ag     2.741002     5Au     2.849355  
      20B3u    2.849355    25Ag     2.979129     8B3g    3.071795  
      26Ag     3.071796    12B2g    3.119446    12B1g    3.119446  
      21B3u    3.326795    27Ag     3.471027    22B3u    3.519373  
       6Au     3.519376    13B2g    3.631644    13B1g    3.631644  
      28Ag     3.740785     9B3g    3.740788    14B2g    3.898020  
      14B1g    3.898020    29Ag     3.918515    23B3u    3.941395  
      16B1u    3.957123    16B2u    3.957123    24B3u    4.001590  
       7Au     4.001590    17B1u    4.041895    17B2u    4.041895  
      18B2u    4.110913    18B1u    4.110913    19B2u    4.135546  
      19B1u    4.135546    10B3g    4.174205    30Ag     4.174206  
      15B2g    4.233193    15B1g    4.233193    31Ag     4.238955  
      32Ag     4.479498    11B3g    4.479499     8Au     4.483483  
      25B3u    4.483483    26B3u    4.549811    20B1u    4.583917  
      20B2u    4.583917    16B1g    4.664559    16B2g    4.664559  
      33Ag     4.675318    17B1g    4.730120    17B2g    4.730120  
      12B3g    4.827714    34Ag     4.827714    27B3u    4.870010  
       9Au     5.379377    28B3u    5.379377    21B1u    5.544095  
      21B2u    5.544095    29B3u    5.674229    35Ag     5.726954  
      13B3g    5.726956    36Ag     5.809822    18B2g    5.913797  
      18B1g    5.913797    37Ag     6.028405    19B1g    6.126212  
      19B2g    6.126212    22B2u    6.243064    22B1u    6.243064  
      30B3u    6.290479    23B1u    6.411468    23B2u    6.411468  
      14B3g    6.556687    38Ag     6.556691    10Au     6.921269  
      31B3u    6.921270    32B3u    7.028961    20B1g    7.139494  
      20B2g    7.139494    39Ag     7.651751    15B3g    7.878104  
      40Ag     7.878104    24B1u    8.510116    24B2u    8.510116  
      41Ag     9.009384    21B2g    9.034541    21B1g    9.034541  
      33B3u   10.308084    34B3u   10.400002    11Au    10.400040  
      42Ag    10.489747    16B3g   10.489786    25B1u   10.616183  
      25B2u   10.616183    22B1g   10.883075    22B2g   10.883075  
      35B3u   10.931324    12Au    10.931324    23B1g   10.941258  
      23B2g   10.941258    36B3u   11.155978    24B1g   11.166995  
      24B2g   11.166995    26B2u   11.193511    26B1u   11.193511  
      17B3g   11.243110    43Ag    11.243111    27B2u   11.394859  
      27B1u   11.394859    44Ag    11.561872    28B2u   11.705159  
      28B1u   11.705159    25B1g   11.713189    25B2g   11.713189  
      37B3u   11.915114    38B3u   12.238899    13Au    12.238902  
      18B3g   12.261377    45Ag    12.261379    46Ag    12.324331  
      29B2u   12.369785    29B1u   12.369785    14Au    12.836058  
      39B3u   12.836080    19B3g   12.949637    47Ag    12.949653  
      26B2g   13.032974    26B1g   13.032974    40B3u   13.752436  
      48Ag    13.958682    30B1u   14.103445    30B2u   14.103445  
      49Ag    14.695467    27B2g   15.894774    27B1g   15.894774  
      41B3u   16.787559    50Ag    26.706842    42B3u   43.061838  
      51Ag    44.038517  

    Final Occupation by Irrep:
             Ag   B1g   B2g   B3g    Au   B1u   B2u   B3u 
    DOCC [     4,    1,    1,    0,    0,    1,    1,    3 ]

  @DF-RKS Final Energy:  -188.18640260407801

   => Energetics <=

    Nuclear Repulsion Energy =             59.3926837974688411
    One-Electron Energy =                -374.6912432098528711
    Two-Electron Energy =                 133.8623917389761857
    DFT Exchange-Correlation Energy =      -6.7491344506701658
    Empirical Dispersion Energy =          -0.0011004800000000
    VV10 Nonlocal Energy =                  0.0000000000000000
    Total Energy =                       -188.1864026040779834

Computation Completed


Properties will be evaluated at   0.000000,   0.000000,   0.000000 [a0]

Properties computed using the SCF density matrix

  Nuclear Dipole Moment: [e a0]
     X:     0.0000      Y:     0.0000      Z:     0.0000

  Electronic Dipole Moment: [e a0]
     X:     0.0000      Y:     0.0000      Z:     0.0000

  Dipole Moment: [e a0]
     X:     0.0000      Y:     0.0000      Z:     0.0000     Total:     0.0000

  Dipole Moment: [D]
     X:     0.0000      Y:     0.0000      Z:     0.0000     Total:     0.0000


*** tstop() called on bp1-compute00149.data.bp.acrc.priv at Mon Apr 19 15:42:34 2021
Module time:
	user time   =      51.25 seconds =       0.85 minutes
	system time =       3.07 seconds =       0.05 minutes
	total time  =          3 seconds =       0.05 minutes
Total time:
	user time   =      51.25 seconds =       0.85 minutes
	system time =       3.07 seconds =       0.05 minutes
	total time  =          3 seconds =       0.05 minutes

*** tstart() called on bp1-compute00149.data.bp.acrc.priv
*** at Mon Apr 19 15:42:34 2021

   => Loading Basis Set <=

    Name: (AUG-CC-PV(Q+D)Z AUX)
    Role: RIFIT
    Keyword: DF_BASIS_MP2
    atoms 1-2 entry O          line   332 file /work/zw18965/.conda/envs/p4env/share/psi4/basis/aug-cc-pvqz-ri.gbs 
    atoms 3   entry C          line   184 file /work/zw18965/.conda/envs/p4env/share/psi4/basis/aug-cc-pvqz-ri.gbs 

	 --------------------------------------------------------
	                          DF-MP2                         
	      2nd-Order Density-Fitted Moller-Plesset Theory     
	              RMP2 Wavefunction,  24 Threads             
	                                                         
	        Rob Parrish, Justin Turney, Andy Simmonett,      
	           Ed Hohenstein, and C. David Sherrill          
	 --------------------------------------------------------

   => Auxiliary Basis Set <=

  Basis Set: (AUG-CC-PV(Q+D)Z AUX)
    Blend: AUG-CC-PVQZ-RI
    Number of shells: 108
    Number of basis function: 504
    Number of Cartesian functions: 711
    Spherical Harmonics?: true
    Max angular momentum: 5

	 --------------------------------------------------------
	                 NBF =   240, NAUX =   504
	 --------------------------------------------------------
	   CLASS    FOCC     OCC    AOCC    AVIR     VIR    FVIR
	   PAIRS       0      11      11     229     229       0
	 --------------------------------------------------------

	-----------------------------------------------------------
	 ==================> DF-MP2 Energies <==================== 
	-----------------------------------------------------------
	 Reference Energy          =    -188.1864026040780118 [Eh]
	 Singles Energy            =      -0.0000000000000000 [Eh]
	 Same-Spin Energy          =      -0.2043594540534918 [Eh]
	 Opposite-Spin Energy      =      -0.6118935514554309 [Eh]
	 Correlation Energy        =      -0.8162530055089227 [Eh]
	 Total Energy              =    -189.0026556095869239 [Eh]
	-----------------------------------------------------------
	 ================> DF-SCS-MP2 Energies <================== 
	-----------------------------------------------------------
	 SCS Same-Spin Scale       =       0.4000000000000000 [-]
	 SCS Opposite-Spin Scale   =       0.4700000000000000 [-]
	 SCS Same-Spin Energy      =      -0.0817437816213967 [Eh]
	 SCS Opposite-Spin Energy  =      -0.2875899691840525 [Eh]
	 SCS Correlation Energy    =      -0.3693337508054492 [Eh]
	 SCS Total Energy          =    -188.5557363548834644 [Eh]
	-----------------------------------------------------------



    DSD-BLYP-D3BJ Energy Summary
    ----------------------------
    DFT Reference Energy                  =  -188.1864026040780118
    Scaled MP2 Correlation                =    -0.3693337508054492
    @Final double-hybrid DFT total energy =  -188.5557363548834644


*** tstop() called on bp1-compute00149.data.bp.acrc.priv at Mon Apr 19 15:42:35 2021
Module time:
	user time   =      11.12 seconds =       0.19 minutes
	system time =       0.56 seconds =       0.01 minutes
	total time  =          1 seconds =       0.02 minutes
Total time:
	user time   =      62.38 seconds =       1.04 minutes
	system time =       3.63 seconds =       0.06 minutes
	total time  =          4 seconds =       0.07 minutes

  //>>>>>>>>>>>>>>>>>>>>>>>>>>>>>>>>>>>//
  //    Loading displacement 2 of 3    //
  //<<<<<<<<<<<<<<<<<<<<<<<<<<<<<<<<<<<//

*** tstart() called on bp1-compute00149.data.bp.acrc.priv
*** at Mon Apr 19 15:42:35 2021

   => Loading Basis Set <=

    Name: AUG-CC-PV(Q+D)Z
    Role: ORBITAL
    Keyword: BASIS
    atoms 1-2 entry O          line   439 file /work/zw18965/.conda/envs/p4env/share/psi4/basis/aug-cc-pv_qpd_z.gbs 
    atoms 3   entry C          line   319 file /work/zw18965/.conda/envs/p4env/share/psi4/basis/aug-cc-pv_qpd_z.gbs 


         ---------------------------------------------------------
                                   SCF
               by Justin Turney, Rob Parrish, Andy Simmonett
                          and Daniel G. A. Smith
                              RKS Reference
                       24 Threads, 137329 MiB Core
         ---------------------------------------------------------

  ==> Geometry <==

    Molecular point group: d2h
    Full point group: D_inf_h

    Geometry (in Angstrom), charge = 0, multiplicity = 1:

       Center              X                  Y                   Z               Mass       
    ------------   -----------------  -----------------  -----------------  -----------------
         O           -1.140922801393    -0.000000000000     0.000000000000    15.994914619570
         O            1.140922801393     0.000000000000     0.000000000000    15.994914619570
         C            0.000000000000    -0.000000000000     0.000000000000    12.000000000000

  Running in d2h symmetry.

  Rotational constants: A = ************  B =      0.40483  C =      0.40483 [cm^-1]
  Rotational constants: A = ************  B =  12136.48038  C =  12136.48038 [MHz]
  Nuclear repulsion =   59.368331391959067

  Charge       = 0
  Multiplicity = 1
  Electrons    = 22
  Nalpha       = 11
  Nbeta        = 11

  ==> Algorithm <==

  SCF Algorithm Type is DF.
  DIIS enabled.
  MOM disabled.
  Fractional occupation disabled.
  Guess Type is SAD.
  Energy threshold   = 1.00e-08
  Density threshold  = 1.00e-08
  Integral threshold = 0.00e+00

  ==> Primary Basis <==

  Basis Set: AUG-CC-PV(Q+D)Z
    Blend: AUG-CC-PV(Q+D)Z
    Number of shells: 60
    Number of basis function: 240
    Number of Cartesian functions: 315
    Spherical Harmonics?: true
    Max angular momentum: 4

  ==> DFT Potential <==

   => Composite Functional: DSD-BLYP-D3BJ <= 

    DSD-BLYP-D3BJ Dispersion-corrected SCS Double Hybrid XC Functional

    S. Kozuch, J.M.L. Martin, J. Comp. Chem., 34, 2327-2344, 2013


    Deriv               =              1
    GGA                 =           TRUE
    Meta                =          FALSE

    Exchange Hybrid     =           TRUE
    MP2 Hybrid          =           TRUE

   => Exchange Functionals <=

    0.2900     XC_GGA_X_B88

   => Exact (HF) Exchange <=

    0.7100               HF 

   => Correlation Functionals <=

    0.5400     XC_GGA_C_LYP

   => MP2 Correlation <=

    MP2 SCS Hybrid      =           TRUE
    MP2 OS Alpha        =       0.470000
    MP2 SS Alpha        =       0.400000

   => Molecular Quadrature <=

    Radial Scheme          =       TREUTLER
    Pruning Scheme         =           FLAT
    Nuclear Scheme         =       TREUTLER

    BS radius alpha        =              1
    Pruning alpha          =              1
    Radial Points          =             75
    Spherical Points       =            302
    Total Points           =          67950
    Total Blocks           =            581
    Max Points             =            256
    Max Functions          =            240

   => DSD-BLYP-D3BJ: Empirical Dispersion <=

    Grimme's -D3 (BJ-damping) Dispersion Correction
    Grimme S.; Ehrlich S.; Goerigk L. (2011), J. Comput. Chem., 32: 1456
    Parametrisation from:    S. Kozuch, J.M.L. Martin, J. Comp. Chem., 34, 2327-2344, 2013

        s6 =       0.570000
        s8 =       0.000000
        a1 =       0.000000
        a2 =       5.400000

   => Loading Basis Set <=

    Name: (AUG-CC-PV(Q+D)Z AUX)
    Role: JKFIT
    Keyword: DF_BASIS_SCF
    atoms 1-2 entry O          line   318 file /work/zw18965/.conda/envs/p4env/share/psi4/basis/aug-cc-pvqz-jkfit.gbs 
    atoms 3   entry C          line   178 file /work/zw18965/.conda/envs/p4env/share/psi4/basis/aug-cc-pvqz-jkfit.gbs 

  ==> Pre-Iterations <==

   -------------------------------------------------------
    Irrep   Nso     Nmo     Nalpha   Nbeta   Ndocc  Nsocc
   -------------------------------------------------------
     Ag        51      51       0       0       0       0
     B1g       27      27       0       0       0       0
     B2g       27      27       0       0       0       0
     B3g       19      19       0       0       0       0
     Au        14      14       0       0       0       0
     B1u       30      30       0       0       0       0
     B2u       30      30       0       0       0       0
     B3u       42      42       0       0       0       0
   -------------------------------------------------------
    Total     240     240      11      11      11       0
   -------------------------------------------------------

  ==> Integral Setup <==

  DFHelper Memory: AOs need 0.208 GiB; user supplied 100.176 GiB. Using in-core AOs.

  ==> MemDFJK: Density-Fitted J/K Matrices <==

    J tasked:                   Yes
    K tasked:                   Yes
    wK tasked:                   No
    OpenMP threads:              24
    Memory [MiB]:            102580
    Algorithm:                 Core
    Schwarz Cutoff:           1E-12
    Mask sparsity (%):       0.4618
    Fitting Condition:        1E-10

   => Auxiliary Basis Set <=

  Basis Set: (AUG-CC-PV(Q+D)Z AUX)
    Blend: AUG-CC-PVQZ-JKFIT
    Number of shells: 102
    Number of basis function: 426
    Number of Cartesian functions: 594
    Spherical Harmonics?: true
    Max angular momentum: 5

  Cached 100.0% of DFT collocation blocks in 0.406 [GiB].

  Minimum eigenvalue in the overlap matrix is 4.4505499861E-05.
  Using Symmetric Orthogonalization.

  SCF Guess: Superposition of Atomic Densities via on-the-fly atomic UHF.

  ==> Iterations <==

                           Total Energy        Delta E     RMS |[F,P]|

   @DF-RKS iter SAD:  -187.52408053283304   -1.87524e+02   0.00000e+00 
   @DF-RKS iter   1:  -188.09449820762160   -5.70418e-01   6.03762e-03 DIIS
   @DF-RKS iter   2:  -188.10297461506383   -8.47641e-03   5.75443e-03 DIIS
   @DF-RKS iter   3:  -188.18619560557673   -8.32210e-02   2.58104e-04 DIIS
   @DF-RKS iter   4:  -188.18638860027994   -1.92995e-04   5.43927e-05 DIIS
   @DF-RKS iter   5:  -188.18640082276326   -1.22225e-05   1.08191e-05 DIIS
   @DF-RKS iter   6:  -188.18640121116582   -3.88403e-07   1.90577e-06 DIIS
   @DF-RKS iter   7:  -188.18640122681072   -1.56449e-08   1.85037e-07 DIIS
   @DF-RKS iter   8:  -188.18640122709820   -2.87486e-10   2.61802e-08 DIIS
   @DF-RKS iter   9:  -188.18640122710366   -5.45697e-12   2.34243e-09 DIIS
  Energy and wave function converged.


  ==> Post-Iterations <==

    Orbital Energies [Eh]
    ---------------------

    Doubly Occupied:                                                      

       1B3u  -20.133017     1Ag   -20.132978     2Ag   -11.061875  
       3Ag    -1.415072     2B3u   -1.366499     4Ag    -0.719725  
       3B3u   -0.673041     1B1u   -0.659896     1B2u   -0.659896  
       1B2g   -0.490175     1B1g   -0.490175  

    Virtual:                                                              

       5Ag     0.022491     2B2u    0.053448     2B1u    0.053448  
       4B3u    0.057673     6Ag     0.114429     2B2g    0.121146  
       2B1g    0.121146     3B1u    0.145465     3B2u    0.145465  
       7Ag     0.151402     5B3u    0.179759     4B2u    0.185048  
       4B1u    0.185048     1B3g    0.190507     8Ag     0.190507  
       6B3u    0.226640     5B1u    0.324754     5B2u    0.324754  
       9Ag     0.328927     3B2g    0.350198     3B1g    0.350198  
      10Ag     0.376534     7B3u    0.426550     1Au     0.426550  
       8B3u    0.465888    11Ag     0.531839     2B3g    0.537455  
      12Ag     0.537455     4B1g    0.561932     4B2g    0.561932  
       6B2u    0.587109     6B1u    0.587109     9B3u    0.605145  
      13Ag     0.664896     7B2u    0.684234     7B1u    0.684234  
      14Ag     0.740512     3B3g    0.740512    10B3u    0.781439  
       8B1u    0.802731     8B2u    0.802731    15Ag     0.844370  
       5B1g    0.862689     5B2g    0.862689     2Au     0.913443  
      11B3u    0.913443    12B3u    0.978268     9B1u    1.075249  
       9B2u    1.075249     6B1g    1.141173     6B2g    1.141173  
      13B3u    1.169590    16Ag     1.269098     7B1g    1.273739  
       7B2g    1.273739     3Au     1.437597    14B3u    1.437597  
      17Ag     1.456096    10B1u    1.495748    10B2u    1.495748  
      18Ag     1.503045     4B3g    1.503046    11B2u    1.523935  
      11B1u    1.523935    19Ag     1.575393     5B3g    1.575393  
       8B1g    1.589043     8B2g    1.589043    20Ag     1.595497  
      15B3u    1.635672    16B3u    1.640029    21Ag     1.828156  
       9B1g    1.850380     9B2g    1.850380     4Au     1.855804  
      17B3u    1.855805    12B2u    1.861055    12B1u    1.861055  
      18B3u    1.878660    22Ag     2.003427     6B3g    2.003427  
      13B1u    2.142621    13B2u    2.142621    23Ag     2.163613  
       7B3g    2.163613    14B2u    2.204111    14B1u    2.204111  
      10B1g    2.443296    10B2g    2.443296    11B1g    2.471183  
      11B2g    2.471183    15B2u    2.631725    15B1u    2.631725  
      19B3u    2.639759    24Ag     2.740388     5Au     2.848880  
      20B3u    2.848880    25Ag     2.978900     8B3g    3.071658  
      26Ag     3.071659    12B1g    3.118818    12B2g    3.118818  
      21B3u    3.327299    27Ag     3.470269    22B3u    3.519381  
       6Au     3.519383    13B1g    3.631608    13B2g    3.631608  
      28Ag     3.740477     9B3g    3.740479    14B1g    3.898056  
      14B2g    3.898056    29Ag     3.918476    23B3u    3.940989  
      16B2u    3.956888    16B1u    3.956888    24B3u    4.001510  
       7Au     4.001511    17B2u    4.041367    17B1u    4.041367  
      18B2u    4.110552    18B1u    4.110552    19B2u    4.135660  
      19B1u    4.135660    10B3g    4.174181    30Ag     4.174182  
      15B1g    4.232453    15B2g    4.232453    31Ag     4.238236  
      32Ag     4.478962    11B3g    4.478963     8Au     4.483330  
      25B3u    4.483331    26B3u    4.549547    20B2u    4.583758  
      20B1u    4.583758    16B1g    4.663884    16B2g    4.663884  
      33Ag     4.674252    17B1g    4.731332    17B2g    4.731332  
      12B3g    4.827486    34Ag     4.827486    27B3u    4.868506  
       9Au     5.378948    28B3u    5.378948    21B2u    5.542554  
      21B1u    5.542554    29B3u    5.676594    35Ag     5.726906  
      13B3g    5.726908    36Ag     5.808659    18B1g    5.912659  
      18B2g    5.912659    37Ag     6.029515    19B1g    6.125279  
      19B2g    6.125279    22B2u    6.242974    22B1u    6.242974  
      30B3u    6.287741    23B2u    6.410573    23B1u    6.410573  
      14B3g    6.555741    38Ag     6.555745    10Au     6.919301  
      31B3u    6.919301    32B3u    7.027352    20B1g    7.137717  
      20B2g    7.137717    39Ag     7.648869    15B3g    7.876219  
      40Ag     7.876220    24B2u    8.507446    24B1u    8.507446  
      41Ag     9.006055    21B1g    9.036063    21B2g    9.036063  
      33B3u   10.306494    34B3u   10.400010    11Au    10.400048  
      42Ag    10.489607    16B3g   10.489646    25B2u   10.615867  
      25B1u   10.615867    22B1g   10.882473    22B2g   10.882473  
      35B3u   10.930699    12Au    10.930699    23B1g   10.940800  
      23B2g   10.940800    36B3u   11.157122    24B1g   11.166198  
      24B2g   11.166198    26B2u   11.193038    26B1u   11.193038  
      17B3g   11.242033    43Ag    11.242034    27B2u   11.394351  
      27B1u   11.394351    44Ag    11.560334    28B2u   11.705049  
      28B1u   11.705049    25B1g   11.712791    25B2g   11.712791  
      37B3u   11.914631    38B3u   12.237853    13Au    12.237857  
      18B3g   12.261869    45Ag    12.261871    46Ag    12.323371  
      29B2u   12.369884    29B1u   12.369884    14Au    12.835633  
      39B3u   12.835655    19B3g   12.947411    47Ag    12.947427  
      26B1g   13.030331    26B2g   13.030331    40B3u   13.749477  
      48Ag    13.958845    30B2u   14.099269    30B1u   14.099269  
      49Ag    14.693861    27B1g   15.891434    27B2g   15.891434  
      41B3u   16.781095    50Ag    26.700669    42B3u   43.061250  
      51Ag    44.028760  

    Final Occupation by Irrep:
             Ag   B1g   B2g   B3g    Au   B1u   B2u   B3u 
    DOCC [     4,    1,    1,    0,    0,    1,    1,    3 ]

  @DF-RKS Final Energy:  -188.18640122710366

   => Energetics <=

    Nuclear Repulsion Energy =             59.3683313919590674
    One-Electron Energy =                -374.6435579650473073
    Two-Electron Energy =                 133.8387533115837584
    DFT Exchange-Correlation Energy =      -6.7488276055991800
    Empirical Dispersion Energy =          -0.0011003600000000
    VV10 Nonlocal Energy =                  0.0000000000000000
    Total Energy =                       -188.1864012271036586

Computation Completed


Properties will be evaluated at   0.000000,   0.000000,   0.000000 [a0]

Properties computed using the SCF density matrix

  Nuclear Dipole Moment: [e a0]
     X:     0.0000      Y:    -0.0000      Z:     0.0000

  Electronic Dipole Moment: [e a0]
     X:     0.0000      Y:     0.0000      Z:     0.0000

  Dipole Moment: [e a0]
     X:     0.0000      Y:    -0.0000      Z:     0.0000     Total:     0.0000

  Dipole Moment: [D]
     X:     0.0000      Y:    -0.0000      Z:     0.0000     Total:     0.0000


*** tstop() called on bp1-compute00149.data.bp.acrc.priv at Mon Apr 19 15:42:37 2021
Module time:
	user time   =      52.34 seconds =       0.87 minutes
	system time =       2.32 seconds =       0.04 minutes
	total time  =          2 seconds =       0.03 minutes
Total time:
	user time   =     114.86 seconds =       1.91 minutes
	system time =       5.96 seconds =       0.10 minutes
	total time  =          6 seconds =       0.10 minutes

*** tstart() called on bp1-compute00149.data.bp.acrc.priv
*** at Mon Apr 19 15:42:37 2021

   => Loading Basis Set <=

    Name: (AUG-CC-PV(Q+D)Z AUX)
    Role: RIFIT
    Keyword: DF_BASIS_MP2
    atoms 1-2 entry O          line   332 file /work/zw18965/.conda/envs/p4env/share/psi4/basis/aug-cc-pvqz-ri.gbs 
    atoms 3   entry C          line   184 file /work/zw18965/.conda/envs/p4env/share/psi4/basis/aug-cc-pvqz-ri.gbs 

	 --------------------------------------------------------
	                          DF-MP2                         
	      2nd-Order Density-Fitted Moller-Plesset Theory     
	              RMP2 Wavefunction,  24 Threads             
	                                                         
	        Rob Parrish, Justin Turney, Andy Simmonett,      
	           Ed Hohenstein, and C. David Sherrill          
	 --------------------------------------------------------

   => Auxiliary Basis Set <=

  Basis Set: (AUG-CC-PV(Q+D)Z AUX)
    Blend: AUG-CC-PVQZ-RI
    Number of shells: 108
    Number of basis function: 504
    Number of Cartesian functions: 711
    Spherical Harmonics?: true
    Max angular momentum: 5

	 --------------------------------------------------------
	                 NBF =   240, NAUX =   504
	 --------------------------------------------------------
	   CLASS    FOCC     OCC    AOCC    AVIR     VIR    FVIR
	   PAIRS       0      11      11     229     229       0
	 --------------------------------------------------------

	-----------------------------------------------------------
	 ==================> DF-MP2 Energies <==================== 
	-----------------------------------------------------------
	 Reference Energy          =    -188.1864012271036586 [Eh]
	 Singles Energy            =      -0.0000000000000000 [Eh]
	 Same-Spin Energy          =      -0.2044108420559167 [Eh]
	 Opposite-Spin Energy      =      -0.6120166048236759 [Eh]
	 Correlation Energy        =      -0.8164274468795927 [Eh]
	 Total Energy              =    -189.0028286739832595 [Eh]
	-----------------------------------------------------------
	 ================> DF-SCS-MP2 Energies <================== 
	-----------------------------------------------------------
	 SCS Same-Spin Scale       =       0.4000000000000000 [-]
	 SCS Opposite-Spin Scale   =       0.4700000000000000 [-]
	 SCS Same-Spin Energy      =      -0.0817643368223667 [Eh]
	 SCS Opposite-Spin Energy  =      -0.2876478042671277 [Eh]
	 SCS Correlation Energy    =      -0.3694121410894943 [Eh]
	 SCS Total Energy          =    -188.5558133681931565 [Eh]
	-----------------------------------------------------------



    DSD-BLYP-D3BJ Energy Summary
    ----------------------------
    DFT Reference Energy                  =  -188.1864012271036586
    Scaled MP2 Correlation                =    -0.3694121410894943
    @Final double-hybrid DFT total energy =  -188.5558133681931565


*** tstop() called on bp1-compute00149.data.bp.acrc.priv at Mon Apr 19 15:42:38 2021
Module time:
	user time   =      12.10 seconds =       0.20 minutes
	system time =       0.52 seconds =       0.01 minutes
	total time  =          1 seconds =       0.02 minutes
Total time:
	user time   =     126.98 seconds =       2.12 minutes
	system time =       6.48 seconds =       0.11 minutes
	total time  =          7 seconds =       0.12 minutes

  //>>>>>>>>>>>>>>>>>>>>>>>>>>>>>>>>>>>//
  //    Loading displacement 3 of 3    //
  //<<<<<<<<<<<<<<<<<<<<<<<<<<<<<<<<<<<//

*** tstart() called on bp1-compute00149.data.bp.acrc.priv
*** at Mon Apr 19 15:42:38 2021

   => Loading Basis Set <=

    Name: AUG-CC-PV(Q+D)Z
    Role: ORBITAL
    Keyword: BASIS
    atoms 1-2 entry O          line   439 file /work/zw18965/.conda/envs/p4env/share/psi4/basis/aug-cc-pv_qpd_z.gbs 
    atoms 3   entry C          line   319 file /work/zw18965/.conda/envs/p4env/share/psi4/basis/aug-cc-pv_qpd_z.gbs 


         ---------------------------------------------------------
                                   SCF
               by Justin Turney, Rob Parrish, Andy Simmonett
                          and Daniel G. A. Smith
                              RKS Reference
                       24 Threads, 137329 MiB Core
         ---------------------------------------------------------

  ==> Geometry <==

    Molecular point group: d2h
    Full point group: D_inf_h

    Geometry (in Angstrom), charge = 0, multiplicity = 1:

       Center              X                  Y                   Z               Mass       
    ------------   -----------------  -----------------  -----------------  -----------------
         O           -1.139987190711    -0.000000000000     0.000000000000    15.994914619570
         O            1.139987190711     0.000000000000     0.000000000000    15.994914619570
         C            0.000000000000    -0.000000000000     0.000000000000    12.000000000000

  Running in d2h symmetry.

  Rotational constants: A = ************  B =      0.40549  C =      0.40549 [cm^-1]
  Rotational constants: A = ************  B =  12156.40987  C =  12156.40987 [MHz]
  Nuclear repulsion =   59.417056189493316

  Charge       = 0
  Multiplicity = 1
  Electrons    = 22
  Nalpha       = 11
  Nbeta        = 11

  ==> Algorithm <==

  SCF Algorithm Type is DF.
  DIIS enabled.
  MOM disabled.
  Fractional occupation disabled.
  Guess Type is SAD.
  Energy threshold   = 1.00e-08
  Density threshold  = 1.00e-08
  Integral threshold = 0.00e+00

  ==> Primary Basis <==

  Basis Set: AUG-CC-PV(Q+D)Z
    Blend: AUG-CC-PV(Q+D)Z
    Number of shells: 60
    Number of basis function: 240
    Number of Cartesian functions: 315
    Spherical Harmonics?: true
    Max angular momentum: 4

  ==> DFT Potential <==

   => Composite Functional: DSD-BLYP-D3BJ <= 

    DSD-BLYP-D3BJ Dispersion-corrected SCS Double Hybrid XC Functional

    S. Kozuch, J.M.L. Martin, J. Comp. Chem., 34, 2327-2344, 2013


    Deriv               =              1
    GGA                 =           TRUE
    Meta                =          FALSE

    Exchange Hybrid     =           TRUE
    MP2 Hybrid          =           TRUE

   => Exchange Functionals <=

    0.2900     XC_GGA_X_B88

   => Exact (HF) Exchange <=

    0.7100               HF 

   => Correlation Functionals <=

    0.5400     XC_GGA_C_LYP

   => MP2 Correlation <=

    MP2 SCS Hybrid      =           TRUE
    MP2 OS Alpha        =       0.470000
    MP2 SS Alpha        =       0.400000

   => Molecular Quadrature <=

    Radial Scheme          =       TREUTLER
    Pruning Scheme         =           FLAT
    Nuclear Scheme         =       TREUTLER

    BS radius alpha        =              1
    Pruning alpha          =              1
    Radial Points          =             75
    Spherical Points       =            302
    Total Points           =          67950
    Total Blocks           =            579
    Max Points             =            256
    Max Functions          =            240

   => DSD-BLYP-D3BJ: Empirical Dispersion <=

    Grimme's -D3 (BJ-damping) Dispersion Correction
    Grimme S.; Ehrlich S.; Goerigk L. (2011), J. Comput. Chem., 32: 1456
    Parametrisation from:    S. Kozuch, J.M.L. Martin, J. Comp. Chem., 34, 2327-2344, 2013

        s6 =       0.570000
        s8 =       0.000000
        a1 =       0.000000
        a2 =       5.400000

   => Loading Basis Set <=

    Name: (AUG-CC-PV(Q+D)Z AUX)
    Role: JKFIT
    Keyword: DF_BASIS_SCF
    atoms 1-2 entry O          line   318 file /work/zw18965/.conda/envs/p4env/share/psi4/basis/aug-cc-pvqz-jkfit.gbs 
    atoms 3   entry C          line   178 file /work/zw18965/.conda/envs/p4env/share/psi4/basis/aug-cc-pvqz-jkfit.gbs 

  ==> Pre-Iterations <==

   -------------------------------------------------------
    Irrep   Nso     Nmo     Nalpha   Nbeta   Ndocc  Nsocc
   -------------------------------------------------------
     Ag        51      51       0       0       0       0
     B1g       27      27       0       0       0       0
     B2g       27      27       0       0       0       0
     B3g       19      19       0       0       0       0
     Au        14      14       0       0       0       0
     B1u       30      30       0       0       0       0
     B2u       30      30       0       0       0       0
     B3u       42      42       0       0       0       0
   -------------------------------------------------------
    Total     240     240      11      11      11       0
   -------------------------------------------------------

  ==> Integral Setup <==

  DFHelper Memory: AOs need 0.208 GiB; user supplied 100.176 GiB. Using in-core AOs.

  ==> MemDFJK: Density-Fitted J/K Matrices <==

    J tasked:                   Yes
    K tasked:                   Yes
    wK tasked:                   No
    OpenMP threads:              24
    Memory [MiB]:            102580
    Algorithm:                 Core
    Schwarz Cutoff:           1E-12
    Mask sparsity (%):       0.4618
    Fitting Condition:        1E-10

   => Auxiliary Basis Set <=

  Basis Set: (AUG-CC-PV(Q+D)Z AUX)
    Blend: AUG-CC-PVQZ-JKFIT
    Number of shells: 102
    Number of basis function: 426
    Number of Cartesian functions: 594
    Spherical Harmonics?: true
    Max angular momentum: 5

  Cached 100.0% of DFT collocation blocks in 0.406 [GiB].

  Minimum eigenvalue in the overlap matrix is 4.4342057742E-05.
  Using Symmetric Orthogonalization.

  SCF Guess: Superposition of Atomic Densities via on-the-fly atomic UHF.

  ==> Iterations <==

                           Total Energy        Delta E     RMS |[F,P]|

   @DF-RKS iter SAD:  -187.52777715780491   -1.87528e+02   0.00000e+00 
   @DF-RKS iter   1:  -188.09462876015098   -5.66852e-01   6.03583e-03 DIIS
   @DF-RKS iter   2:  -188.10345834425746   -8.82958e-03   5.74020e-03 DIIS
   @DF-RKS iter   3:  -188.18619613588780   -8.27378e-02   2.58413e-04 DIIS
   @DF-RKS iter   4:  -188.18638936782193   -1.93232e-04   5.43268e-05 DIIS
   @DF-RKS iter   5:  -188.18640154026033   -1.21724e-05   1.07308e-05 DIIS
   @DF-RKS iter   6:  -188.18640192143596   -3.81176e-07   1.88494e-06 DIIS
   @DF-RKS iter   7:  -188.18640193667409   -1.52381e-08   1.82836e-07 DIIS
   @DF-RKS iter   8:  -188.18640193695347   -2.79385e-10   2.59088e-08 DIIS
   @DF-RKS iter   9:  -188.18640193695902   -5.54223e-12   2.33476e-09 DIIS
  Energy and wave function converged.


  ==> Post-Iterations <==

    Orbital Energies [Eh]
    ---------------------

    Doubly Occupied:                                                      

       1B3u  -20.132769     1Ag   -20.132730     2Ag   -11.061367  
       3Ag    -1.415554     2B3u   -1.366992     4Ag    -0.719585  
       3B3u   -0.673148     1B1u   -0.660285     1B2u   -0.660285  
       1B2g   -0.490221     1B1g   -0.490221  

    Virtual:                                                              

       5Ag     0.022530     2B2u    0.053436     2B1u    0.053436  
       4B3u    0.057673     6Ag     0.114446     2B1g    0.121146  
       2B2g    0.121146     3B2u    0.146101     3B1u    0.146101  
       7Ag     0.151514     5B3u    0.179772     4B2u    0.185065  
       4B1u    0.185065     1B3g    0.190506     8Ag     0.190507  
       6B3u    0.226625     5B2u    0.324877     5B1u    0.324877  
       9Ag     0.329023     3B1g    0.350187     3B2g    0.350187  
      10Ag     0.377071     7B3u    0.426520     1Au     0.426520  
       8B3u    0.465920    11Ag     0.532097     2B3g    0.537400  
      12Ag     0.537400     4B2g    0.562103     4B1g    0.562103  
       6B1u    0.586943     6B2u    0.586943     9B3u    0.605044  
      13Ag     0.665327     7B1u    0.684232     7B2u    0.684232  
      14Ag     0.740552     3B3g    0.740552    10B3u    0.781677  
       8B2u    0.802765     8B1u    0.802765    15Ag     0.844481  
       5B2g    0.862532     5B1g    0.862532     2Au     0.913522  
      11B3u    0.913522    12B3u    0.978058     9B1u    1.075354  
       9B2u    1.075354     6B1g    1.142041     6B2g    1.142041  
      13B3u    1.171945    16Ag     1.269121     7B1g    1.273727  
       7B2g    1.273727     3Au     1.437601    14B3u    1.437601  
      17Ag     1.456596    10B2u    1.495852    10B1u    1.495852  
      18Ag     1.503127     4B3g    1.503127    11B1u    1.524223  
      11B2u    1.524223    19Ag     1.575047     5B3g    1.575048  
       8B1g    1.589024     8B2g    1.589024    20Ag     1.595730  
      15B3u    1.635470    16B3u    1.640703    21Ag     1.828106  
       9B1g    1.850423     9B2g    1.850423     4Au     1.855927  
      17B3u    1.855928    12B2u    1.860319    12B1u    1.860319  
      18B3u    1.878739    22Ag     2.003466     6B3g    2.003466  
      13B1u    2.142817    13B2u    2.142817    23Ag     2.164573  
       7B3g    2.164573    14B1u    2.205496    14B2u    2.205496  
      10B1g    2.443707    10B2g    2.443707    11B2g    2.470672  
      11B1g    2.470672    15B1u    2.633063    15B2u    2.633063  
      19B3u    2.639970    24Ag     2.741615     5Au     2.849830  
      20B3u    2.849830    25Ag     2.979358     8B3g    3.071932  
      26Ag     3.071933    12B1g    3.120074    12B2g    3.120074  
      21B3u    3.326295    27Ag     3.471785    22B3u    3.519365  
       6Au     3.519368    13B2g    3.631678    13B1g    3.631678  
      28Ag     3.741095     9B3g    3.741098    14B2g    3.897984  
      14B1g    3.897984    29Ag     3.918555    23B3u    3.941799  
      16B1u    3.957357    16B2u    3.957357    24B3u    4.001671  
       7Au     4.001672    17B1u    4.042419    17B2u    4.042419  
      18B1u    4.111276    18B2u    4.111276    19B1u    4.135424  
      19B2u    4.135424    10B3g    4.174227    30Ag     4.174228  
      15B2g    4.233935    15B1g    4.233935    31Ag     4.239675  
      32Ag     4.480034    11B3g    4.480034     8Au     4.483636  
      25B3u    4.483636    26B3u    4.550074    20B1u    4.584087  
      20B2u    4.584087    16B2g    4.665233    16B1g    4.665233  
      33Ag     4.676387    17B2g    4.728908    17B1g    4.728908  
      12B3g    4.827945    34Ag     4.827945    27B3u    4.871510  
       9Au     5.379804    28B3u    5.379805    21B1u    5.545637  
      21B2u    5.545637    29B3u    5.671865    35Ag     5.727002  
      13B3g    5.727004    36Ag     5.810984    18B2g    5.914935  
      18B1g    5.914935    37Ag     6.027293    19B2g    6.127147  
      19B1g    6.127147    22B2u    6.243155    22B1u    6.243155  
      30B3u    6.293227    23B1u    6.412363    23B2u    6.412363  
      14B3g    6.557634    38Ag     6.557638    10Au     6.923242  
      31B3u    6.923242    32B3u    7.030572    20B1g    7.141273  
      20B2g    7.141273    39Ag     7.654633    15B3g    7.879988  
      40Ag     7.879988    24B1u    8.512790    24B2u    8.512790  
      41Ag     9.012722    21B2g    9.033003    21B1g    9.033003  
      33B3u   10.309654    34B3u   10.399994    11Au    10.400031  
      42Ag    10.489887    16B3g   10.489926    25B1u   10.616499  
      25B2u   10.616499    22B2g   10.883686    22B1g   10.883686  
      35B3u   10.931952    12Au    10.931952    23B2g   10.941715  
      23B1g   10.941715    36B3u   11.154836    24B1g   11.167804  
      24B2g   11.167804    26B1u   11.193984    26B2u   11.193984  
      17B3g   11.244184    43Ag    11.244184    27B1u   11.395356  
      27B2u   11.395356    44Ag    11.563407    28B1u   11.705268  
      28B2u   11.705268    25B2g   11.713589    25B1g   11.713589  
      37B3u   11.915606    38B3u   12.239945    13Au    12.239949  
      18B3g   12.260884    45Ag    12.260886    46Ag    12.325288  
      29B1u   12.369699    29B2u   12.369699    14Au    12.836483  
      39B3u   12.836505    19B3g   12.951872    47Ag    12.951887  
      26B2g   13.035620    26B1g   13.035620    40B3u   13.755404  
      48Ag    13.958488    30B1u   14.107627    30B2u   14.107627  
      49Ag    14.697109    27B2g   15.898097    27B1g   15.898097  
      41B3u   16.794015    50Ag    26.713012    42B3u   43.062430  
      51Ag    44.048291  

    Final Occupation by Irrep:
             Ag   B1g   B2g   B3g    Au   B1u   B2u   B3u 
    DOCC [     4,    1,    1,    0,    0,    1,    1,    3 ]

  @DF-RKS Final Energy:  -188.18640193695902

   => Energetics <=

    Nuclear Repulsion Energy =             59.4170561894933158
    One-Electron Energy =                -374.7389641544211258
    Two-Electron Energy =                 133.8860482709456221
    DFT Exchange-Correlation Energy =      -6.7494416329768345
    Empirical Dispersion Energy =          -0.0011006100000000
    VV10 Nonlocal Energy =                  0.0000000000000000
    Total Energy =                       -188.1864019369590153

Computation Completed


Properties will be evaluated at   0.000000,   0.000000,   0.000000 [a0]

Properties computed using the SCF density matrix

  Nuclear Dipole Moment: [e a0]
     X:     0.0000      Y:    -0.0000      Z:     0.0000

  Electronic Dipole Moment: [e a0]
     X:     0.0000      Y:     0.0000      Z:     0.0000

  Dipole Moment: [e a0]
     X:     0.0000      Y:    -0.0000      Z:     0.0000     Total:     0.0000

  Dipole Moment: [D]
     X:     0.0000      Y:    -0.0000      Z:     0.0000     Total:     0.0000


*** tstop() called on bp1-compute00149.data.bp.acrc.priv at Mon Apr 19 15:42:41 2021
Module time:
	user time   =      52.40 seconds =       0.87 minutes
	system time =       2.31 seconds =       0.04 minutes
	total time  =          3 seconds =       0.05 minutes
Total time:
	user time   =     179.53 seconds =       2.99 minutes
	system time =       8.80 seconds =       0.15 minutes
	total time  =         10 seconds =       0.17 minutes

*** tstart() called on bp1-compute00149.data.bp.acrc.priv
*** at Mon Apr 19 15:42:41 2021

   => Loading Basis Set <=

    Name: (AUG-CC-PV(Q+D)Z AUX)
    Role: RIFIT
    Keyword: DF_BASIS_MP2
    atoms 1-2 entry O          line   332 file /work/zw18965/.conda/envs/p4env/share/psi4/basis/aug-cc-pvqz-ri.gbs 
    atoms 3   entry C          line   184 file /work/zw18965/.conda/envs/p4env/share/psi4/basis/aug-cc-pvqz-ri.gbs 

	 --------------------------------------------------------
	                          DF-MP2                         
	      2nd-Order Density-Fitted Moller-Plesset Theory     
	              RMP2 Wavefunction,  24 Threads             
	                                                         
	        Rob Parrish, Justin Turney, Andy Simmonett,      
	           Ed Hohenstein, and C. David Sherrill          
	 --------------------------------------------------------

   => Auxiliary Basis Set <=

  Basis Set: (AUG-CC-PV(Q+D)Z AUX)
    Blend: AUG-CC-PVQZ-RI
    Number of shells: 108
    Number of basis function: 504
    Number of Cartesian functions: 711
    Spherical Harmonics?: true
    Max angular momentum: 5

	 --------------------------------------------------------
	                 NBF =   240, NAUX =   504
	 --------------------------------------------------------
	   CLASS    FOCC     OCC    AOCC    AVIR     VIR    FVIR
	   PAIRS       0      11      11     229     229       0
	 --------------------------------------------------------

	-----------------------------------------------------------
	 ==================> DF-MP2 Energies <==================== 
	-----------------------------------------------------------
	 Reference Energy          =    -188.1864019369590153 [Eh]
	 Singles Energy            =      -0.0000000000000000 [Eh]
	 Same-Spin Energy          =      -0.2043081146444210 [Eh]
	 Opposite-Spin Energy      =      -0.6117705759729538 [Eh]
	 Correlation Energy        =      -0.8160786906173748 [Eh]
	 Total Energy              =    -189.0024806275764035 [Eh]
	-----------------------------------------------------------
	 ================> DF-SCS-MP2 Energies <================== 
	-----------------------------------------------------------
	 SCS Same-Spin Scale       =       0.4000000000000000 [-]
	 SCS Opposite-Spin Scale   =       0.4700000000000000 [-]
	 SCS Same-Spin Energy      =      -0.0817232458577684 [Eh]
	 SCS Opposite-Spin Energy  =      -0.2875321707072883 [Eh]
	 SCS Correlation Energy    =      -0.3692554165650567 [Eh]
	 SCS Total Energy          =    -188.5556573535240830 [Eh]
	-----------------------------------------------------------



    DSD-BLYP-D3BJ Energy Summary
    ----------------------------
    DFT Reference Energy                  =  -188.1864019369590153
    Scaled MP2 Correlation                =    -0.3692554165650567
    @Final double-hybrid DFT total energy =  -188.5556573535240830


*** tstop() called on bp1-compute00149.data.bp.acrc.priv at Mon Apr 19 15:42:41 2021
Module time:
	user time   =      11.33 seconds =       0.19 minutes
	system time =       0.44 seconds =       0.01 minutes
	total time  =          0 seconds =       0.00 minutes
Total time:
	user time   =     190.87 seconds =       3.18 minutes
	system time =       9.25 seconds =       0.15 minutes
	total time  =         10 seconds =       0.17 minutes

         ----------------------------------------------------------
                                   FINDIF
                     R. A. King and Jonathon Misiewicz
         ---------------------------------------------------------

  Computing gradient from energies.
    Using 3-point formula.
    Energy without displacement: -188.5557363549
    Check energies below for precision!
    Forces are for mass-weighted, symmetry-adapted cartesians (in au).

     Coord      Energy(-1)        Energy(+1)            Force
        0   -188.5558133682   -188.5556573535      0.0156014669


-------------------------------------------------------------
  ## New Matrix (Symmetry 0) ##
  Irrep: 1 Size: 3 x 3

                 1                   2                   3

    1     0.04412059895130     0.00000000000000     0.00000000000000
    2    -0.04412059895130     0.00000000000000     0.00000000000000
    3     0.00000000000000     0.00000000000000     0.00000000000000




			-----------------------------------------
			 OPTKING 2.0: for geometry optimizations 
			  - R.A. King,  Bethel University        
			-----------------------------------------

	Internal coordinates to be generated automatically.
	Detected frag 1 with atoms:  1 2 3
	---Fragment 1 Bond Connectivity---
	 1 : 3
	 2 : 3
	 3 : 1 2

	---Fragment 1 Geometry and Gradient---
	 O          -2.1551476009       -0.0000000000        0.0000000000
	 O           2.1551476009        0.0000000000        0.0000000000
	 C           0.0000000000        0.0000000000        0.0000000000
	             0.0441205990        0.0000000000        0.0000000000
	            -0.0441205990        0.0000000000        0.0000000000
	             0.0000000000        0.0000000000        0.0000000000

	Previous optimization step data not found.  Starting new optimization.

	---Fragment 1 Intrafragment Coordinates---
	 - Coordinate -           - BOHR/RAD -       - ANG/DEG -
	 R(1,3)           =         2.155148	       1.140455
	 R(2,3)           =         2.155148	       1.140455
	 L(1,3,2)         =         3.141593	     180.000000
	 l(1,3,2)         =         3.141593	     180.000000

	Current energy   :      -188.5557363549

	Generating empirical Hessian (Schlegel '84) for each fragment.
	Taking RFO optimization step.
	Going to follow RFO solution 1.
	Using RFO vector 1.
	Norm of target step-size    0.04401
	Projected energy change by RFO approximation:        -0.0027410190

	Back-transformation to cartesian coordinates...
	Successfully converged to displaced geometry.

	--- Internal Coordinate Step in ANG or DEG, aJ/ANG or AJ/DEG ---
	 ---------------------------------------------------------------------------
	   Coordinate                Previous        Force       Change         New 
	   ----------                --------       ------       ------       ------
	    1 R(1,3)          =      1.140455     0.363497     0.016470     1.156925
	    2 R(2,3)          =      1.140455     0.363497     0.016470     1.156925
	    3 L(1,3,2)        =    180.000000    -0.000000     0.000000   180.000000
	    4 l(1,3,2)        =    180.000000    -0.000000     0.000000   180.000000
	 ---------------------------------------------------------------------------
	Successfully symmetrized geometry.

  ==> Convergence Check <==

  Measures of convergence in internal coordinates in au.
  Criteria marked as inactive (o), active & met (*), and active & unmet ( ).
  --------------------------------------------------------------------------------------------- ~
   Step     Total Energy     Delta E     MAX Force     RMS Force      MAX Disp      RMS Disp    ~
  --------------------------------------------------------------------------------------------- ~
    Convergence Criteria    1.00e-06 *    3.00e-04 *             o    1.20e-03 *             o  ~
  --------------------------------------------------------------------------------------------- ~
      1    -188.55573635   -1.89e+02      4.41e-02      3.12e-02 o    3.11e-02      2.20e-02 o  ~
  ---------------------------------------------------------------------------------------------

	Writing optimization data to binary file.
	Structure for next step:
	Cartesian Geometry (in Angstrom)
	    O    -1.1569245638  -0.0000000000   0.0000000000
	    O     1.1569245638   0.0000000000   0.0000000000
	    C     0.0000000000   0.0000000000   0.0000000000
			--------------------------
			 OPTKING Finished Execution 
			--------------------------

    Structure for next step:
    Molecular point group: d2h
    Full point group: D_inf_h

    Geometry (in Angstrom), charge = 0, multiplicity = 1:

    O           -1.156924568304    -0.000000000000     0.000000000000
    O            1.156924568304     0.000000000000     0.000000000000
    C            0.000000000000     0.000000000000     0.000000000000

gradient() will perform gradient computation by finite difference of analytic energies.

         ----------------------------------------------------------
                                   FINDIF
                     R. A. King and Jonathon Misiewicz
         ---------------------------------------------------------

  Using finite-differences of energies to determine gradients.
    Generating geometries for use with 3-point formula.
    Displacement size will be 5.00e-03.
    Number of atoms is 3.
    Number of symmetric SALCs is 1.
    Translations projected? 1. Rotations projected? 1.
    Number of geometries (including reference) is 3.

  //>>>>>>>>>>>>>>>>>>>>>>>>>>>>>>>>>>>//
  //    Loading displacement 1 of 3    //
  //<<<<<<<<<<<<<<<<<<<<<<<<<<<<<<<<<<<//

*** tstart() called on bp1-compute00149.data.bp.acrc.priv
*** at Mon Apr 19 15:42:41 2021

   => Loading Basis Set <=

    Name: AUG-CC-PV(Q+D)Z
    Role: ORBITAL
    Keyword: BASIS
    atoms 1-2 entry O          line   439 file /work/zw18965/.conda/envs/p4env/share/psi4/basis/aug-cc-pv_qpd_z.gbs 
    atoms 3   entry C          line   319 file /work/zw18965/.conda/envs/p4env/share/psi4/basis/aug-cc-pv_qpd_z.gbs 


         ---------------------------------------------------------
                                   SCF
               by Justin Turney, Rob Parrish, Andy Simmonett
                          and Daniel G. A. Smith
                              RKS Reference
                       24 Threads, 137329 MiB Core
         ---------------------------------------------------------

  ==> Geometry <==

    Molecular point group: d2h
    Full point group: D_inf_h

    Geometry (in Angstrom), charge = 0, multiplicity = 1:

       Center              X                  Y                   Z               Mass       
    ------------   -----------------  -----------------  -----------------  -----------------
         O           -1.156924568304    -0.000000000000     0.000000000000    15.994914619570
         O            1.156924568304     0.000000000000     0.000000000000    15.994914619570
         C            0.000000000000     0.000000000000     0.000000000000    12.000000000000

  Running in d2h symmetry.

  Rotational constants: A = ************  B =      0.39371  C =      0.39371 [cm^-1]
  Rotational constants: A = ************  B =  11803.07563  C =  11803.07563 [MHz]
  Nuclear repulsion =   58.547190388616478

  Charge       = 0
  Multiplicity = 1
  Electrons    = 22
  Nalpha       = 11
  Nbeta        = 11

  ==> Algorithm <==

  SCF Algorithm Type is DF.
  DIIS enabled.
  MOM disabled.
  Fractional occupation disabled.
  Guess Type is READ.
  Energy threshold   = 1.00e-08
  Density threshold  = 1.00e-08
  Integral threshold = 0.00e+00

  ==> Primary Basis <==

  Basis Set: AUG-CC-PV(Q+D)Z
    Blend: AUG-CC-PV(Q+D)Z
    Number of shells: 60
    Number of basis function: 240
    Number of Cartesian functions: 315
    Spherical Harmonics?: true
    Max angular momentum: 4

  ==> DFT Potential <==

   => Composite Functional: DSD-BLYP-D3BJ <= 

    DSD-BLYP-D3BJ Dispersion-corrected SCS Double Hybrid XC Functional

    S. Kozuch, J.M.L. Martin, J. Comp. Chem., 34, 2327-2344, 2013


    Deriv               =              1
    GGA                 =           TRUE
    Meta                =          FALSE

    Exchange Hybrid     =           TRUE
    MP2 Hybrid          =           TRUE

   => Exchange Functionals <=

    0.2900     XC_GGA_X_B88

   => Exact (HF) Exchange <=

    0.7100               HF 

   => Correlation Functionals <=

    0.5400     XC_GGA_C_LYP

   => MP2 Correlation <=

    MP2 SCS Hybrid      =           TRUE
    MP2 OS Alpha        =       0.470000
    MP2 SS Alpha        =       0.400000

   => Molecular Quadrature <=

    Radial Scheme          =       TREUTLER
    Pruning Scheme         =           FLAT
    Nuclear Scheme         =       TREUTLER

    BS radius alpha        =              1
    Pruning alpha          =              1
    Radial Points          =             75
    Spherical Points       =            302
    Total Points           =          67950
    Total Blocks           =            581
    Max Points             =            256
    Max Functions          =            240

   => DSD-BLYP-D3BJ: Empirical Dispersion <=

    Grimme's -D3 (BJ-damping) Dispersion Correction
    Grimme S.; Ehrlich S.; Goerigk L. (2011), J. Comput. Chem., 32: 1456
    Parametrisation from:    S. Kozuch, J.M.L. Martin, J. Comp. Chem., 34, 2327-2344, 2013

        s6 =       0.570000
        s8 =       0.000000
        a1 =       0.000000
        a2 =       5.400000

   => Loading Basis Set <=

    Name: (AUG-CC-PV(Q+D)Z AUX)
    Role: JKFIT
    Keyword: DF_BASIS_SCF
    atoms 1-2 entry O          line   318 file /work/zw18965/.conda/envs/p4env/share/psi4/basis/aug-cc-pvqz-jkfit.gbs 
    atoms 3   entry C          line   178 file /work/zw18965/.conda/envs/p4env/share/psi4/basis/aug-cc-pvqz-jkfit.gbs 

   => Loading Basis Set <=

    Name: AUG-CC-PV(Q+D)Z
    Role: ORBITAL
    Keyword: BASIS
    atoms 1-2 entry O          line   439 file /work/zw18965/.conda/envs/p4env/share/psi4/basis/aug-cc-pv_qpd_z.gbs 
    atoms 3   entry C          line   319 file /work/zw18965/.conda/envs/p4env/share/psi4/basis/aug-cc-pv_qpd_z.gbs 

  Reading orbitals from file 180, no projection.

  ==> Pre-Iterations <==

   -------------------------------------------------------
    Irrep   Nso     Nmo     Nalpha   Nbeta   Ndocc  Nsocc
   -------------------------------------------------------
     Ag        51      51       0       0       0       0
     B1g       27      27       0       0       0       0
     B2g       27      27       0       0       0       0
     B3g       19      19       0       0       0       0
     Au        14      14       0       0       0       0
     B1u       30      30       0       0       0       0
     B2u       30      30       0       0       0       0
     B3u       42      42       0       0       0       0
   -------------------------------------------------------
    Total     240     240      11      11      11       0
   -------------------------------------------------------

  ==> Integral Setup <==

  DFHelper Memory: AOs need 0.208 GiB; user supplied 100.177 GiB. Using in-core AOs.

  ==> MemDFJK: Density-Fitted J/K Matrices <==

    J tasked:                   Yes
    K tasked:                   Yes
    wK tasked:                   No
    OpenMP threads:              24
    Memory [MiB]:            102581
    Algorithm:                 Core
    Schwarz Cutoff:           1E-12
    Mask sparsity (%):       0.5000
    Fitting Condition:        1E-10

   => Auxiliary Basis Set <=

  Basis Set: (AUG-CC-PV(Q+D)Z AUX)
    Blend: AUG-CC-PVQZ-JKFIT
    Number of shells: 102
    Number of basis function: 426
    Number of Cartesian functions: 594
    Spherical Harmonics?: true
    Max angular momentum: 5

  Cached 100.0% of DFT collocation blocks in 0.406 [GiB].

  Minimum eigenvalue in the overlap matrix is 4.7423864341E-05.
  Using Symmetric Orthogonalization.

  SCF Guess: Orbitals guess was supplied from a previous computation.

  ==> Iterations <==

                           Total Energy        Delta E     RMS |[F,P]|

   @DF-RKS iter   0:  -188.16681003733245   -1.88167e+02   1.03204e-03 
   @DF-RKS iter   1:  -188.18509965889109   -1.82896e-02   1.42314e-04 DIIS
   @DF-RKS iter   2:  -188.18512375398953   -2.40951e-05   1.22759e-04 DIIS
   @DF-RKS iter   3:  -188.18516283234021   -3.90784e-05   1.55416e-05 DIIS
   @DF-RKS iter   4:  -188.18516373287463   -9.00534e-07   4.42510e-06 DIIS
   @DF-RKS iter   5:  -188.18516383308358   -1.00209e-07   9.85207e-07 DIIS
   @DF-RKS iter   6:  -188.18516383918819   -6.10461e-09   1.49592e-07 DIIS
   @DF-RKS iter   7:  -188.18516383928733   -9.91349e-11   2.57641e-08 DIIS
   @DF-RKS iter   8:  -188.18516383928977   -2.44427e-12   1.09967e-09 DIIS
  Energy and wave function converged.


  ==> Post-Iterations <==

    Orbital Energies [Eh]
    ---------------------

    Doubly Occupied:                                                      

       1B3u  -20.137170     1Ag   -20.137133     2Ag   -11.070486  
       3Ag    -1.406842     2B3u   -1.358150     4Ag    -0.722077  
       3B3u   -0.671147     1B1u   -0.653349     1B2u   -0.653349  
       1B1g   -0.489394     1B2g   -0.489394  

    Virtual:                                                              

       5Ag     0.021802     2B1u    0.053641     2B2u    0.053641  
       4B3u    0.057671     6Ag     0.114144     2B1g    0.121142  
       2B2g    0.121142     3B1u    0.134468     3B2u    0.134468  
       7Ag     0.149403     5B3u    0.179515     4B1u    0.184988  
       4B2u    0.184988     1B3g    0.190524     8Ag     0.190524  
       6B3u    0.226886     5B1u    0.322742     5B2u    0.322742  
       9Ag     0.326973     3B2g    0.350373     3B1g    0.350373  
      10Ag     0.367404     1Au     0.427095     7B3u    0.427095  
       8B3u    0.465326    11Ag     0.527525     2B3g    0.538370  
      12Ag     0.538370     4B1g    0.559007     4B2g    0.559007  
       6B2u    0.589978     6B1u    0.589978     9B3u    0.606694  
      13Ag     0.657927     7B1u    0.684250     7B2u    0.684250  
      14Ag     0.739789     3B3g    0.739789    10B3u    0.777375  
       8B2u    0.802123     8B1u    0.802123    15Ag     0.842685  
       5B2g    0.865244     5B1g    0.865244     2Au     0.912175  
      11B3u    0.912176    12B3u    0.981857     9B2u    1.073641  
       9B1u    1.073641     6B2g    1.126537     6B1g    1.126537  
      13B3u    1.129240    16Ag     1.268760     7B2g    1.273889  
       7B1g    1.273889     3Au     1.437566    14B3u    1.437566  
      17Ag     1.447690    10B2u    1.494252    10B1u    1.494252  
      18Ag     1.501766     4B3g    1.501766    11B1u    1.518992  
      11B2u    1.518992    19Ag     1.581161     5B3g    1.581162  
       8B1g    1.589455     8B2g    1.589455    20Ag     1.591543  
      15B3u    1.625210    16B3u    1.643620    21Ag     1.829383  
       9B2g    1.849071     9B1g    1.849071     4Au     1.853773  
      17B3u    1.853773    12B2u    1.873400    12B1u    1.873400  
      18B3u    1.877463     6B3g    2.002754    22Ag     2.002754  
      13B1u    2.139364    13B2u    2.139364    23Ag     2.147544  
       7B3g    2.147544    14B2u    2.180640    14B1u    2.180640  
      10B1g    2.436171    10B2g    2.436171    11B2g    2.480157  
      11B1g    2.480157    15B2u    2.609621    15B1u    2.609621  
      19B3u    2.634885    24Ag     2.718350     5Au     2.832269  
      20B3u    2.832269    25Ag     2.971456     8B3g    3.066746  
      26Ag     3.066747    12B1g    3.097460    12B2g    3.097460  
      21B3u    3.345960    27Ag     3.444839    22B3u    3.519716  
       6Au     3.519719    13B1g    3.629251    13B2g    3.629251  
      28Ag     3.730142     9B3g    3.730145    14B2g    3.899317  
      14B1g    3.899317    29Ag     3.917401    23B3u    3.926435  
      16B2u    3.948090    16B1u    3.948090     7Au     3.999516  
      24B3u    3.999516    17B1u    4.022055    17B2u    4.022055  
      18B1u    4.099898    18B2u    4.099898    19B2u    4.135508  
      19B1u    4.135508    10B3g    4.172451    30Ag     4.172452  
      15B2g    4.208506    15B1g    4.208506    31Ag     4.215266  
      32Ag     4.460155    11B3g    4.460155     8Au     4.478112  
      25B3u    4.478112    26B3u    4.539943    20B2u    4.584095  
      20B1u    4.584095    33Ag     4.639273    16B2g    4.640432  
      16B1g    4.640432    17B2g    4.771889    17B1g    4.771889  
      27B3u    4.814791    12B3g    4.822110    34Ag     4.822110  
       9Au     5.363148    28B3u    5.363148    21B2u    5.490064  
      21B1u    5.490064    35Ag     5.725278    13B3g    5.725280  
      29B3u    5.754982    36Ag     5.768571    18B1g    5.874052  
      18B2g    5.874052    37Ag     6.066927    19B1g    6.094667  
      19B2g    6.094667    30B3u    6.202134    22B2u    6.240048  
      22B1u    6.240048    23B2u    6.380244    23B1u    6.380244  
      14B3g    6.523574    38Ag     6.523579    10Au     6.854245  
      31B3u    6.854246    32B3u    6.973570    20B1g    7.078815  
      20B2g    7.078815    39Ag     7.551183    15B3g    7.811427  
      40Ag     7.811428    24B2u    8.417669    24B1u    8.417669  
      41Ag     8.897690    21B1g    9.077721    21B2g    9.077721  
      33B3u   10.242026    34B3u   10.400331    11Au    10.400375  
      42Ag    10.484969    16B3g   10.485015    25B2u   10.605310  
      25B1u   10.605310    22B1g   10.866951    22B2g   10.866951  
      12Au    10.911197    35B3u   10.911199    23B1g   10.925099  
      23B2g   10.925099    24B1g   11.145336    24B2g   11.145336  
      26B2u   11.176415    26B1u   11.176415    36B3u   11.196007  
      17B3g   11.203775    43Ag    11.203777    27B2u   11.370682  
      27B1u   11.370682    44Ag    11.506352    25B1g   11.699867  
      25B2g   11.699867    28B2u   11.701401    28B1u   11.701401  
      37B3u   11.902520    38B3u   12.202505    13Au    12.202509  
      18B3g   12.277713    45Ag    12.277715    46Ag    12.288774  
      29B2u   12.380097    29B1u   12.380097    14Au    12.820771  
      39B3u   12.820796    19B3g   12.876728    47Ag    12.876748  
      26B1g   12.942256    26B2g   12.942256    40B3u   13.653846  
      48Ag    13.944851    30B2u   13.959749    30B1u   13.959749  
      49Ag    14.661368    27B1g   15.766973    27B2g   15.766973  
      41B3u   16.555413    50Ag    26.487666    42B3u   43.043966  
      51Ag    43.705692  

    Final Occupation by Irrep:
             Ag   B1g   B2g   B3g    Au   B1u   B2u   B3u 
    DOCC [     4,    1,    1,    0,    0,    1,    1,    3 ]

  @DF-RKS Final Energy:  -188.18516383928977

   => Energetics <=

    Nuclear Repulsion Energy =             58.5471903886164782
    One-Electron Energy =                -373.0336797559602928
    Two-Electron Energy =                 133.0409542052326515
    DFT Exchange-Correlation Energy =      -6.7385326471785607
    Empirical Dispersion Energy =          -0.0010960300000000
    VV10 Nonlocal Energy =                  0.0000000000000000
    Total Energy =                       -188.1851638392897712

Computation Completed


Properties will be evaluated at   0.000000,   0.000000,   0.000000 [a0]

Properties computed using the SCF density matrix

  Nuclear Dipole Moment: [e a0]
     X:     0.0000      Y:     0.0000      Z:     0.0000

  Electronic Dipole Moment: [e a0]
     X:     0.0000      Y:     0.0000      Z:     0.0000

  Dipole Moment: [e a0]
     X:     0.0000      Y:     0.0000      Z:     0.0000     Total:     0.0000

  Dipole Moment: [D]
     X:     0.0000      Y:     0.0000      Z:     0.0000     Total:     0.0000


*** tstop() called on bp1-compute00149.data.bp.acrc.priv at Mon Apr 19 15:42:43 2021
Module time:
	user time   =      35.86 seconds =       0.60 minutes
	system time =       1.45 seconds =       0.02 minutes
	total time  =          2 seconds =       0.03 minutes
Total time:
	user time   =     227.08 seconds =       3.78 minutes
	system time =      10.71 seconds =       0.18 minutes
	total time  =         12 seconds =       0.20 minutes

*** tstart() called on bp1-compute00149.data.bp.acrc.priv
*** at Mon Apr 19 15:42:43 2021

   => Loading Basis Set <=

    Name: (AUG-CC-PV(Q+D)Z AUX)
    Role: RIFIT
    Keyword: DF_BASIS_MP2
    atoms 1-2 entry O          line   332 file /work/zw18965/.conda/envs/p4env/share/psi4/basis/aug-cc-pvqz-ri.gbs 
    atoms 3   entry C          line   184 file /work/zw18965/.conda/envs/p4env/share/psi4/basis/aug-cc-pvqz-ri.gbs 

	 --------------------------------------------------------
	                          DF-MP2                         
	      2nd-Order Density-Fitted Moller-Plesset Theory     
	              RMP2 Wavefunction,  24 Threads             
	                                                         
	        Rob Parrish, Justin Turney, Andy Simmonett,      
	           Ed Hohenstein, and C. David Sherrill          
	 --------------------------------------------------------

   => Auxiliary Basis Set <=

  Basis Set: (AUG-CC-PV(Q+D)Z AUX)
    Blend: AUG-CC-PVQZ-RI
    Number of shells: 108
    Number of basis function: 504
    Number of Cartesian functions: 711
    Spherical Harmonics?: true
    Max angular momentum: 5

	 --------------------------------------------------------
	                 NBF =   240, NAUX =   504
	 --------------------------------------------------------
	   CLASS    FOCC     OCC    AOCC    AVIR     VIR    FVIR
	   PAIRS       0      11      11     229     229       0
	 --------------------------------------------------------

	-----------------------------------------------------------
	 ==================> DF-MP2 Energies <==================== 
	-----------------------------------------------------------
	 Reference Energy          =    -188.1851638392897712 [Eh]
	 Singles Energy            =      -0.0000000000000000 [Eh]
	 Same-Spin Energy          =      -0.2061971287796836 [Eh]
	 Opposite-Spin Energy      =      -0.6162711398980658 [Eh]
	 Correlation Energy        =      -0.8224682686777494 [Eh]
	 Total Energy              =    -189.0076321079675097 [Eh]
	-----------------------------------------------------------
	 ================> DF-SCS-MP2 Energies <================== 
	-----------------------------------------------------------
	 SCS Same-Spin Scale       =       0.4000000000000000 [-]
	 SCS Opposite-Spin Scale   =       0.4700000000000000 [-]
	 SCS Same-Spin Energy      =      -0.0824788515118734 [Eh]
	 SCS Opposite-Spin Energy  =      -0.2896474357520909 [Eh]
	 SCS Correlation Energy    =      -0.3721262872639644 [Eh]
	 SCS Total Energy          =    -188.5572901265537382 [Eh]
	-----------------------------------------------------------



    DSD-BLYP-D3BJ Energy Summary
    ----------------------------
    DFT Reference Energy                  =  -188.1851638392897712
    Scaled MP2 Correlation                =    -0.3721262872639644
    @Final double-hybrid DFT total energy =  -188.5572901265537382


*** tstop() called on bp1-compute00149.data.bp.acrc.priv at Mon Apr 19 15:42:44 2021
Module time:
	user time   =      10.87 seconds =       0.18 minutes
	system time =       0.45 seconds =       0.01 minutes
	total time  =          1 seconds =       0.02 minutes
Total time:
	user time   =     237.96 seconds =       3.97 minutes
	system time =      11.16 seconds =       0.19 minutes
	total time  =         13 seconds =       0.22 minutes

  //>>>>>>>>>>>>>>>>>>>>>>>>>>>>>>>>>>>//
  //    Loading displacement 2 of 3    //
  //<<<<<<<<<<<<<<<<<<<<<<<<<<<<<<<<<<<//

*** tstart() called on bp1-compute00149.data.bp.acrc.priv
*** at Mon Apr 19 15:42:44 2021

   => Loading Basis Set <=

    Name: AUG-CC-PV(Q+D)Z
    Role: ORBITAL
    Keyword: BASIS
    atoms 1-2 entry O          line   439 file /work/zw18965/.conda/envs/p4env/share/psi4/basis/aug-cc-pv_qpd_z.gbs 
    atoms 3   entry C          line   319 file /work/zw18965/.conda/envs/p4env/share/psi4/basis/aug-cc-pv_qpd_z.gbs 


         ---------------------------------------------------------
                                   SCF
               by Justin Turney, Rob Parrish, Andy Simmonett
                          and Daniel G. A. Smith
                              RKS Reference
                       24 Threads, 137329 MiB Core
         ---------------------------------------------------------

  ==> Geometry <==

    Molecular point group: d2h
[...]

   @DF-RKS iter SAD:  -187.44961421983572   -1.87450e+02   0.00000e+00 
   @DF-RKS iter   1:  -188.08975074073425   -6.40137e-01   4.31825e-03 DIIS
   @DF-RKS iter   2:  -188.09056626532634   -8.15525e-04   4.30092e-03 DIIS
   @DF-RKS iter   3:  -188.18447147303610   -9.39052e-02   1.79100e-04 DIIS
   @DF-RKS iter   4:  -188.18466100345074   -1.89530e-04   4.00134e-05 DIIS
   @DF-RKS iter   5:  -188.18467447709170   -1.34736e-05   9.84539e-06 DIIS
   @DF-RKS iter   6:  -188.18467499948014   -5.22388e-07   5.14052e-06 DIIS
   @DF-RKS iter   7:  -188.18467514518883   -1.45709e-07   1.42291e-06 DIIS
   @DF-RKS iter   8:  -188.18467515967168   -1.44829e-08   1.04916e-07 DIIS
   @DF-RKS iter   9:  -188.18467515985631   -1.84627e-10   1.44218e-08 DIIS
   @DF-RKS iter  10:  -188.18467515985893   -2.61480e-12   1.14431e-09 DIIS
   @DF-RKS iter  11:  -188.18467515985901   -8.52651e-14   1.24095e-10 DIIS
   @DF-RKS iter  12:  -188.18467515985941   -3.97904e-13   3.84053e-11 DIIS
  Energy and wave function converged.


  ==> Post-Iterations <==

    Orbital Energies [Eh]
    ---------------------

    Doubly Occupied:                                                      

       1A1   -20.138167     2A1   -20.137681     3A1   -11.072106  
       4A1    -1.405293     5A1    -1.356568     6A1    -0.722518  
       7A1    -0.670768     1B2    -0.652129     1B1    -0.652129  
       2B2    -0.489245     2B1    -0.489245  

    Virtual:                                                              

       8A1     0.021666     3B2     0.053675     3B1     0.053675  
       9A1     0.057670    10A1     0.114090     4B2     0.121141  
       4B1     0.121141     5B1     0.132367     5B2     0.132367  
      11A1     0.149000    12A1     0.179466     6B1     0.185011  
       6B2     0.185011     1A2     0.190528    13A1     0.190528  
      14A1     0.226932     7B1     0.322380     7B2     0.322380  
      15A1     0.326514     8B2     0.350402     8B1     0.350402  
      16A1     0.365704     2A2     0.427202    17A1     0.427202  
      18A1     0.465217    19A1     0.526727     3A2     0.538538  
      20A1     0.538538     9B2     0.558449     9B1     0.558449  
      10B2     0.590527    10B1     0.590527    21A1     0.606952  
      22A1     0.656688    11B2     0.684251    11B1     0.684251  
      23A1     0.739642     4A2     0.739643    24A1     0.776603  
      12B1     0.802001    12B2     0.802001    25A1     0.842406  
      13B2     0.865703    13B1     0.865703     5A2     0.911950  
      26A1     0.911950    27A1     0.982532    14B2     1.073369  
      14B1     1.073369    28A1     1.121585    15B2     1.123798  
      15B1     1.123798    29A1     1.268708    16B2     1.273907  
      16B1     1.273907     6A2     1.437565    30A1     1.437565  
      31A1     1.446123    17B2     1.494029    17B1     1.494029  
      32A1     1.501548     7A2     1.501548    18B2     1.518047  
      18B1     1.518047    33A1     1.582225     8A2     1.582226  
      19B2     1.589548    19B1     1.589548    34A1     1.590794  
      35A1     1.622633    36A1     1.645122    37A1     1.829698  
      20B2     1.848703    20B1     1.848703     9A2     1.853402  
      38A1     1.853402    21B2     1.875694    21B1     1.875694  
      39A1     1.877261    10A2     2.002625    40A1     2.002626  
      22B2     2.138764    22B1     2.138764    41A1     2.144563  
      11A2     2.144563    23B2     2.176228    23B1     2.176228  
      24B1     2.434793    24B2     2.434793    25B2     2.481884  
      25B1     2.481884    26B2     2.605583    26B1     2.605583  
      42A1     2.633681    43A1     2.713941    12A2     2.829030  
      44A1     2.829030    45A1     2.970113    13A2     3.065763  
      46A1     3.065764    27B2     3.093421    27B1     3.093421  
      47A1     3.349828    48A1     3.440114    49A1     3.519796  
      14A2     3.519799    28B2     3.628586    28B1     3.628586  
      50A1     3.728225    15A2     3.728228    29B2     3.899560  
      29B1     3.899560    51A1     3.917256    52A1     3.923506  
      30B2     3.946240    30B1     3.946240    16A2     3.999291  
      53A1     3.999291    31B2     4.018157    31B1     4.018157  
      32B2     4.098179    32B1     4.098179    33B2     4.134610  
      33B1     4.134610    17A2     4.171931    54A1     4.171932  
      34B2     4.204238    34B1     4.204238    55A1     4.211245  
      56A1     4.456488    18A2     4.456488    19A2     4.477120  
      57A1     4.477120    58A1     4.538002    35B2     4.585389  
      35B1     4.585389    59A1     4.632928    36B1     4.635890  
      36B2     4.635890    37B2     4.779329    37B1     4.779329  
      60A1     4.804207    20A2     4.821583    61A1     4.821583  
      21A2     5.359887    62A1     5.359888    38B2     5.480131  
      38B1     5.480131    63A1     5.724972    22A2     5.724973  
      64A1     5.760673    65A1     5.768594    39B2     5.866782  
      39B1     5.866782    66A1     6.073880    40B2     6.089120  
      40B1     6.089120    67A1     6.188427    41B2     6.239524  
      41B1     6.239524    42B2     6.374539    42B1     6.374539  
      23A2     6.517503    68A1     6.517507    24A2     6.842368  
      69A1     6.842368    70A1     6.963590    43B2     7.068008  
      43B1     7.068008    71A1     7.532795    25A2     7.799034  
      72A1     7.799035    44B2     8.400917    44B1     8.400917  
      73A1     8.878370    45B2     9.083269    45B1     9.083269  
      74A1    10.227882    75A1    10.400398    26A2    10.400443  
      76A1    10.484121    27A2    10.484168    46B1    10.603352  
      46B2    10.603352    47B2    10.865029    47B1    10.865029  
      28A2    10.907877    77A1    10.907879    48B1    10.922101  
      48B2    10.922101    49B2    11.142773    49B1    11.142773  
      50B2    11.173154    50B1    11.173154    29A2    11.196252  
      78A1    11.196255    79A1    11.202936    51B2    11.364893  
      51B1    11.364893    80A1    11.495850    52B2    11.697554  
      52B1    11.697554    53B2    11.700734    53B1    11.700734  
      81A1    11.901058    82A1    12.195874    30A2    12.195878  
      31A2    12.280439    83A1    12.280441    84A1    12.281846  
      54B2    12.383457    54B1    12.383457    32A2    12.817871  
      85A1    12.817896    33A2    12.864484    86A1    12.864504  
      55B2    12.926014    55B1    12.926014    87A1    13.636885  
      56B2    13.933910    56B1    13.933910    88A1    13.937871  
      89A1    14.660008    57B2    15.741152    57B1    15.741152  
      90A1    16.511596    91A1    26.446789    92A1    43.041185  
      93A1    43.646824  

    Final Occupation by Irrep:
             A1    A2    B1    B2 
    DOCC [     7,    0,    2,    2 ]

  @DF-RKS Final Energy:  -188.18467515985941

   => Energetics <=

    Nuclear Repulsion Energy =             58.3934461032920709
    One-Electron Energy =                -372.7318328691661122
    Two-Electron Energy =                 132.8914237363810855
    DFT Exchange-Correlation Energy =      -6.7366169403664662
    Empirical Dispersion Energy =          -0.0010951900000000
    VV10 Nonlocal Energy =                  0.0000000000000000
    Total Energy =                       -188.1846751598594096

Computation Completed


Properties will be evaluated at   0.000000,   0.000000,   0.000000 [a0]

Properties computed using the SCF density matrix

  Nuclear Dipole Moment: [e a0]
     X:    -0.0000      Y:     0.0000      Z:     0.0000

  Electronic Dipole Moment: [e a0]
     X:     0.0048      Y:     0.0000      Z:     0.0000

  Dipole Moment: [e a0]
     X:     0.0048      Y:     0.0000      Z:     0.0000     Total:     0.0048

  Dipole Moment: [D]
     X:     0.0123      Y:     0.0000      Z:     0.0000     Total:     0.0123


*** tstop() called on bp1-compute00149.data.bp.acrc.priv at Mon Apr 19 15:43:34 2021
Module time:
	user time   =      55.38 seconds =       0.92 minutes
	system time =       1.99 seconds =       0.03 minutes
	total time  =          3 seconds =       0.05 minutes
Total time:
	user time   =    1169.96 seconds =      19.50 minutes
	system time =      50.16 seconds =       0.84 minutes
	total time  =         63 seconds =       1.05 minutes

*** tstart() called on bp1-compute00149.data.bp.acrc.priv
*** at Mon Apr 19 15:43:34 2021

   => Loading Basis Set <=

    Name: (AUG-CC-PV(Q+D)Z AUX)
    Role: RIFIT
    Keyword: DF_BASIS_MP2
    atoms 1-2 entry O          line   332 file /work/zw18965/.conda/envs/p4env/share/psi4/basis/aug-cc-pvqz-ri.gbs 
    atoms 3   entry C          line   184 file /work/zw18965/.conda/envs/p4env/share/psi4/basis/aug-cc-pvqz-ri.gbs 

	 --------------------------------------------------------
	                          DF-MP2                         
	      2nd-Order Density-Fitted Moller-Plesset Theory     
	              RMP2 Wavefunction,  24 Threads             
	                                                         
	        Rob Parrish, Justin Turney, Andy Simmonett,      
	           Ed Hohenstein, and C. David Sherrill          
	 --------------------------------------------------------

   => Auxiliary Basis Set <=

  Basis Set: (AUG-CC-PV(Q+D)Z AUX)
    Blend: AUG-CC-PVQZ-RI
    Number of shells: 108
    Number of basis function: 504
    Number of Cartesian functions: 711
    Spherical Harmonics?: true
    Max angular momentum: 5

	 --------------------------------------------------------
	                 NBF =   240, NAUX =   504
	 --------------------------------------------------------
	   CLASS    FOCC     OCC    AOCC    AVIR     VIR    FVIR
	   PAIRS       0      11      11     229     229       0
	 --------------------------------------------------------

	-----------------------------------------------------------
	 ==================> DF-MP2 Energies <==================== 
	-----------------------------------------------------------
	 Reference Energy          =    -188.1846751598594096 [Eh]
	 Singles Energy            =      -0.0000000000000000 [Eh]
	 Same-Spin Energy          =      -0.2065431503176301 [Eh]
	 Opposite-Spin Energy      =      -0.6170904626626651 [Eh]
	 Correlation Energy        =      -0.8236336129802951 [Eh]
	 Total Energy              =    -189.0083087728397118 [Eh]
	-----------------------------------------------------------
	 ================> DF-SCS-MP2 Energies <================== 
	-----------------------------------------------------------
	 SCS Same-Spin Scale       =       0.4000000000000000 [-]
	 SCS Opposite-Spin Scale   =       0.4700000000000000 [-]
	 SCS Same-Spin Energy      =      -0.0826172601270520 [Eh]
	 SCS Opposite-Spin Energy  =      -0.2900325174514526 [Eh]
	 SCS Correlation Energy    =      -0.3726497775785046 [Eh]
	 SCS Total Energy          =    -188.5573249374379259 [Eh]
	-----------------------------------------------------------



    DSD-BLYP-D3BJ Energy Summary
    ----------------------------
    DFT Reference Energy                  =  -188.1846751598594096
    Scaled MP2 Correlation                =    -0.3726497775785046
    @Final double-hybrid DFT total energy =  -188.5573249374379259


*** tstop() called on bp1-compute00149.data.bp.acrc.priv at Mon Apr 19 15:43:35 2021
Module time:
	user time   =      13.75 seconds =       0.23 minutes
	system time =       0.54 seconds =       0.01 minutes
	total time  =          1 seconds =       0.02 minutes
Total time:
	user time   =    1183.73 seconds =      19.73 minutes
	system time =      50.70 seconds =       0.85 minutes
	total time  =         64 seconds =       1.07 minutes

         ----------------------------------------------------------
                                   FINDIF
                     R. A. King and Jonathon Misiewicz
         ---------------------------------------------------------

  Computing second-derivative from energies using projected, 
  symmetry-adapted, cartesian coordinates.

  6 energies passed in, including the reference geometry.
    Using 3-point formula.
    Energy without displacement: -188.5573277009
    Check energies below for precision!
    0: -1 :      -188.5573268796
    0: 1  :      -188.5573267785
    1: -1 :      -188.5573274843
    2: -1 :      -188.5573274843
    3: -1 :      -188.5573249374

-------------------------------------------------------------


  ==> Harmonic Vibrational Analysis <==

  non-mass-weighted Hessian:       Symmetric? True   Hermitian? True   Lin Dep Dim?  5 (0)
  projection of translations (True) and rotations (True) removed 5 degrees of freedom (5)
  total projector:                 Symmetric? True   Hermitian? True   Lin Dep Dim?  5 (5)
  mass-weighted Hessian:           Symmetric? True   Hermitian? True   Lin Dep Dim?  5 (0)
  pre-proj  low-frequency mode:    0.0000i [cm^-1]
  pre-proj  low-frequency mode:    0.0000i [cm^-1]
  pre-proj  low-frequency mode:    0.0000  [cm^-1]
  pre-proj  low-frequency mode:    0.0000  [cm^-1]
  pre-proj  low-frequency mode:    0.0000  [cm^-1]
  pre-proj  all modes:['0.0000i' '0.0000i' '0.0000' '0.0000' '0.0000' '676.6767' '676.7099'
 '1357.6289' '2417.0136']
  projected mass-weighted Hessian: Symmetric? True   Hermitian? True   Lin Dep Dim?  5 (5)
  post-proj low-frequency mode:    0.0000i [cm^-1] (TR)
  post-proj low-frequency mode:    0.0000  [cm^-1] (TR)
  post-proj low-frequency mode:    0.0000  [cm^-1] (TR)
  post-proj low-frequency mode:    0.0000  [cm^-1] (TR)
  post-proj low-frequency mode:    0.0000  [cm^-1] (TR)
  post-proj  all modes:['0.0000i' '0.0000' '0.0000' '0.0000' '0.0000' '676.6767' '676.7099'
 '1357.6289' '2417.0136']

  Vibration                       6                   7                   8           
  Freq [cm^-1]                 676.6767            676.7099           1357.6289       
  Irrep                          B2u                 B1u                  Ag          
  Reduced mass [u]             12.8774             12.8774             15.9949        
  Force const [mDyne/A]         3.4741              3.4744             17.3698        
  Turning point v=0 [a0]        0.1175              0.1175              0.0745        
  RMS dev v=0 [a0 u^1/2]        0.2983              0.2983              0.2106        
  Char temp [K]                973.5871            973.6349           1953.3257       
  ----------------------------------------------------------------------------------
      1   O                0.00 -0.33  0.00    0.00 -0.00 -0.33    0.71  0.00  0.00   
      2   O                0.00 -0.33  0.00   -0.00 -0.00 -0.33   -0.71 -0.00 -0.00   
      3   C                0.00  0.88 -0.00    0.00  0.00  0.88    0.00  0.00  0.00   

  Vibration                       9           
  Freq [cm^-1]                2417.0136       
  Irrep                          B3u          
  Reduced mass [u]             12.8774        
  Force const [mDyne/A]        44.3236        
  Turning point v=0 [a0]        0.0622        
  RMS dev v=0 [a0 u^1/2]        0.1578        
  Char temp [K]               3477.5444       
  ----------------------------------------------------------------------------------
      1   O               -0.33  0.00 -0.00   
      2   O               -0.33  0.00 -0.00   
      3   C                0.88  0.00 -0.00   

  ==> Thermochemistry Components <==

  Entropy, S
    Electronic S            0.000 [cal/(mol K)]        0.000 [J/(mol K)]       0.00000000 [mEh/K] (multiplicity = 1)
    Translational S        37.270 [cal/(mol K)]      155.938 [J/(mol K)]       0.05939371 [mEh/K] (mol. weight = 43.9898 [u], P = 101325.00 [Pa])
    Rotational S           13.072 [cal/(mol K)]       54.693 [J/(mol K)]       0.02083147 [mEh/K] (symmetry no. = 2)
    Vibrational S           0.692 [cal/(mol K)]        2.893 [J/(mol K)]       0.00110203 [mEh/K]
  Total S                  51.034 [cal/(mol K)]      213.525 [J/(mol K)]       0.08132721 [mEh/K]
  Correction S              0.000 [cal/(mol K)]        0.000 [J/(mol K)]       0.00000000 [mEh/K]

  Constant volume heat capacity, Cv
    Electronic Cv           0.000 [cal/(mol K)]        0.000 [J/(mol K)]       0.00000000 [mEh/K]
    Translational Cv        2.981 [cal/(mol K)]       12.472 [J/(mol K)]       0.00475022 [mEh/K]
    Rotational Cv           1.987 [cal/(mol K)]        8.314 [J/(mol K)]       0.00316681 [mEh/K]
    Vibrational Cv          1.873 [cal/(mol K)]        7.839 [J/(mol K)]       0.00298558 [mEh/K]
  Total Cv                  6.841 [cal/(mol K)]       28.625 [J/(mol K)]       0.01090261 [mEh/K]
  Correction Cv             0.000 [cal/(mol K)]        0.000 [J/(mol K)]       0.00000000 [mEh/K]

  Constant pressure heat capacity, Cp
    Electronic Cp           0.000 [cal/(mol K)]        0.000 [J/(mol K)]       0.00000000 [mEh/K]
    Translational Cp        4.968 [cal/(mol K)]       20.786 [J/(mol K)]       0.00791703 [mEh/K]
    Rotational Cp           1.987 [cal/(mol K)]        8.314 [J/(mol K)]       0.00316681 [mEh/K]
    Vibrational Cp          1.873 [cal/(mol K)]        7.839 [J/(mol K)]       0.00298558 [mEh/K]
  Total Cp                  8.829 [cal/(mol K)]       36.939 [J/(mol K)]       0.01406942 [mEh/K]
  Correction Cp             0.000 [cal/(mol K)]        0.000 [J/(mol K)]       0.00000000 [mEh/K]

  ==> Thermochemistry Energy Analysis <==

  Raw electronic energy, E0
  Total E0, Electronic energy at well bottom at 0 [K]                 -188.55732770 [Eh]

  Zero-point energy, ZPE_vib = Sum_i nu_i / 2
    Electronic ZPE          0.000 [kcal/mol]        0.000 [kJ/mol]       0.00000000 [Eh]
    Translational ZPE       0.000 [kcal/mol]        0.000 [kJ/mol]       0.00000000 [Eh]
    Rotational ZPE          0.000 [kcal/mol]        0.000 [kJ/mol]       0.00000000 [Eh]
    Vibrational ZPE         7.331 [kcal/mol]       30.672 [kJ/mol]       0.01168251 [Eh]        2564.015 [cm^-1]
  Correction ZPE            7.331 [kcal/mol]       30.672 [kJ/mol]       0.01168251 [Eh]        2564.015 [cm^-1]
  Total ZPE, Electronic energy at 0 [K]                               -188.54564519 [Eh]

  Thermal Energy, E (includes ZPE)
    Electronic E            0.000 [kcal/mol]        0.000 [kJ/mol]       0.00000000 [Eh]
    Translational E         0.889 [kcal/mol]        3.718 [kJ/mol]       0.00141628 [Eh]
    Rotational E            0.592 [kcal/mol]        2.479 [kJ/mol]       0.00094418 [Eh]
    Vibrational E           7.490 [kcal/mol]       31.339 [kJ/mol]       0.01193622 [Eh]
  Correction E              8.971 [kcal/mol]       37.536 [kJ/mol]       0.01429668 [Eh]
  Total E, Electronic energy at  298.15 [K]                           -188.54303102 [Eh]

  Enthalpy, H_trans = E_trans + k_B * T
    Electronic H            0.000 [kcal/mol]        0.000 [kJ/mol]       0.00000000 [Eh]
    Translational H         1.481 [kcal/mol]        6.197 [kJ/mol]       0.00236046 [Eh]
    Rotational H            0.592 [kcal/mol]        2.479 [kJ/mol]       0.00094418 [Eh]
    Vibrational H           7.490 [kcal/mol]       31.339 [kJ/mol]       0.01193622 [Eh]
  Correction H              9.564 [kcal/mol]       40.015 [kJ/mol]       0.01524086 [Eh]
  Total H, Enthalpy at  298.15 [K]                                    -188.54208684 [Eh]

  Gibbs free energy, G = H - T * S
    Electronic G            0.000 [kcal/mol]        0.000 [kJ/mol]       0.00000000 [Eh]
    Translational G        -9.631 [kcal/mol]      -40.296 [kJ/mol]      -0.01534777 [Eh]
    Rotational G           -3.305 [kcal/mol]      -13.828 [kJ/mol]      -0.00526672 [Eh]
    Vibrational G           7.284 [kcal/mol]       30.476 [kJ/mol]       0.01160765 [Eh]
  Correction G             -5.652 [kcal/mol]      -23.647 [kJ/mol]      -0.00900685 [Eh]
  Total G, Free enthalpy at  298.15 [K]                               -188.56633455 [Eh]

    Psi4 stopped on: Monday, 19 April 2021 03:43PM
    Psi4 wall time for execution: 0:01:03.91

*** Psi4 exiting successfully. Buy a developer a beer!
