
    -----------------------------------------------------------------------
          Psi4: An Open-Source Ab Initio Electronic Structure Package
                               Psi4 1.3.2 release

                         Git: Rev {HEAD} ecbda83 


    R. M. Parrish, L. A. Burns, D. G. A. Smith, A. C. Simmonett,
    A. E. DePrince III, E. G. Hohenstein, U. Bozkaya, A. Yu. Sokolov,
    R. Di Remigio, R. M. Richard, J. F. Gonthier, A. M. James,
    H. R. McAlexander, A. Kumar, M. Saitow, X. Wang, B. P. Pritchard,
    P. Verma, H. F. Schaefer III, K. Patkowski, R. A. King, E. F. Valeev,
    F. A. Evangelista, J. M. Turney, T. D. Crawford, and C. D. Sherrill,
    J. Chem. Theory Comput. 13(7) pp 3185--3197 (2017).
    (doi: 10.1021/acs.jctc.7b00174)


                         Additional Contributions by
    P. Kraus, H. Kruse, M. H. Lechner, M. C. Schieber, R. A. Shaw,
    A. Alenaizan, R. Galvelis, Z. L. Glick, S. Lehtola, and J. P. Misiewicz

    -----------------------------------------------------------------------


    Psi4 started on: Monday, 19 April 2021 03:43PM

    Process ID: 98843
    Host:       bp1-compute00146.data.bp.acrc.priv
    PSIDATADIR: /work/zw18965/.conda/envs/p4env/share/psi4
    Memory:     500.0 MiB
    Threads:    24
    
  ==> Input File <==

--------------------------------------------------------------------------
memory 144 GB

molecule {
0 1
C    -0.103910856415   0.008245353545   0.001088210600
S     1.501784397759  -0.119456886931  -0.015615823698
H    -0.672538376561   0.271493563704   0.890615697200
H    -0.725339302949  -0.160344325059  -0.876008681061}

set basis aug-cc-pV(Q+d)Z
 
optimize("DSD-BLYP-D3BJ")
frequencies("DSD-BLYP-D3BJ")--------------------------------------------------------------------------

  Memory set to 134.110 GiB by Python driver.
gradient() will perform gradient computation by finite difference of analytic energies.

         ----------------------------------------------------------
                                   FINDIF
                     R. A. King and Jonathon Misiewicz
         ---------------------------------------------------------

  Using finite-differences of energies to determine gradients.
    Generating geometries for use with 3-point formula.
    Displacement size will be 5.00e-03.
    Number of atoms is 4.
    Number of symmetric SALCs is 6.
    Translations projected? 1. Rotations projected? 1.
    Number of geometries (including reference) is 13.

  //>>>>>>>>>>>>>>>>>>>>>>>>>>>>>>>>>>>//
  //    Loading displacement 1 of 13   //
  //<<<<<<<<<<<<<<<<<<<<<<<<<<<<<<<<<<<//

*** tstart() called on bp1-compute00146.data.bp.acrc.priv
*** at Mon Apr 19 15:43:44 2021

   => Loading Basis Set <=

    Name: AUG-CC-PV(Q+D)Z
    Role: ORBITAL
    Keyword: BASIS
    atoms 1   entry C          line   319 file /work/zw18965/.conda/envs/p4env/share/psi4/basis/aug-cc-pv_qpd_z.gbs 
    atoms 2   entry S          line  1148 file /work/zw18965/.conda/envs/p4env/share/psi4/basis/aug-cc-pv_qpd_z.gbs 
    atoms 3-4 entry H          line    56 file /work/zw18965/.conda/envs/p4env/share/psi4/basis/aug-cc-pv_qpd_z.gbs 


         ---------------------------------------------------------
                                   SCF
               by Justin Turney, Rob Parrish, Andy Simmonett
                          and Daniel G. A. Smith
                              RKS Reference
                       24 Threads, 137329 MiB Core
         ---------------------------------------------------------

  ==> Geometry <==

    Molecular point group: c1
    Full point group: C1

    Geometry (in Angstrom), charge = 0, multiplicity = 1:

       Center              X                  Y                   Z               Mass       
    ------------   -----------------  -----------------  -----------------  -----------------
         C           -1.090248296876     0.086708055468     0.011340738238    12.000000000000
         S            0.515446957298    -0.040994185008    -0.005363296060    31.972071174400
         H           -1.658875817022     0.349956265627     0.900868224838     1.007825032230
         H           -1.711676743410    -0.081881623136    -0.865756153423     1.007825032230

  Running in c1 symmetry.

  Rotational constants: A =     10.10608  B =      0.58807  C =      0.55573 [cm^-1]
  Rotational constants: A = 302972.64093  B =  17629.77401  C =  16660.32114 [MHz]
  Nuclear repulsion =   44.755277725462982

  Charge       = 0
  Multiplicity = 1
  Electrons    = 24
  Nalpha       = 12
  Nbeta        = 12

  ==> Algorithm <==

  SCF Algorithm Type is DF.
  DIIS enabled.
  MOM disabled.
  Fractional occupation disabled.
  Guess Type is SAD.
  Energy threshold   = 1.00e-08
  Density threshold  = 1.00e-08
  Integral threshold = 0.00e+00

  ==> Primary Basis <==

  Basis Set: AUG-CC-PV(Q+D)Z
    Blend: AUG-CC-PV(Q+D)Z
    Number of shells: 71
    Number of basis function: 261
    Number of Cartesian functions: 330
    Spherical Harmonics?: true
    Max angular momentum: 4

  ==> DFT Potential <==

   => Composite Functional: DSD-BLYP-D3BJ <= 

    DSD-BLYP-D3BJ Dispersion-corrected SCS Double Hybrid XC Functional

    S. Kozuch, J.M.L. Martin, J. Comp. Chem., 34, 2327-2344, 2013


    Deriv               =              1
    GGA                 =           TRUE
    Meta                =          FALSE

    Exchange Hybrid     =           TRUE
    MP2 Hybrid          =           TRUE

   => Exchange Functionals <=

    0.2900     XC_GGA_X_B88

   => Exact (HF) Exchange <=

    0.7100               HF 

   => Correlation Functionals <=

    0.5400     XC_GGA_C_LYP

   => MP2 Correlation <=

    MP2 SCS Hybrid      =           TRUE
    MP2 OS Alpha        =       0.470000
    MP2 SS Alpha        =       0.400000

   => Molecular Quadrature <=

    Radial Scheme          =       TREUTLER
    Pruning Scheme         =           FLAT
    Nuclear Scheme         =       TREUTLER

    BS radius alpha        =              1
    Pruning alpha          =              1
    Radial Points          =             75
    Spherical Points       =            302
    Total Points           =          90600
    Total Blocks           =            740
    Max Points             =            256
    Max Functions          =            261

   => DSD-BLYP-D3BJ: Empirical Dispersion <=

    Grimme's -D3 (BJ-damping) Dispersion Correction
    Grimme S.; Ehrlich S.; Goerigk L. (2011), J. Comput. Chem., 32: 1456
    Parametrisation from:    S. Kozuch, J.M.L. Martin, J. Comp. Chem., 34, 2327-2344, 2013

        s6 =       0.570000
        s8 =       0.000000
        a1 =       0.000000
        a2 =       5.400000

   => Loading Basis Set <=

    Name: (AUG-CC-PV(Q+D)Z AUX)
    Role: JKFIT
    Keyword: DF_BASIS_SCF
    atoms 1   entry C          line   178 file /work/zw18965/.conda/envs/p4env/share/psi4/basis/aug-cc-pvqz-jkfit.gbs 
    atoms 2   entry S          line   810 file /work/zw18965/.conda/envs/p4env/share/psi4/basis/aug-cc-pvqz-jkfit.gbs 
    atoms 3-4 entry H          line    70 file /work/zw18965/.conda/envs/p4env/share/psi4/basis/aug-cc-pvqz-jkfit.gbs 

  ==> Pre-Iterations <==

   -------------------------------------------------------
    Irrep   Nso     Nmo     Nalpha   Nbeta   Ndocc  Nsocc
   -------------------------------------------------------
     A        261     261       0       0       0       0
   -------------------------------------------------------
    Total     261     261      12      12      12       0
   -------------------------------------------------------

  ==> Integral Setup <==

  DFHelper Memory: AOs need 0.273 GiB; user supplied 99.971 GiB. Using in-core AOs.

  ==> MemDFJK: Density-Fitted J/K Matrices <==

    J tasked:                   Yes
    K tasked:                   Yes
    wK tasked:                   No
    OpenMP threads:              24
    Memory [MiB]:            102370
    Algorithm:                 Core
    Schwarz Cutoff:           1E-12
    Mask sparsity (%):       0.0411
    Fitting Condition:        1E-10

   => Auxiliary Basis Set <=

  Basis Set: (AUG-CC-PV(Q+D)Z AUX)
    Blend: AUG-CC-PVQZ-JKFIT
    Number of shells: 116
    Number of basis function: 478
    Number of Cartesian functions: 647
    Spherical Harmonics?: true
    Max angular momentum: 5

  Cached 100.0% of DFT collocation blocks in 0.612 [GiB].

  Minimum eigenvalue in the overlap matrix is 2.3424680901E-05.
  Using Symmetric Orthogonalization.

  SCF Guess: Superposition of Atomic Densities via on-the-fly atomic UHF.

  ==> Iterations <==

                           Total Energy        Delta E     RMS |[F,P]|

   @DF-RKS iter SAD:  -436.54515415208311   -4.36545e+02   0.00000e+00 
   @DF-RKS iter   1:  -437.00155034357203   -4.56396e-01   1.26360e-03 DIIS
   @DF-RKS iter   2:  -437.02366505513879   -2.21147e-02   9.59743e-04 DIIS
   @DF-RKS iter   3:  -437.05423461837216   -3.05696e-02   1.92015e-04 DIIS
   @DF-RKS iter   4:  -437.05566971665110   -1.43510e-03   5.39643e-05 DIIS
   @DF-RKS iter   5:  -437.05582161835866   -1.51902e-04   1.29132e-05 DIIS
   @DF-RKS iter   6:  -437.05583420426268   -1.25859e-05   5.89283e-06 DIIS
   @DF-RKS iter   7:  -437.05583728094274   -3.07668e-06   1.15238e-06 DIIS
   @DF-RKS iter   8:  -437.05583744366498   -1.62722e-07   2.02283e-07 DIIS
   @DF-RKS iter   9:  -437.05583744815880   -4.49381e-09   5.49025e-08 DIIS
   @DF-RKS iter  10:  -437.05583744838935   -2.30557e-10   5.76420e-09 DIIS
  Energy and wave function converged.


  ==> Post-Iterations <==

    Orbital Energies [Eh]
    ---------------------

    Doubly Occupied:                                                      

       1A    -90.862342     2A    -10.936967     3A     -8.596129  
       4A     -6.379727     5A     -6.378953     6A     -6.375025  
       7A     -0.973157     8A     -0.745215     9A     -0.580187  
      10A     -0.497127    11A     -0.388917    12A     -0.314501  

    Virtual:                                                              

      13A     -0.015746    14A      0.014496    15A      0.031350  
      16A      0.039564    17A      0.062646    18A      0.075427  
      19A      0.080053    20A      0.092150    21A      0.101713  
      22A      0.114244    23A      0.141428    24A      0.152684  
      25A      0.159061    26A      0.186206    27A      0.190379  
      28A      0.212018    29A      0.225077    30A      0.227139  
      31A      0.233843    32A      0.244566    33A      0.255301  
      34A      0.269035    35A      0.277007    36A      0.288971  
      37A      0.301569    38A      0.309308    39A      0.318294  
      40A      0.329993    41A      0.332542    42A      0.376401  
      43A      0.390029    44A      0.430418    45A      0.451079  
      46A      0.460343    47A      0.482217    48A      0.490405  
      49A      0.509882    50A      0.522011    51A      0.524631  
      52A      0.524828    53A      0.544058    54A      0.545146  
      55A      0.559446    56A      0.599565    57A      0.619048  
      58A      0.642451    59A      0.645060    60A      0.649556  
      61A      0.660101    62A      0.676701    63A      0.694522  
      64A      0.699104    65A      0.705465    66A      0.741156  
      67A      0.761359    68A      0.765538    69A      0.774456  
      70A      0.785356    71A      0.796511    72A      0.880789  
      73A      0.882255    74A      0.899878    75A      0.922551  
      76A      0.974409    77A      0.994658    78A      1.021650  
      79A      1.028788    80A      1.053662    81A      1.073293  
      82A      1.086673    83A      1.092621    84A      1.118995  
      85A      1.146219    86A      1.228997    87A      1.259250  
      88A      1.283396    89A      1.327486    90A      1.327904  
      91A      1.333306    92A      1.380763    93A      1.399013  
      94A      1.430621    95A      1.435909    96A      1.445332  
      97A      1.445722    98A      1.477320    99A      1.485516  
     100A      1.519106   101A      1.539303   102A      1.542924  
     103A      1.558205   104A      1.582957   105A      1.583383  
     106A      1.602914   107A      1.626302   108A      1.631346  
     109A      1.641790   110A      1.669003   111A      1.686540  
     112A      1.742058   113A      1.748361   114A      1.793321  
     115A      1.812514   116A      1.859095   117A      1.882627  
     118A      1.887383   119A      1.920380   120A      1.962838  
     121A      1.975912   122A      1.988722   123A      2.000421  
     124A      2.006516   125A      2.040252   126A      2.059651  
     127A      2.091255   128A      2.096554   129A      2.127007  
     130A      2.146316   131A      2.179365   132A      2.202133  
     133A      2.212201   134A      2.223592   135A      2.233572  
     136A      2.339615   137A      2.440231   138A      2.446691  
     139A      2.482195   140A      2.504272   141A      2.591282  
     142A      2.597558   143A      2.652064   144A      2.667254  
     145A      2.670252   146A      2.694212   147A      2.744976  
     148A      2.801166   149A      2.822448   150A      2.859582  
     151A      2.910819   152A      2.923703   153A      2.930261  
     154A      2.970181   155A      3.000974   156A      3.061748  
     157A      3.139210   158A      3.229411   159A      3.295748  
     160A      3.314702   161A      3.344224   162A      3.377151  
     163A      3.464677   164A      3.521701   165A      3.567148  
     166A      3.622340   167A      3.624109   168A      3.628503  
     169A      3.679938   170A      3.683163   171A      3.749021  
     172A      3.750564   173A      3.771736   174A      3.840285  
     175A      3.868182   176A      3.903845   177A      3.911625  
     178A      3.977160   179A      3.979816   180A      4.002776  
     181A      4.034942   182A      4.043591   183A      4.081057  
     184A      4.138093   185A      4.154282   186A      4.375478  
     187A      4.380441   188A      4.419535   189A      4.501972  
     190A      4.514147   191A      4.546456   192A      4.637185  
     193A      4.663853   194A      4.939410   195A      5.076979  
     196A      5.777806   197A      5.833004   198A      5.874859  
     199A      5.988778   200A      6.033587   201A      6.083114  
     202A      6.105936   203A      6.200444   204A      6.204593  
     205A      6.208259   206A      6.351379   207A      6.414133  
     208A      6.513224   209A      6.517292   210A      6.546516  
     211A      6.562629   212A      6.645341   213A      6.716282  
     214A      6.716319   215A      6.832383   216A      6.858780  
     217A      6.884387   218A      6.895998   219A      6.974061  
     220A      7.037813   221A      7.164497   222A      7.350430  
     223A      7.354114   224A      7.379638   225A      7.528953  
     226A      7.734174   227A      7.994648   228A      8.020293  
     229A      8.094179   230A      8.211055   231A      8.330939  
     232A      8.347874   233A      8.395324   234A      8.625560  
     235A      8.698431   236A      8.809320   237A      8.916347  
     238A      8.978222   239A      9.034260   240A      9.083874  
     241A      9.190844   242A      9.221594   243A      9.347465  
     244A      9.388931   245A      9.511726   246A      9.574866  
     247A      9.637647   248A      9.690538   249A      9.885343  
     250A      9.934097   251A      9.954976   252A     10.086479  
     253A     10.107049   254A     10.309762   255A     10.634475  
     256A     10.653686   257A     10.869240   258A     12.344443  
     259A     12.852151   260A     21.143211   261A     25.587429  

    Final Occupation by Irrep:
              A 
    DOCC [    12 ]

  @DF-RKS Final Energy:  -437.05583744838935

   => Energetics <=

    Nuclear Repulsion Energy =             44.7552777254629817
    One-Electron Energy =                -690.8060513883283420
    Two-Electron Energy =                 218.4398387076152801
    DFT Exchange-Correlation Energy =      -9.4424529331392808
    Empirical Dispersion Energy =          -0.0024495600000000
    VV10 Nonlocal Energy =                  0.0000000000000000
    Total Energy =                       -437.0558374483893544

Computation Completed


Properties will be evaluated at   0.000000,   0.000000,   0.000000 [a0]

Properties computed using the SCF density matrix

  Nuclear Dipole Moment: [e a0]
     X:    -3.1462      Y:     0.2502      Z:     0.0328

  Electronic Dipole Moment: [e a0]
     X:     2.3677      Y:    -0.1883      Z:    -0.0247

  Dipole Moment: [e a0]
     X:    -0.7785      Y:     0.0619      Z:     0.0081     Total:     0.7810

  Dipole Moment: [D]
     X:    -1.9787      Y:     0.1574      Z:     0.0206     Total:     1.9850


*** tstop() called on bp1-compute00146.data.bp.acrc.priv at Mon Apr 19 15:43:47 2021
Module time:
	user time   =      67.60 seconds =       1.13 minutes
	system time =       4.39 seconds =       0.07 minutes
	total time  =          3 seconds =       0.05 minutes
Total time:
	user time   =      67.60 seconds =       1.13 minutes
	system time =       4.39 seconds =       0.07 minutes
	total time  =          3 seconds =       0.05 minutes

*** tstart() called on bp1-compute00146.data.bp.acrc.priv
*** at Mon Apr 19 15:43:47 2021

   => Loading Basis Set <=

    Name: (AUG-CC-PV(Q+D)Z AUX)
    Role: RIFIT
    Keyword: DF_BASIS_MP2
    atoms 1   entry C          line   184 file /work/zw18965/.conda/envs/p4env/share/psi4/basis/aug-cc-pvqz-ri.gbs 
    atoms 2   entry S          line   824 file /work/zw18965/.conda/envs/p4env/share/psi4/basis/aug-cc-pvqz-ri.gbs 
    atoms 3-4 entry H          line    30 file /work/zw18965/.conda/envs/p4env/share/psi4/basis/aug-cc-pvqz-ri.gbs 

	 --------------------------------------------------------
	                          DF-MP2                         
	      2nd-Order Density-Fitted Moller-Plesset Theory     
	              RMP2 Wavefunction,  24 Threads             
	                                                         
	        Rob Parrish, Justin Turney, Andy Simmonett,      
	           Ed Hohenstein, and C. David Sherrill          
	 --------------------------------------------------------

   => Auxiliary Basis Set <=

  Basis Set: (AUG-CC-PV(Q+D)Z AUX)
    Blend: AUG-CC-PVQZ-RI
    Number of shells: 120
    Number of basis function: 522
    Number of Cartesian functions: 715
    Spherical Harmonics?: true
    Max angular momentum: 5

	 --------------------------------------------------------
	                 NBF =   261, NAUX =   522
	 --------------------------------------------------------
	   CLASS    FOCC     OCC    AOCC    AVIR     VIR    FVIR
	   PAIRS       0      12      12     249     249       0
	 --------------------------------------------------------

	-----------------------------------------------------------
	 ==================> DF-MP2 Energies <==================== 
	-----------------------------------------------------------
	 Reference Energy          =    -437.0558374483893544 [Eh]
	 Singles Energy            =      -0.0000000000000000 [Eh]
	 Same-Spin Energy          =      -0.1366139227103316 [Eh]
	 Opposite-Spin Energy      =      -0.4349058028637784 [Eh]
	 Correlation Energy        =      -0.5715197255741100 [Eh]
	 Total Energy              =    -437.6273571739634463 [Eh]
	-----------------------------------------------------------
	 ================> DF-SCS-MP2 Energies <================== 
	-----------------------------------------------------------
	 SCS Same-Spin Scale       =       0.4000000000000000 [-]
	 SCS Opposite-Spin Scale   =       0.4700000000000000 [-]
	 SCS Same-Spin Energy      =      -0.0546455690841326 [Eh]
	 SCS Opposite-Spin Energy  =      -0.2044057273459759 [Eh]
	 SCS Correlation Energy    =      -0.2590512964301085 [Eh]
	 SCS Total Energy          =    -437.3148887448194841 [Eh]
	-----------------------------------------------------------



    DSD-BLYP-D3BJ Energy Summary
    ----------------------------
    DFT Reference Energy                  =  -437.0558374483893544
    Scaled MP2 Correlation                =    -0.2590512964301085
    @Final double-hybrid DFT total energy =  -437.3148887448194841


*** tstop() called on bp1-compute00146.data.bp.acrc.priv at Mon Apr 19 15:43:48 2021
Module time:
	user time   =      14.23 seconds =       0.24 minutes
	system time =       0.57 seconds =       0.01 minutes
	total time  =          1 seconds =       0.02 minutes
Total time:
	user time   =      81.84 seconds =       1.36 minutes
	system time =       4.96 seconds =       0.08 minutes
	total time  =          4 seconds =       0.07 minutes

  //>>>>>>>>>>>>>>>>>>>>>>>>>>>>>>>>>>>//
  //    Loading displacement 2 of 13   //
  //<<<<<<<<<<<<<<<<<<<<<<<<<<<<<<<<<<<//

*** tstart() called on bp1-compute00146.data.bp.acrc.priv
*** at Mon Apr 19 15:43:48 2021

   => Loading Basis Set <=

    Name: AUG-CC-PV(Q+D)Z
    Role: ORBITAL
    Keyword: BASIS
    atoms 1   entry C          line   319 file /work/zw18965/.conda/envs/p4env/share/psi4/basis/aug-cc-pv_qpd_z.gbs 
    atoms 2   entry S          line  1148 file /work/zw18965/.conda/envs/p4env/share/psi4/basis/aug-cc-pv_qpd_z.gbs 
    atoms 3-4 entry H          line    56 file /work/zw18965/.conda/envs/p4env/share/psi4/basis/aug-cc-pv_qpd_z.gbs 


         ---------------------------------------------------------
                                   SCF
               by Justin Turney, Rob Parrish, Andy Simmonett
                          and Daniel G. A. Smith
                              RKS Reference
                       24 Threads, 137329 MiB Core
         ---------------------------------------------------------

  ==> Geometry <==

    Molecular point group: c1
    Full point group: C1

    Geometry (in Angstrom), charge = 0, multiplicity = 1:

       Center              X                  Y                   Z               Mass       
    ------------   -----------------  -----------------  -----------------  -----------------
         C           -1.090903513410     0.086743121631     0.011344656795    12.000000000000
         S            0.515677954986    -0.041010763569    -0.005365148673    31.972071174400
         H           -1.658628984610     0.350009662871     0.900874176774     1.007825032230
         H           -1.711450156453    -0.081826611726    -0.865749990961     1.007825032230

  Running in c1 symmetry.

  Rotational constants: A =     10.10608  B =      0.58759  C =      0.55530 [cm^-1]
  Rotational constants: A = 302972.63810  B =  17615.45323  C =  16647.53148 [MHz]
  Nuclear repulsion =   44.740522999845275

  Charge       = 0
  Multiplicity = 1
  Electrons    = 24
  Nalpha       = 12
  Nbeta        = 12

  ==> Algorithm <==

  SCF Algorithm Type is DF.
  DIIS enabled.
  MOM disabled.
  Fractional occupation disabled.
  Guess Type is SAD.
  Energy threshold   = 1.00e-08
  Density threshold  = 1.00e-08
  Integral threshold = 0.00e+00

  ==> Primary Basis <==

  Basis Set: AUG-CC-PV(Q+D)Z
    Blend: AUG-CC-PV(Q+D)Z
    Number of shells: 71
    Number of basis function: 261
    Number of Cartesian functions: 330
    Spherical Harmonics?: true
    Max angular momentum: 4

  ==> DFT Potential <==

   => Composite Functional: DSD-BLYP-D3BJ <= 

    DSD-BLYP-D3BJ Dispersion-corrected SCS Double Hybrid XC Functional

    S. Kozuch, J.M.L. Martin, J. Comp. Chem., 34, 2327-2344, 2013


    Deriv               =              1
    GGA                 =           TRUE
    Meta                =          FALSE

    Exchange Hybrid     =           TRUE
    MP2 Hybrid          =           TRUE

   => Exchange Functionals <=

    0.2900     XC_GGA_X_B88

   => Exact (HF) Exchange <=

    0.7100               HF 

   => Correlation Functionals <=

    0.5400     XC_GGA_C_LYP

   => MP2 Correlation <=

    MP2 SCS Hybrid      =           TRUE
    MP2 OS Alpha        =       0.470000
    MP2 SS Alpha        =       0.400000

   => Molecular Quadrature <=

    Radial Scheme          =       TREUTLER
    Pruning Scheme         =           FLAT
    Nuclear Scheme         =       TREUTLER

    BS radius alpha        =              1
    Pruning alpha          =              1
    Radial Points          =             75
    Spherical Points       =            302
    Total Points           =          90600
    Total Blocks           =            741
    Max Points             =            255
    Max Functions          =            261

   => DSD-BLYP-D3BJ: Empirical Dispersion <=

    Grimme's -D3 (BJ-damping) Dispersion Correction
    Grimme S.; Ehrlich S.; Goerigk L. (2011), J. Comput. Chem., 32: 1456
    Parametrisation from:    S. Kozuch, J.M.L. Martin, J. Comp. Chem., 34, 2327-2344, 2013

        s6 =       0.570000
        s8 =       0.000000
        a1 =       0.000000
        a2 =       5.400000

   => Loading Basis Set <=

    Name: (AUG-CC-PV(Q+D)Z AUX)
    Role: JKFIT
    Keyword: DF_BASIS_SCF
    atoms 1   entry C          line   178 file /work/zw18965/.conda/envs/p4env/share/psi4/basis/aug-cc-pvqz-jkfit.gbs 
    atoms 2   entry S          line   810 file /work/zw18965/.conda/envs/p4env/share/psi4/basis/aug-cc-pvqz-jkfit.gbs 
    atoms 3-4 entry H          line    70 file /work/zw18965/.conda/envs/p4env/share/psi4/basis/aug-cc-pvqz-jkfit.gbs 

  ==> Pre-Iterations <==

   -------------------------------------------------------
    Irrep   Nso     Nmo     Nalpha   Nbeta   Ndocc  Nsocc
   -------------------------------------------------------
     A        261     261       0       0       0       0
   -------------------------------------------------------
    Total     261     261      12      12      12       0
   -------------------------------------------------------

  ==> Integral Setup <==

  DFHelper Memory: AOs need 0.273 GiB; user supplied 99.971 GiB. Using in-core AOs.

  ==> MemDFJK: Density-Fitted J/K Matrices <==

    J tasked:                   Yes
    K tasked:                   Yes
    wK tasked:                   No
    OpenMP threads:              24
    Memory [MiB]:            102370
    Algorithm:                 Core
    Schwarz Cutoff:           1E-12
    Mask sparsity (%):       0.0411
    Fitting Condition:        1E-10

   => Auxiliary Basis Set <=

  Basis Set: (AUG-CC-PV(Q+D)Z AUX)
    Blend: AUG-CC-PVQZ-JKFIT
    Number of shells: 116
    Number of basis function: 478
    Number of Cartesian functions: 647
    Spherical Harmonics?: true
    Max angular momentum: 5

  Cached 100.0% of DFT collocation blocks in 0.612 [GiB].

  Minimum eigenvalue in the overlap matrix is 2.3433040032E-05.
  Using Symmetric Orthogonalization.

  SCF Guess: Superposition of Atomic Densities via on-the-fly atomic UHF.

  ==> Iterations <==

                           Total Energy        Delta E     RMS |[F,P]|

   @DF-RKS iter SAD:  -436.54408953281268   -4.36544e+02   0.00000e+00 
   @DF-RKS iter   1:  -437.00155381671436   -4.57464e-01   1.26321e-03 DIIS
   @DF-RKS iter   2:  -437.02363385452384   -2.20800e-02   9.59841e-04 DIIS
   @DF-RKS iter   3:  -437.05421795364362   -3.05841e-02   1.92244e-04 DIIS
   @DF-RKS iter   4:  -437.05565719641675   -1.43924e-03   5.40208e-05 DIIS
   @DF-RKS iter   5:  -437.05580954747808   -1.52351e-04   1.29475e-05 DIIS
   @DF-RKS iter   6:  -437.05582221219350   -1.26647e-05   5.91457e-06 DIIS
   @DF-RKS iter   7:  -437.05582531585293   -3.10366e-06   1.15639e-06 DIIS
   @DF-RKS iter   8:  -437.05582547989087   -1.64038e-07   2.02618e-07 DIIS
   @DF-RKS iter   9:  -437.05582548439588   -4.50501e-09   5.50071e-08 DIIS
   @DF-RKS iter  10:  -437.05582548462684   -2.30955e-10   5.77167e-09 DIIS
  Energy and wave function converged.


  ==> Post-Iterations <==

    Orbital Energies [Eh]
    ---------------------

    Doubly Occupied:                                                      

       1A    -90.862395     2A    -10.937018     3A     -8.596148  
       4A     -6.379748     5A     -6.378972     6A     -6.375045  
       7A     -0.972957     8A     -0.745351     9A     -0.580437  
      10A     -0.497001    11A     -0.388746    12A     -0.314538  

    Virtual:                                                              

      13A     -0.015865    14A      0.014490    15A      0.031348  
      16A      0.039565    17A      0.062652    18A      0.075430  
      19A      0.080061    20A      0.092148    21A      0.101704  
      22A      0.114246    23A      0.141415    24A      0.152652  
      25A      0.159061    26A      0.186254    27A      0.190357  
      28A      0.212028    29A      0.225093    30A      0.227144  
      31A      0.233842    32A      0.244561    33A      0.255292  
      34A      0.269024    35A      0.276977    36A      0.288942  
      37A      0.301655    38A      0.309296    39A      0.318203  
      40A      0.330020    41A      0.332573    42A      0.376262  
      43A      0.390081    44A      0.430399    45A      0.451234  
      46A      0.460339    47A      0.482230    48A      0.490445  
      49A      0.509862    50A      0.521918    51A      0.524571  
      52A      0.524807    53A      0.544111    54A      0.545116  
      55A      0.559448    56A      0.599613    57A      0.619096  
      58A      0.642419    59A      0.645126    60A      0.649575  
      61A      0.660090    62A      0.676641    63A      0.694451  
      64A      0.699023    65A      0.705457    66A      0.741171  
      67A      0.761368    68A      0.765493    69A      0.774485  
      70A      0.785282    71A      0.796415    72A      0.880777  
      73A      0.882046    74A      0.899932    75A      0.922467  
      76A      0.974496    77A      0.994519    78A      1.021673  
      79A      1.029006    80A      1.053592    81A      1.073209  
      82A      1.086602    83A      1.092658    84A      1.118920  
      85A      1.146190    86A      1.229137    87A      1.259307  
      88A      1.283272    89A      1.327239    90A      1.327817  
      91A      1.333312    92A      1.380656    93A      1.399015  
      94A      1.430708    95A      1.435940    96A      1.445329  
      97A      1.445696    98A      1.477330    99A      1.485530  
     100A      1.518994   101A      1.539164   102A      1.542857  
     103A      1.557963   104A      1.582933   105A      1.583223  
     106A      1.602887   107A      1.626397   108A      1.631202  
     109A      1.641814   110A      1.668882   111A      1.686461  
     112A      1.741835   113A      1.748156   114A      1.793026  
     115A      1.812602   116A      1.858866   117A      1.882648  
     118A      1.887015   119A      1.920156   120A      1.962792  
     121A      1.975645   122A      1.988609   123A      2.000398  
     124A      2.006411   125A      2.040120   126A      2.059640  
     127A      2.091535   128A      2.096553   129A      2.127159  
     130A      2.146628   131A      2.179514   132A      2.202430  
     133A      2.212363   134A      2.223485   135A      2.233534  
     136A      2.339622   137A      2.440399   138A      2.446618  
     139A      2.482182   140A      2.504184   141A      2.591067  
     142A      2.597469   143A      2.651557   144A      2.667283  
     145A      2.670420   146A      2.694197   147A      2.744993  
     148A      2.800605   149A      2.822414   150A      2.859907  
     151A      2.910764   152A      2.923298   153A      2.930026  
     154A      2.969535   155A      3.000785   156A      3.061661  
     157A      3.139018   158A      3.229891   159A      3.294910  
     160A      3.315067   161A      3.344239   162A      3.377614  
     163A      3.464798   164A      3.521777   165A      3.567473  
     166A      3.622425   167A      3.624126   168A      3.628434  
     169A      3.680416   170A      3.683363   171A      3.748916  
     172A      3.750477   173A      3.771778   174A      3.840298  
     175A      3.868326   176A      3.903463   177A      3.911304  
     178A      3.976992   179A      3.979448   180A      4.002642  
     181A      4.034195   182A      4.043329   183A      4.081642  
     184A      4.137872   185A      4.154951   186A      4.375417  
     187A      4.380364   188A      4.418537   189A      4.501856  
     190A      4.513801   191A      4.545792   192A      4.637783  
     193A      4.664933   194A      4.939250   195A      5.076672  
     196A      5.777148   197A      5.832636   198A      5.874880  
     199A      5.988024   200A      6.033094   201A      6.082861  
     202A      6.106228   203A      6.198916   204A      6.204180  
     205A      6.208039   206A      6.350971   207A      6.413142  
     208A      6.513422   209A      6.517180   210A      6.545331  
     211A      6.562319   212A      6.645506   213A      6.716555  
     214A      6.716740   215A      6.832700   216A      6.860653  
     217A      6.883783   218A      6.896416   219A      6.974454  
     220A      7.038940   221A      7.164231   222A      7.349926  
     223A      7.353296   224A      7.380959   225A      7.529990  
     226A      7.733566   227A      7.994882   228A      8.023000  
     229A      8.094741   230A      8.211060   231A      8.330974  
     232A      8.348420   233A      8.394264   234A      8.625809  
     235A      8.698004   236A      8.809269   237A      8.916706  
     238A      8.979519   239A      9.035487   240A      9.084010  
     241A      9.190724   242A      9.221559   243A      9.348365  
     244A      9.388735   245A      9.512602   246A      9.575317  
     247A      9.637633   248A      9.690772   249A      9.884602  
     250A      9.934808   251A      9.956638   252A     10.090255  
     253A     10.110047   254A     10.311019   255A     10.636874  
     256A     10.653982   257A     10.872231   258A     12.345163  
     259A     12.856289   260A     21.135308   261A     25.593411  

    Final Occupation by Irrep:
              A 
    DOCC [    12 ]

  @DF-RKS Final Energy:  -437.05582548462684

   => Energetics <=

    Nuclear Repulsion Energy =             44.7405229998452754
    One-Electron Energy =                -690.7763255568663681
    Two-Electron Energy =                 218.4248325083948430
    DFT Exchange-Correlation Energy =      -9.4424060160006356
    Empirical Dispersion Energy =          -0.0024494200000000
    VV10 Nonlocal Energy =                  0.0000000000000000
    Total Energy =                       -437.0558254846268369

Computation Completed


Properties will be evaluated at   0.000000,   0.000000,   0.000000 [a0]

Properties computed using the SCF density matrix

  Nuclear Dipole Moment: [e a0]
     X:    -3.1457      Y:     0.2503      Z:     0.0328

  Electronic Dipole Moment: [e a0]
     X:     2.3663      Y:    -0.1883      Z:    -0.0247

  Dipole Moment: [e a0]
     X:    -0.7795      Y:     0.0620      Z:     0.0081     Total:     0.7820

  Dipole Moment: [D]
     X:    -1.9813      Y:     0.1577      Z:     0.0206     Total:     1.9876


*** tstop() called on bp1-compute00146.data.bp.acrc.priv at Mon Apr 19 15:43:51 2021
Module time:
	user time   =      68.36 seconds =       1.14 minutes
	system time =       3.19 seconds =       0.05 minutes
	total time  =          3 seconds =       0.05 minutes
Total time:
	user time   =     150.36 seconds =       2.51 minutes
	system time =       8.16 seconds =       0.14 minutes
	total time  =          7 seconds =       0.12 minutes

*** tstart() called on bp1-compute00146.data.bp.acrc.priv
*** at Mon Apr 19 15:43:51 2021

   => Loading Basis Set <=

    Name: (AUG-CC-PV(Q+D)Z AUX)
    Role: RIFIT
    Keyword: DF_BASIS_MP2
    atoms 1   entry C          line   184 file /work/zw18965/.conda/envs/p4env/share/psi4/basis/aug-cc-pvqz-ri.gbs 
    atoms 2   entry S          line   824 file /work/zw18965/.conda/envs/p4env/share/psi4/basis/aug-cc-pvqz-ri.gbs 
    atoms 3-4 entry H          line    30 file /work/zw18965/.conda/envs/p4env/share/psi4/basis/aug-cc-pvqz-ri.gbs 

	 --------------------------------------------------------
	                          DF-MP2                         
	      2nd-Order Density-Fitted Moller-Plesset Theory     
	              RMP2 Wavefunction,  24 Threads             
	                                                         
	        Rob Parrish, Justin Turney, Andy Simmonett,      
	           Ed Hohenstein, and C. David Sherrill          
	 --------------------------------------------------------

   => Auxiliary Basis Set <=

  Basis Set: (AUG-CC-PV(Q+D)Z AUX)
    Blend: AUG-CC-PVQZ-RI
    Number of shells: 120
    Number of basis function: 522
    Number of Cartesian functions: 715
    Spherical Harmonics?: true
    Max angular momentum: 5

	 --------------------------------------------------------
	                 NBF =   261, NAUX =   522
	 --------------------------------------------------------
	   CLASS    FOCC     OCC    AOCC    AVIR     VIR    FVIR
	   PAIRS       0      12      12     249     249       0
	 --------------------------------------------------------

	-----------------------------------------------------------
	 ==================> DF-MP2 Energies <==================== 
	-----------------------------------------------------------
	 Reference Energy          =    -437.0558254846268369 [Eh]
	 Singles Energy            =      -0.0000000000000000 [Eh]
	 Same-Spin Energy          =      -0.1366175023475257 [Eh]
	 Opposite-Spin Energy      =      -0.4349325264162675 [Eh]
	 Correlation Energy        =      -0.5715500287637931 [Eh]
	 Total Energy              =    -437.6273755133906320 [Eh]
	-----------------------------------------------------------
	 ================> DF-SCS-MP2 Energies <================== 
	-----------------------------------------------------------
	 SCS Same-Spin Scale       =       0.4000000000000000 [-]
	 SCS Opposite-Spin Scale   =       0.4700000000000000 [-]
	 SCS Same-Spin Energy      =      -0.0546470009390103 [Eh]
	 SCS Opposite-Spin Energy  =      -0.2044182874156457 [Eh]
	 SCS Correlation Energy    =      -0.2590652883546560 [Eh]
	 SCS Total Energy          =    -437.3148907729814709 [Eh]
	-----------------------------------------------------------



    DSD-BLYP-D3BJ Energy Summary
    ----------------------------
    DFT Reference Energy                  =  -437.0558254846268369
    Scaled MP2 Correlation                =    -0.2590652883546560
    @Final double-hybrid DFT total energy =  -437.3148907729814709


*** tstop() called on bp1-compute00146.data.bp.acrc.priv at Mon Apr 19 15:43:52 2021
Module time:
	user time   =      14.17 seconds =       0.24 minutes
	system time =       0.56 seconds =       0.01 minutes
	total time  =          1 seconds =       0.02 minutes
Total time:
	user time   =     164.54 seconds =       2.74 minutes
	system time =       8.72 seconds =       0.15 minutes
	total time  =          8 seconds =       0.13 minutes

  //>>>>>>>>>>>>>>>>>>>>>>>>>>>>>>>>>>>//
  //    Loading displacement 3 of 13   //
  //<<<<<<<<<<<<<<<<<<<<<<<<<<<<<<<<<<<//

*** tstart() called on bp1-compute00146.data.bp.acrc.priv
*** at Mon Apr 19 15:43:52 2021

   => Loading Basis Set <=

    Name: AUG-CC-PV(Q+D)Z
    Role: ORBITAL
    Keyword: BASIS
    atoms 1   entry C          line   319 file /work/zw18965/.conda/envs/p4env/share/psi4/basis/aug-cc-pv_qpd_z.gbs 
    atoms 2   entry S          line  1148 file /work/zw18965/.conda/envs/p4env/share/psi4/basis/aug-cc-pv_qpd_z.gbs 
    atoms 3-4 entry H          line    56 file /work/zw18965/.conda/envs/p4env/share/psi4/basis/aug-cc-pv_qpd_z.gbs 


         ---------------------------------------------------------
                                   SCF
               by Justin Turney, Rob Parrish, Andy Simmonett
                          and Daniel G. A. Smith
                              RKS Reference
                       24 Threads, 137329 MiB Core
         ---------------------------------------------------------

  ==> Geometry <==

    Molecular point group: c1
    Full point group: C1

    Geometry (in Angstrom), charge = 0, multiplicity = 1:

       Center              X                  Y                   Z               Mass       
    ------------   -----------------  -----------------  -----------------  -----------------
         C           -1.089593080341     0.086672989304     0.011336819681    12.000000000000
         S            0.515215959610    -0.040977606448    -0.005361443447    31.972071174400
         H           -1.659122649434     0.349902868383     0.900862272902     1.007825032230
         H           -1.711903330367    -0.081936634546    -0.865762315885     1.007825032230

  Running in c1 symmetry.

  Rotational constants: A =     10.10608  B =      0.58854  C =      0.55616 [cm^-1]
  Rotational constants: A = 302972.63851  B =  17644.10947  C =  16673.12278 [MHz]
  Nuclear repulsion =   44.770051176422477

  Charge       = 0
  Multiplicity = 1
  Electrons    = 24
  Nalpha       = 12
  Nbeta        = 12

  ==> Algorithm <==

  SCF Algorithm Type is DF.
  DIIS enabled.
  MOM disabled.
  Fractional occupation disabled.
  Guess Type is SAD.
  Energy threshold   = 1.00e-08
  Density threshold  = 1.00e-08
  Integral threshold = 0.00e+00

  ==> Primary Basis <==

  Basis Set: AUG-CC-PV(Q+D)Z
    Blend: AUG-CC-PV(Q+D)Z
    Number of shells: 71
    Number of basis function: 261
    Number of Cartesian functions: 330
    Spherical Harmonics?: true
    Max angular momentum: 4

  ==> DFT Potential <==

   => Composite Functional: DSD-BLYP-D3BJ <= 

    DSD-BLYP-D3BJ Dispersion-corrected SCS Double Hybrid XC Functional

    S. Kozuch, J.M.L. Martin, J. Comp. Chem., 34, 2327-2344, 2013


    Deriv               =              1
    GGA                 =           TRUE
    Meta                =          FALSE

    Exchange Hybrid     =           TRUE
    MP2 Hybrid          =           TRUE

   => Exchange Functionals <=

    0.2900     XC_GGA_X_B88

   => Exact (HF) Exchange <=

    0.7100               HF 

   => Correlation Functionals <=

    0.5400     XC_GGA_C_LYP

   => MP2 Correlation <=

    MP2 SCS Hybrid      =           TRUE
    MP2 OS Alpha        =       0.470000
    MP2 SS Alpha        =       0.400000

   => Molecular Quadrature <=

    Radial Scheme          =       TREUTLER
    Pruning Scheme         =           FLAT
    Nuclear Scheme         =       TREUTLER

    BS radius alpha        =              1
    Pruning alpha          =              1
    Radial Points          =             75
    Spherical Points       =            302
    Total Points           =          90600
    Total Blocks           =            742
    Max Points             =            256
    Max Functions          =            261

   => DSD-BLYP-D3BJ: Empirical Dispersion <=

    Grimme's -D3 (BJ-damping) Dispersion Correction
    Grimme S.; Ehrlich S.; Goerigk L. (2011), J. Comput. Chem., 32: 1456
    Parametrisation from:    S. Kozuch, J.M.L. Martin, J. Comp. Chem., 34, 2327-2344, 2013

        s6 =       0.570000
        s8 =       0.000000
        a1 =       0.000000
        a2 =       5.400000

   => Loading Basis Set <=

    Name: (AUG-CC-PV(Q+D)Z AUX)
    Role: JKFIT
    Keyword: DF_BASIS_SCF
    atoms 1   entry C          line   178 file /work/zw18965/.conda/envs/p4env/share/psi4/basis/aug-cc-pvqz-jkfit.gbs 
    atoms 2   entry S          line   810 file /work/zw18965/.conda/envs/p4env/share/psi4/basis/aug-cc-pvqz-jkfit.gbs 
    atoms 3-4 entry H          line    70 file /work/zw18965/.conda/envs/p4env/share/psi4/basis/aug-cc-pvqz-jkfit.gbs 

  ==> Pre-Iterations <==

   -------------------------------------------------------
    Irrep   Nso     Nmo     Nalpha   Nbeta   Ndocc  Nsocc
   -------------------------------------------------------
     A        261     261       0       0       0       0
   -------------------------------------------------------
    Total     261     261      12      12      12       0
   -------------------------------------------------------

  ==> Integral Setup <==

  DFHelper Memory: AOs need 0.273 GiB; user supplied 99.971 GiB. Using in-core AOs.

  ==> MemDFJK: Density-Fitted J/K Matrices <==

    J tasked:                   Yes
    K tasked:                   Yes
    wK tasked:                   No
    OpenMP threads:              24
    Memory [MiB]:            102370
    Algorithm:                 Core
    Schwarz Cutoff:           1E-12
    Mask sparsity (%):       0.0411
    Fitting Condition:        1E-10

   => Auxiliary Basis Set <=

  Basis Set: (AUG-CC-PV(Q+D)Z AUX)
    Blend: AUG-CC-PVQZ-JKFIT
    Number of shells: 116
    Number of basis function: 478
    Number of Cartesian functions: 647
    Spherical Harmonics?: true
    Max angular momentum: 5

  Cached 100.0% of DFT collocation blocks in 0.612 [GiB].

  Minimum eigenvalue in the overlap matrix is 2.3416111217E-05.
  Using Symmetric Orthogonalization.

  SCF Guess: Superposition of Atomic Densities via on-the-fly atomic UHF.

  ==> Iterations <==

                           Total Energy        Delta E     RMS |[F,P]|

   @DF-RKS iter SAD:  -436.54622317335884   -4.36546e+02   0.00000e+00 
   @DF-RKS iter   1:  -437.00154342219281   -4.55320e-01   1.26401e-03 DIIS
   @DF-RKS iter   2:  -437.02369292610740   -2.21495e-02   9.59666e-04 DIIS
   @DF-RKS iter   3:  -437.05424934759304   -3.05564e-02   1.91786e-04 DIIS
   @DF-RKS iter   4:  -437.05568032983723   -1.43098e-03   5.39088e-05 DIIS
   @DF-RKS iter   5:  -437.05583179205212   -1.51462e-04   1.28794e-05 DIIS
   @DF-RKS iter   6:  -437.05584430052539   -1.25085e-05   5.87132e-06 DIIS
   @DF-RKS iter   7:  -437.05584735064946   -3.05012e-06   1.14839e-06 DIIS
   @DF-RKS iter   8:  -437.05584751207317   -1.61424e-07   2.01949e-07 DIIS
   @DF-RKS iter   9:  -437.05584751655340   -4.48023e-09   5.47973e-08 DIIS
   @DF-RKS iter  10:  -437.05584751678333   -2.29932e-10   5.75714e-09 DIIS
  Energy and wave function converged.


  ==> Post-Iterations <==

    Orbital Energies [Eh]
    ---------------------

    Doubly Occupied:                                                      

       1A    -90.862288     2A    -10.936917     3A     -8.596109  
       4A     -6.379706     5A     -6.378934     6A     -6.375004  
       7A     -0.973357     8A     -0.745078     9A     -0.579937  
      10A     -0.497252    11A     -0.389088    12A     -0.314463  

    Virtual:                                                              

      13A     -0.015626    14A      0.014502    15A      0.031353  
      16A      0.039563    17A      0.062639    18A      0.075423  
      19A      0.080045    20A      0.092153    21A      0.101721  
      22A      0.114241    23A      0.141441    24A      0.152716  
      25A      0.159061    26A      0.186158    27A      0.190400  
      28A      0.212008    29A      0.225060    30A      0.227133  
      31A      0.233844    32A      0.244570    33A      0.255311  
      34A      0.269045    35A      0.277038    36A      0.289000  
      37A      0.301482    38A      0.309320    39A      0.318386  
      40A      0.329966    41A      0.332511    42A      0.376540  
      43A      0.389977    44A      0.430437    45A      0.450924  
      46A      0.460348    47A      0.482204    48A      0.490366  
      49A      0.509902    50A      0.522104    51A      0.524691  
      52A      0.524849    53A      0.544005    54A      0.545176  
      55A      0.559444    56A      0.599518    57A      0.619001  
      58A      0.642483    59A      0.644995    60A      0.649537  
      61A      0.660111    62A      0.676761    63A      0.694593  
      64A      0.699185    65A      0.705474    66A      0.741142  
      67A      0.761350    68A      0.765583    69A      0.774428  
      70A      0.785429    71A      0.796608    72A      0.880802  
      73A      0.882463    74A      0.899825    75A      0.922635  
      76A      0.974320    77A      0.994798    78A      1.021628  
      79A      1.028570    80A      1.053732    81A      1.073380  
      82A      1.086745    83A      1.092584    84A      1.119070  
      85A      1.146246    86A      1.228858    87A      1.259192  
      88A      1.283519    89A      1.327734    90A      1.327990  
      91A      1.333300    92A      1.380869    93A      1.399011  
      94A      1.430535    95A      1.435878    96A      1.445336  
      97A      1.445748    98A      1.477310    99A      1.485501  
     100A      1.519218   101A      1.539442   102A      1.542987  
     103A      1.558453   104A      1.582981   105A      1.583542  
     106A      1.602941   107A      1.626206   108A      1.631490  
     109A      1.641767   110A      1.669126   111A      1.686618  
     112A      1.742281   113A      1.748566   114A      1.793616  
     115A      1.812427   116A      1.859323   117A      1.882608  
     118A      1.887751   119A      1.920604   120A      1.962884  
     121A      1.976176   122A      1.988835   123A      2.000443  
     124A      2.006621   125A      2.040384   126A      2.059661  
     127A      2.090977   128A      2.096553   129A      2.126855  
     130A      2.146003   131A      2.179212   132A      2.201841  
     133A      2.212039   134A      2.223697   135A      2.233614  
     136A      2.339608   137A      2.440064   138A      2.446764  
     139A      2.482208   140A      2.504358   141A      2.591497  
     142A      2.597644   143A      2.652570   144A      2.667228  
     145A      2.670085   146A      2.694228   147A      2.744958  
     148A      2.801726   149A      2.822484   150A      2.859255  
     151A      2.910872   152A      2.924108   153A      2.930497  
     154A      2.970828   155A      3.001165   156A      3.061835  
     157A      3.139402   158A      3.228930   159A      3.296583  
     160A      3.314337   161A      3.344207   162A      3.376689  
     163A      3.464558   164A      3.521617   165A      3.566831  
     166A      3.622257   167A      3.624091   168A      3.628571  
     169A      3.679458   170A      3.682963   171A      3.749125  
     172A      3.750650   173A      3.771695   174A      3.840270  
     175A      3.868037   176A      3.904227   177A      3.911946  
     178A      3.977328   179A      3.980182   180A      4.002911  
     181A      4.035689   182A      4.043852   183A      4.080477  
     184A      4.138321   185A      4.153613   186A      4.375538  
     187A      4.380514   188A      4.420535   189A      4.502086  
     190A      4.514497   191A      4.547119   192A      4.636581  
     193A      4.662772   194A      4.939572   195A      5.077287  
     196A      5.778469   197A      5.833371   198A      5.874838  
     199A      5.989535   200A      6.034079   201A      6.083369  
     202A      6.105644   203A      6.201975   204A      6.205000  
     205A      6.208477   206A      6.351789   207A      6.415126  
     208A      6.513026   209A      6.517401   210A      6.547699  
     211A      6.562946   212A      6.645178   213A      6.715892  
     214A      6.716010   215A      6.832054   216A      6.856914  
     217A      6.884997   218A      6.895580   219A      6.973681  
     220A      7.036676   221A      7.164770   222A      7.350936  
     223A      7.354933   224A      7.378319   225A      7.527916  
     226A      7.734786   227A      7.994415   228A      8.017587  
     229A      8.093618   230A      8.211049   231A      8.330906  
     232A      8.347327   233A      8.396378   234A      8.625269  
     235A      8.698862   236A      8.809398   237A      8.915988  
     238A      8.976935   239A      9.033031   240A      9.083736  
     241A      9.190966   242A      9.221630   243A      9.346566  
     244A      9.389129   245A      9.510847   246A      9.574405  
     247A      9.637663   248A      9.690304   249A      9.886044  
     250A      9.933381   251A      9.953353   252A     10.082704  
     253A     10.104053   254A     10.308524   255A     10.632095  
     256A     10.653388   257A     10.866259   258A     12.343709  
     259A     12.848018   260A     21.151138   261A     25.581448  

    Final Occupation by Irrep:
              A 
    DOCC [    12 ]

  @DF-RKS Final Energy:  -437.05584751678333

   => Energetics <=

    Nuclear Repulsion Energy =             44.7700511764224771
    One-Electron Energy =                -690.8358097404783393
    Two-Electron Energy =                 218.4548608013199669
    DFT Exchange-Correlation Energy =      -9.4425000540474162
    Empirical Dispersion Energy =          -0.0024497000000000
    VV10 Nonlocal Energy =                  0.0000000000000000
    Total Energy =                       -437.0558475167832739

Computation Completed


Properties will be evaluated at   0.000000,   0.000000,   0.000000 [a0]

Properties computed using the SCF density matrix

  Nuclear Dipole Moment: [e a0]
     X:    -3.1466      Y:     0.2501      Z:     0.0328

  Electronic Dipole Moment: [e a0]
     X:     2.3692      Y:    -0.1883      Z:    -0.0247

  Dipole Moment: [e a0]
     X:    -0.7774      Y:     0.0618      Z:     0.0081     Total:     0.7799

  Dipole Moment: [D]
     X:    -1.9761      Y:     0.1571      Z:     0.0206     Total:     1.9824


*** tstop() called on bp1-compute00146.data.bp.acrc.priv at Mon Apr 19 15:43:55 2021
Module time:
	user time   =      66.90 seconds =       1.11 minutes
	system time =       3.02 seconds =       0.05 minutes
	total time  =          3 seconds =       0.05 minutes
Total time:
	user time   =     231.59 seconds =       3.86 minutes
	system time =      11.75 seconds =       0.20 minutes
	total time  =         11 seconds =       0.18 minutes

*** tstart() called on bp1-compute00146.data.bp.acrc.priv
*** at Mon Apr 19 15:43:55 2021

   => Loading Basis Set <=

    Name: (AUG-CC-PV(Q+D)Z AUX)
    Role: RIFIT
    Keyword: DF_BASIS_MP2
    atoms 1   entry C          line   184 file /work/zw18965/.conda/envs/p4env/share/psi4/basis/aug-cc-pvqz-ri.gbs 
    atoms 2   entry S          line   824 file /work/zw18965/.conda/envs/p4env/share/psi4/basis/aug-cc-pvqz-ri.gbs 
    atoms 3-4 entry H          line    30 file /work/zw18965/.conda/envs/p4env/share/psi4/basis/aug-cc-pvqz-ri.gbs 

	 --------------------------------------------------------
	                          DF-MP2                         
	      2nd-Order Density-Fitted Moller-Plesset Theory     
	              RMP2 Wavefunction,  24 Threads             
	                                                         
	        Rob Parrish, Justin Turney, Andy Simmonett,      
	           Ed Hohenstein, and C. David Sherrill          
	 --------------------------------------------------------

   => Auxiliary Basis Set <=

  Basis Set: (AUG-CC-PV(Q+D)Z AUX)
    Blend: AUG-CC-PVQZ-RI
    Number of shells: 120
    Number of basis function: 522
    Number of Cartesian functions: 715
    Spherical Harmonics?: true
    Max angular momentum: 5

	 --------------------------------------------------------
	                 NBF =   261, NAUX =   522
	 --------------------------------------------------------
	   CLASS    FOCC     OCC    AOCC    AVIR     VIR    FVIR
	   PAIRS       0      12      12     249     249       0
	 --------------------------------------------------------

	-----------------------------------------------------------
	 ==================> DF-MP2 Energies <==================== 
	-----------------------------------------------------------
	 Reference Energy          =    -437.0558475167833308 [Eh]
	 Singles Energy            =      -0.0000000000000000 [Eh]
	 Same-Spin Energy          =      -0.1366104192203622 [Eh]
	 Opposite-Spin Energy      =      -0.4348792258318731 [Eh]
	 Correlation Energy        =      -0.5714896450522352 [Eh]
	 Total Energy              =    -437.6273371618355554 [Eh]
	-----------------------------------------------------------
	 ================> DF-SCS-MP2 Energies <================== 
	-----------------------------------------------------------
	 SCS Same-Spin Scale       =       0.4000000000000000 [-]
	 SCS Opposite-Spin Scale   =       0.4700000000000000 [-]
	 SCS Same-Spin Energy      =      -0.0546441676881449 [Eh]
	 SCS Opposite-Spin Energy  =      -0.2043932361409803 [Eh]
	 SCS Correlation Energy    =      -0.2590374038291252 [Eh]
	 SCS Total Energy          =    -437.3148849206124282 [Eh]
	-----------------------------------------------------------



    DSD-BLYP-D3BJ Energy Summary
    ----------------------------
    DFT Reference Energy                  =  -437.0558475167833308
    Scaled MP2 Correlation                =    -0.2590374038291252
    @Final double-hybrid DFT total energy =  -437.3148849206124282


*** tstop() called on bp1-compute00146.data.bp.acrc.priv at Mon Apr 19 15:43:56 2021
Module time:
	user time   =      13.60 seconds =       0.23 minutes
	system time =       0.60 seconds =       0.01 minutes
	total time  =          1 seconds =       0.02 minutes
Total time:
	user time   =     245.20 seconds =       4.09 minutes
	system time =      12.36 seconds =       0.21 minutes
	total time  =         12 seconds =       0.20 minutes

  //>>>>>>>>>>>>>>>>>>>>>>>>>>>>>>>>>>>//
  //    Loading displacement 4 of 13   //
  //<<<<<<<<<<<<<<<<<<<<<<<<<<<<<<<<<<<//

*** tstart() called on bp1-compute00146.data.bp.acrc.priv
*** at Mon Apr 19 15:43:56 2021

   => Loading Basis Set <=

    Name: AUG-CC-PV(Q+D)Z
    Role: ORBITAL
    Keyword: BASIS
    atoms 1   entry C          line   319 file /work/zw18965/.conda/envs/p4env/share/psi4/basis/aug-cc-pv_qpd_z.gbs 
    atoms 2   entry S          line  1148 file /work/zw18965/.conda/envs/p4env/share/psi4/basis/aug-cc-pv_qpd_z.gbs 
    atoms 3-4 entry H          line    56 file /work/zw18965/.conda/envs/p4env/share/psi4/basis/aug-cc-pv_qpd_z.gbs 


         ---------------------------------------------------------
                                   SCF
               by Justin Turney, Rob Parrish, Andy Simmonett
                          and Daniel G. A. Smith
                              RKS Reference
                       24 Threads, 137329 MiB Core
         ---------------------------------------------------------

  ==> Geometry <==

    Molecular point group: c1
    Full point group: C1

    Geometry (in Angstrom), charge = 0, multiplicity = 1:

       Center              X                  Y                   Z               Mass       
    ------------   -----------------  -----------------  -----------------  -----------------
         C           -1.090248296876     0.086333191456     0.011330587138    12.000000000000
         S            0.515439588105    -0.040954646441    -0.005358496826    31.972071174400
         H           -1.658613054448     0.351549182539     0.900851020520     1.007825032230
         H           -1.711705726960    -0.080265413308    -0.865770331799     1.007825032230

  Running in c1 symmetry.

  Rotational constants: A =     10.10604  B =      0.58809  C =      0.55575 [cm^-1]
  Rotational constants: A = 302971.37885  B =  17630.42142  C =  16660.90268 [MHz]
  Nuclear repulsion =   44.755937358565163

  Charge       = 0
  Multiplicity = 1
  Electrons    = 24
  Nalpha       = 12
  Nbeta        = 12

  ==> Algorithm <==

  SCF Algorithm Type is DF.
  DIIS enabled.
  MOM disabled.
  Fractional occupation disabled.
  Guess Type is SAD.
  Energy threshold   = 1.00e-08
  Density threshold  = 1.00e-08
  Integral threshold = 0.00e+00

  ==> Primary Basis <==

  Basis Set: AUG-CC-PV(Q+D)Z
    Blend: AUG-CC-PV(Q+D)Z
    Number of shells: 71
    Number of basis function: 261
    Number of Cartesian functions: 330
    Spherical Harmonics?: true
    Max angular momentum: 4

  ==> DFT Potential <==

   => Composite Functional: DSD-BLYP-D3BJ <= 

    DSD-BLYP-D3BJ Dispersion-corrected SCS Double Hybrid XC Functional

    S. Kozuch, J.M.L. Martin, J. Comp. Chem., 34, 2327-2344, 2013


    Deriv               =              1
    GGA                 =           TRUE
    Meta                =          FALSE

    Exchange Hybrid     =           TRUE
    MP2 Hybrid          =           TRUE

   => Exchange Functionals <=

    0.2900     XC_GGA_X_B88

   => Exact (HF) Exchange <=

    0.7100               HF 

   => Correlation Functionals <=

    0.5400     XC_GGA_C_LYP

   => MP2 Correlation <=

    MP2 SCS Hybrid      =           TRUE
    MP2 OS Alpha        =       0.470000
    MP2 SS Alpha        =       0.400000

   => Molecular Quadrature <=

    Radial Scheme          =       TREUTLER
    Pruning Scheme         =           FLAT
    Nuclear Scheme         =       TREUTLER

    BS radius alpha        =              1
    Pruning alpha          =              1
    Radial Points          =             75
    Spherical Points       =            302
    Total Points           =          90600
    Total Blocks           =            739
    Max Points             =            256
    Max Functions          =            261

   => DSD-BLYP-D3BJ: Empirical Dispersion <=

    Grimme's -D3 (BJ-damping) Dispersion Correction
    Grimme S.; Ehrlich S.; Goerigk L. (2011), J. Comput. Chem., 32: 1456
    Parametrisation from:    S. Kozuch, J.M.L. Martin, J. Comp. Chem., 34, 2327-2344, 2013

        s6 =       0.570000
        s8 =       0.000000
        a1 =       0.000000
        a2 =       5.400000

   => Loading Basis Set <=

    Name: (AUG-CC-PV(Q+D)Z AUX)
    Role: JKFIT
    Keyword: DF_BASIS_SCF
    atoms 1   entry C          line   178 file /work/zw18965/.conda/envs/p4env/share/psi4/basis/aug-cc-pvqz-jkfit.gbs 
    atoms 2   entry S          line   810 file /work/zw18965/.conda/envs/p4env/share/psi4/basis/aug-cc-pvqz-jkfit.gbs 
    atoms 3-4 entry H          line    70 file /work/zw18965/.conda/envs/p4env/share/psi4/basis/aug-cc-pvqz-jkfit.gbs 

  ==> Pre-Iterations <==

   -------------------------------------------------------
    Irrep   Nso     Nmo     Nalpha   Nbeta   Ndocc  Nsocc
   -------------------------------------------------------
     A        261     261       0       0       0       0
   -------------------------------------------------------
    Total     261     261      12      12      12       0
   -------------------------------------------------------

  ==> Integral Setup <==

  DFHelper Memory: AOs need 0.273 GiB; user supplied 99.971 GiB. Using in-core AOs.

  ==> MemDFJK: Density-Fitted J/K Matrices <==

    J tasked:                   Yes
    K tasked:                   Yes
    wK tasked:                   No
    OpenMP threads:              24
    Memory [MiB]:            102370
    Algorithm:                 Core
    Schwarz Cutoff:           1E-12
    Mask sparsity (%):       0.0411
    Fitting Condition:        1E-10

   => Auxiliary Basis Set <=

  Basis Set: (AUG-CC-PV(Q+D)Z AUX)
    Blend: AUG-CC-PVQZ-JKFIT
    Number of shells: 116
    Number of basis function: 478
    Number of Cartesian functions: 647
    Spherical Harmonics?: true
    Max angular momentum: 5

  Cached 100.0% of DFT collocation blocks in 0.612 [GiB].

  Minimum eigenvalue in the overlap matrix is 2.3424402950E-05.
  Using Symmetric Orthogonalization.

  SCF Guess: Superposition of Atomic Densities via on-the-fly atomic UHF.

  ==> Iterations <==

                           Total Energy        Delta E     RMS |[F,P]|

   @DF-RKS iter SAD:  -436.54520136952698   -4.36545e+02   0.00000e+00 
   @DF-RKS iter   1:  -437.00154932523662   -4.56348e-01   1.26362e-03 DIIS
   @DF-RKS iter   2:  -437.02366553869928   -2.21162e-02   9.59741e-04 DIIS
   @DF-RKS iter   3:  -437.05423459076445   -3.05691e-02   1.92005e-04 DIIS
   @DF-RKS iter   4:  -437.05566950756713   -1.43492e-03   5.39620e-05 DIIS
   @DF-RKS iter   5:  -437.05582139158275   -1.51884e-04   1.29118e-05 DIIS
   @DF-RKS iter   6:  -437.05583397430792   -1.25827e-05   5.89191e-06 DIIS
   @DF-RKS iter   7:  -437.05583704985759   -3.07555e-06   1.15221e-06 DIIS
   @DF-RKS iter   8:  -437.05583721252475   -1.62667e-07   2.02271e-07 DIIS
   @DF-RKS iter   9:  -437.05583721701811   -4.49336e-09   5.48987e-08 DIIS
   @DF-RKS iter  10:  -437.05583721724724   -2.29136e-10   5.76747e-09 DIIS
  Energy and wave function converged.


  ==> Post-Iterations <==

    Orbital Energies [Eh]
    ---------------------

    Doubly Occupied:                                                      

       1A    -90.862339     2A    -10.936965     3A     -8.596128  
       4A     -6.379726     5A     -6.378953     6A     -6.375024  
       7A     -0.973166     8A     -0.745208     9A     -0.580175  
      10A     -0.497132    11A     -0.388925    12A     -0.314499  

    Virtual:                                                              

      13A     -0.015741    14A      0.014496    15A      0.031351  
      16A      0.039564    17A      0.062645    18A      0.075426  
      19A      0.080053    20A      0.092150    21A      0.101713  
      22A      0.114243    23A      0.141429    24A      0.152685  
      25A      0.159060    26A      0.186205    27A      0.190380  
      28A      0.212018    29A      0.225075    30A      0.227139  
      31A      0.233843    32A      0.244566    33A      0.255301  
      34A      0.269035    35A      0.277008    36A      0.288973  
      37A      0.301564    38A      0.309309    39A      0.318298  
      40A      0.329989    41A      0.332541    42A      0.376406  
      43A      0.390028    44A      0.430419    45A      0.451072  
      46A      0.460344    47A      0.482217    48A      0.490403  
      49A      0.509882    50A      0.522005    51A      0.524642  
      52A      0.524831    53A      0.544048    54A      0.545155  
      55A      0.559446    56A      0.599562    57A      0.619046  
      58A      0.642442    59A      0.645067    60A      0.649554  
      61A      0.660102    62A      0.676704    63A      0.694524  
      64A      0.699109    65A      0.705465    66A      0.741156  
      67A      0.761358    68A      0.765541    69A      0.774456  
      70A      0.785359    71A      0.796516    72A      0.880775  
      73A      0.882260    74A      0.899890    75A      0.922556  
      76A      0.974406    77A      0.994659    78A      1.021649  
      79A      1.028784    80A      1.053665    81A      1.073296  
      82A      1.086674    83A      1.092620    84A      1.118990  
      85A      1.146227    86A      1.228986    87A      1.259247  
      88A      1.283400    89A      1.327474    90A      1.327909  
      91A      1.333330    92A      1.380772    93A      1.399013  
      94A      1.430613    95A      1.435911    96A      1.445332  
      97A      1.445723    98A      1.477321    99A      1.485516  
     100A      1.519108   101A      1.539309   102A      1.542927  
     103A      1.558217   104A      1.582958   105A      1.583393  
     106A      1.602915   107A      1.626271   108A      1.631374  
     109A      1.641789   110A      1.669008   111A      1.686544  
     112A      1.742064   113A      1.748370   114A      1.793335  
     115A      1.812510   116A      1.859103   117A      1.882626  
     118A      1.887406   119A      1.920387   120A      1.962827  
     121A      1.975927   122A      1.988721   123A      2.000422  
     124A      2.006502   125A      2.040263   126A      2.059667  
     127A      2.091241   128A      2.096556   129A      2.126999  
     130A      2.146302   131A      2.179356   132A      2.202089  
     133A      2.212231   134A      2.223598   135A      2.233581  
     136A      2.339615   137A      2.440218   138A      2.446692  
     139A      2.482196   140A      2.504277   141A      2.591219  
     142A      2.597637   143A      2.652084   144A      2.667249  
     145A      2.670245   146A      2.694218   147A      2.744977  
     148A      2.801189   149A      2.822454   150A      2.859563  
     151A      2.910820   152A      2.923717   153A      2.930271  
     154A      2.970215   155A      3.000980   156A      3.061753  
     157A      3.139216   158A      3.229387   159A      3.295784  
     160A      3.314662   161A      3.344228   162A      3.377149  
     163A      3.464667   164A      3.521698   165A      3.567131  
     166A      3.622333   167A      3.624105   168A      3.628509  
     169A      3.679919   170A      3.683143   171A      3.749029  
     172A      3.750570   173A      3.771735   174A      3.840278  
     175A      3.868175   176A      3.903870   177A      3.911628  
     178A      3.977176   179A      3.979829   180A      4.002785  
     181A      4.034977   182A      4.043605   183A      4.081020  
     184A      4.138100   185A      4.154255   186A      4.375457  
     187A      4.380458   188A      4.419544   189A      4.501981  
     190A      4.514160   191A      4.546489   192A      4.637177  
     193A      4.663799   194A      4.939395   195A      5.077003  
     196A      5.777843   197A      5.833026   198A      5.874842  
     199A      5.988813   200A      6.033624   201A      6.083132  
     202A      6.105924   203A      6.200515   204A      6.204608  
     205A      6.208270   206A      6.351382   207A      6.414196  
     208A      6.513212   209A      6.517284   210A      6.546575  
     211A      6.562641   212A      6.645331   213A      6.715961  
     214A      6.716607   215A      6.832354   216A      6.858689  
     217A      6.884411   218A      6.895991   219A      6.974035  
     220A      7.037769   221A      7.164520   222A      7.350248  
     223A      7.354350   224A      7.379591   225A      7.528900  
     226A      7.734193   227A      7.994631   228A      8.019969  
     229A      8.094322   230A      8.211061   231A      8.330936  
     232A      8.347827   233A      8.395390   234A      8.625537  
     235A      8.698453   236A      8.809313   237A      8.916330  
     238A      8.978160   239A      9.034203   240A      9.083872  
     241A      9.190855   242A      9.221598   243A      9.347406  
     244A      9.388932   245A      9.511683   246A      9.574843  
     247A      9.637645   248A      9.690525   249A      9.885369  
     250A      9.934051   251A      9.954895   252A     10.086069  
     253A     10.107131   254A     10.309686   255A     10.634329  
     256A     10.653691   257A     10.869090   258A     12.344407  
     259A     12.851953   260A     21.143537   261A     25.587148  

    Final Occupation by Irrep:
              A 
    DOCC [    12 ]

  @DF-RKS Final Energy:  -437.05583721724724

   => Energetics <=

    Nuclear Repulsion Energy =             44.7559373585651628
    One-Electron Energy =                -690.8073793243746650
    Two-Electron Energy =                 218.4405089904065846
    DFT Exchange-Correlation Energy =      -9.4424546718442617
    Empirical Dispersion Energy =          -0.0024495700000000
    VV10 Nonlocal Energy =                  0.0000000000000000
    Total Energy =                       -437.0558372172472446

Computation Completed


Properties will be evaluated at   0.000000,   0.000000,   0.000000 [a0]

Properties computed using the SCF density matrix

  Nuclear Dipole Moment: [e a0]
     X:    -3.1460      Y:     0.2532      Z:     0.0327

  Electronic Dipole Moment: [e a0]
     X:     2.3676      Y:    -0.1903      Z:    -0.0249

  Dipole Moment: [e a0]
     X:    -0.7783      Y:     0.0629      Z:     0.0079     Total:     0.7809

  Dipole Moment: [D]
     X:    -1.9783      Y:     0.1599      Z:     0.0200     Total:     1.9849


*** tstop() called on bp1-compute00146.data.bp.acrc.priv at Mon Apr 19 15:43:59 2021
Module time:
	user time   =      68.48 seconds =       1.14 minutes
	system time =       2.60 seconds =       0.04 minutes
	total time  =          3 seconds =       0.05 minutes
Total time:
	user time   =     313.83 seconds =       5.23 minutes
	system time =      14.97 seconds =       0.25 minutes
	total time  =         15 seconds =       0.25 minutes

*** tstart() called on bp1-compute00146.data.bp.acrc.priv
*** at Mon Apr 19 15:43:59 2021

   => Loading Basis Set <=

    Name: (AUG-CC-PV(Q+D)Z AUX)
    Role: RIFIT
    Keyword: DF_BASIS_MP2
    atoms 1   entry C          line   184 file /work/zw18965/.conda/envs/p4env/share/psi4/basis/aug-cc-pvqz-ri.gbs 
    atoms 2   entry S          line   824 file /work/zw18965/.conda/envs/p4env/share/psi4/basis/aug-cc-pvqz-ri.gbs 
    atoms 3-4 entry H          line    30 file /work/zw18965/.conda/envs/p4env/share/psi4/basis/aug-cc-pvqz-ri.gbs 

	 --------------------------------------------------------
	                          DF-MP2                         
	      2nd-Order Density-Fitted Moller-Plesset Theory     
	              RMP2 Wavefunction,  24 Threads             
	                                                         
	        Rob Parrish, Justin Turney, Andy Simmonett,      
	           Ed Hohenstein, and C. David Sherrill          
	 --------------------------------------------------------

   => Auxiliary Basis Set <=

  Basis Set: (AUG-CC-PV(Q+D)Z AUX)
    Blend: AUG-CC-PVQZ-RI
    Number of shells: 120
    Number of basis function: 522
    Number of Cartesian functions: 715
    Spherical Harmonics?: true
    Max angular momentum: 5

	 --------------------------------------------------------
	                 NBF =   261, NAUX =   522
	 --------------------------------------------------------
	   CLASS    FOCC     OCC    AOCC    AVIR     VIR    FVIR
	   PAIRS       0      12      12     249     249       0
	 --------------------------------------------------------

	-----------------------------------------------------------
	 ==================> DF-MP2 Energies <==================== 
	-----------------------------------------------------------
	 Reference Energy          =    -437.0558372172472446 [Eh]
	 Singles Energy            =      -0.0000000000000000 [Eh]
	 Same-Spin Energy          =      -0.1366138069696192 [Eh]
	 Opposite-Spin Energy      =      -0.4349047487215554 [Eh]
	 Correlation Energy        =      -0.5715185556911746 [Eh]
	 Total Energy              =    -437.6273557729384152 [Eh]
	-----------------------------------------------------------
	 ================> DF-SCS-MP2 Energies <================== 
	-----------------------------------------------------------
	 SCS Same-Spin Scale       =       0.4000000000000000 [-]
	 SCS Opposite-Spin Scale   =       0.4700000000000000 [-]
	 SCS Same-Spin Energy      =      -0.0546455227878477 [Eh]
	 SCS Opposite-Spin Energy  =      -0.2044052318991310 [Eh]
	 SCS Correlation Energy    =      -0.2590507546869787 [Eh]
	 SCS Total Energy          =    -437.3148879719342403 [Eh]
	-----------------------------------------------------------



    DSD-BLYP-D3BJ Energy Summary
    ----------------------------
    DFT Reference Energy                  =  -437.0558372172472446
    Scaled MP2 Correlation                =    -0.2590507546869787
    @Final double-hybrid DFT total energy =  -437.3148879719342403


*** tstop() called on bp1-compute00146.data.bp.acrc.priv at Mon Apr 19 15:44:00 2021
Module time:
	user time   =      14.15 seconds =       0.24 minutes
	system time =       0.59 seconds =       0.01 minutes
	total time  =          1 seconds =       0.02 minutes
Total time:
	user time   =     327.99 seconds =       5.47 minutes
	system time =      15.57 seconds =       0.26 minutes
	total time  =         16 seconds =       0.27 minutes

  //>>>>>>>>>>>>>>>>>>>>>>>>>>>>>>>>>>>//
  //    Loading displacement 5 of 13   //
  //<<<<<<<<<<<<<<<<<<<<<<<<<<<<<<<<<<<//

*** tstart() called on bp1-compute00146.data.bp.acrc.priv
*** at Mon Apr 19 15:44:00 2021

   => Loading Basis Set <=

    Name: AUG-CC-PV(Q+D)Z
    Role: ORBITAL
    Keyword: BASIS
    atoms 1   entry C          line   319 file /work/zw18965/.conda/envs/p4env/share/psi4/basis/aug-cc-pv_qpd_z.gbs 
    atoms 2   entry S          line  1148 file /work/zw18965/.conda/envs/p4env/share/psi4/basis/aug-cc-pv_qpd_z.gbs 
    atoms 3-4 entry H          line    56 file /work/zw18965/.conda/envs/p4env/share/psi4/basis/aug-cc-pv_qpd_z.gbs 


         ---------------------------------------------------------
                                   SCF
               by Justin Turney, Rob Parrish, Andy Simmonett
                          and Daniel G. A. Smith
                              RKS Reference
                       24 Threads, 137329 MiB Core
         ---------------------------------------------------------

  ==> Geometry <==

    Molecular point group: c1
    Full point group: C1

    Geometry (in Angstrom), charge = 0, multiplicity = 1:

       Center              X                  Y                   Z               Mass       
    ------------   -----------------  -----------------  -----------------  -----------------
         C           -1.090248296876     0.087082919480     0.011350889338    12.000000000000
         S            0.515454326491    -0.041033723575    -0.005368095295    31.972071174400
         H           -1.659138579596     0.348363348715     0.900885429156     1.007825032230
         H           -1.711647759860    -0.083497832964    -0.865741975047     1.007825032230

  Running in c1 symmetry.

  Rotational constants: A =     10.10604  B =      0.58804  C =      0.55571 [cm^-1]
  Rotational constants: A = 302971.38473  B =  17629.11852  C =  16659.73914 [MHz]
  Nuclear repulsion =   44.754594909476268

  Charge       = 0
  Multiplicity = 1
  Electrons    = 24
  Nalpha       = 12
  Nbeta        = 12

  ==> Algorithm <==

  SCF Algorithm Type is DF.
  DIIS enabled.
  MOM disabled.
  Fractional occupation disabled.
  Guess Type is SAD.
  Energy threshold   = 1.00e-08
  Density threshold  = 1.00e-08
  Integral threshold = 0.00e+00

  ==> Primary Basis <==

  Basis Set: AUG-CC-PV(Q+D)Z
    Blend: AUG-CC-PV(Q+D)Z
    Number of shells: 71
    Number of basis function: 261
    Number of Cartesian functions: 330
    Spherical Harmonics?: true
    Max angular momentum: 4

  ==> DFT Potential <==

   => Composite Functional: DSD-BLYP-D3BJ <= 

    DSD-BLYP-D3BJ Dispersion-corrected SCS Double Hybrid XC Functional

    S. Kozuch, J.M.L. Martin, J. Comp. Chem., 34, 2327-2344, 2013


    Deriv               =              1
    GGA                 =           TRUE
    Meta                =          FALSE

    Exchange Hybrid     =           TRUE
    MP2 Hybrid          =           TRUE

   => Exchange Functionals <=

    0.2900     XC_GGA_X_B88

   => Exact (HF) Exchange <=

    0.7100               HF 

   => Correlation Functionals <=

    0.5400     XC_GGA_C_LYP

   => MP2 Correlation <=

    MP2 SCS Hybrid      =           TRUE
    MP2 OS Alpha        =       0.470000
    MP2 SS Alpha        =       0.400000

   => Molecular Quadrature <=

    Radial Scheme          =       TREUTLER
    Pruning Scheme         =           FLAT
    Nuclear Scheme         =       TREUTLER

    BS radius alpha        =              1
    Pruning alpha          =              1
    Radial Points          =             75
    Spherical Points       =            302
    Total Points           =          90600
    Total Blocks           =            741
    Max Points             =            254
    Max Functions          =            261

   => DSD-BLYP-D3BJ: Empirical Dispersion <=

    Grimme's -D3 (BJ-damping) Dispersion Correction
    Grimme S.; Ehrlich S.; Goerigk L. (2011), J. Comput. Chem., 32: 1456
    Parametrisation from:    S. Kozuch, J.M.L. Martin, J. Comp. Chem., 34, 2327-2344, 2013

        s6 =       0.570000
        s8 =       0.000000
        a1 =       0.000000
        a2 =       5.400000

   => Loading Basis Set <=

    Name: (AUG-CC-PV(Q+D)Z AUX)
    Role: JKFIT
    Keyword: DF_BASIS_SCF
    atoms 1   entry C          line   178 file /work/zw18965/.conda/envs/p4env/share/psi4/basis/aug-cc-pvqz-jkfit.gbs 
    atoms 2   entry S          line   810 file /work/zw18965/.conda/envs/p4env/share/psi4/basis/aug-cc-pvqz-jkfit.gbs 
    atoms 3-4 entry H          line    70 file /work/zw18965/.conda/envs/p4env/share/psi4/basis/aug-cc-pvqz-jkfit.gbs 

  ==> Pre-Iterations <==

[...]
      70A      0.784423    71A      0.793586    72A      0.877460  
      73A      0.882577    74A      0.905032    75A      0.921865  
      76A      0.978268    77A      0.990921    78A      1.022378  
      79A      1.033146    80A      1.053617    81A      1.079038  
      82A      1.088893    83A      1.095504    84A      1.120758  
      85A      1.143209    86A      1.230139    87A      1.258050  
      88A      1.282209    89A      1.322752    90A      1.326092  
      91A      1.335565    92A      1.378436    93A      1.398458  
      94A      1.434100    95A      1.436892    96A      1.446904  
      97A      1.447003    98A      1.481072    99A      1.485619  
     100A      1.518342   101A      1.533114   102A      1.535788  
     103A      1.561089   104A      1.583310   105A      1.584548  
     106A      1.606696   107A      1.630366   108A      1.637689  
     109A      1.642074   110A      1.672048   111A      1.693743  
     112A      1.738947   113A      1.743890   114A      1.786928  
     115A      1.822058   116A      1.861870   117A      1.874580  
     118A      1.891547   119A      1.919659   120A      1.968884  
     121A      1.970906   122A      1.985965   123A      1.996986  
     124A      1.999511   125A      2.034005   126A      2.067642  
     127A      2.095125   128A      2.099268   129A      2.134991  
     130A      2.156217   131A      2.188373   132A      2.214308  
     133A      2.221324   134A      2.224803   135A      2.238031  
     136A      2.345095   137A      2.439446   138A      2.453347  
     139A      2.484336   140A      2.512231   141A      2.594937  
     142A      2.596551   143A      2.653117   144A      2.664196  
     145A      2.674263   146A      2.694845   147A      2.752400  
     148A      2.793659   149A      2.824074   150A      2.878276  
     151A      2.913006   152A      2.913112   153A      2.933949  
     154A      2.967864   155A      3.003117   156A      3.067760  
     157A      3.151289   158A      3.238773   159A      3.299069  
     160A      3.337165   161A      3.352382   162A      3.389407  
     163A      3.470448   164A      3.508195   165A      3.574619  
     166A      3.624651   167A      3.624682   168A      3.631998  
     169A      3.680633   170A      3.689529   171A      3.747748  
     172A      3.766158   173A      3.774319   174A      3.840896  
     175A      3.876556   176A      3.902809   177A      3.907047  
     178A      3.990638   179A      3.992349   180A      4.018847  
     181A      4.039686   182A      4.052573   183A      4.097836  
     184A      4.157028   185A      4.170106   186A      4.375420  
     187A      4.378134   188A      4.410670   189A      4.522564  
     190A      4.525007   191A      4.549592   192A      4.648305  
     193A      4.681350   194A      4.949907   195A      5.065860  
     196A      5.770179   197A      5.835778   198A      5.881526  
     199A      5.981856   200A      6.044365   201A      6.078946  
     202A      6.112351   203A      6.176214   204A      6.201518  
     205A      6.208953   206A      6.367386   207A      6.412296  
     208A      6.525546   209A      6.530971   210A      6.551195  
     211A      6.588925   212A      6.652838   213A      6.719943  
     214A      6.724177   215A      6.845518   216A      6.877482  
     217A      6.901399   218A      6.912750   219A      7.000016  
     220A      7.054742   221A      7.142927   222A      7.364999  
     223A      7.383313   224A      7.406447   225A      7.561162  
     226A      7.700656   227A      8.000267   228A      8.108723  
     229A      8.163001   230A      8.209962   231A      8.343479  
     232A      8.355446   233A      8.368309   234A      8.666016  
     235A      8.675616   236A      8.803236   237A      8.919066  
     238A      9.004722   239A      9.053379   240A      9.094382  
     241A      9.186908   242A      9.228034   243A      9.362760  
     244A      9.389927   245A      9.551439   246A      9.589058  
     247A      9.646373   248A      9.722300   249A      9.895527  
     250A      9.945475   251A     10.008331   252A     10.137046  
     253A     10.158835   254A     10.327402   255A     10.665275  
     256A     10.687106   257A     10.935107   258A     12.364472  
     259A     12.907474   260A     21.170901   261A     25.682104  

    Final Occupation by Irrep:
              A 
    DOCC [    12 ]

  @DF-RKS Final Energy:  -437.05636552877650

   => Energetics <=

    Nuclear Repulsion Energy =             45.0090698796841338
    One-Electron Energy =                -691.3169724866572778
    Two-Electron Energy =                 218.6993563664526334
    DFT Exchange-Correlation Energy =      -9.4453579482559995
    Empirical Dispersion Energy =          -0.0024613400000000
    VV10 Nonlocal Energy =                  0.0000000000000000
    Total Energy =                       -437.0563655287764959

Computation Completed


Properties will be evaluated at   0.000000,   0.000000,   0.000000 [a0]

Properties computed using the SCF density matrix

  Nuclear Dipole Moment: [e a0]
     X:    -3.0937      Y:     0.2464      Z:     0.0336

  Electronic Dipole Moment: [e a0]
     X:     2.3213      Y:    -0.1850      Z:    -0.0258

  Dipole Moment: [e a0]
     X:    -0.7725      Y:     0.0614      Z:     0.0078     Total:     0.7750

  Dipole Moment: [D]
     X:    -1.9635      Y:     0.1560      Z:     0.0197     Total:     1.9697


*** tstop() called on bp1-compute00146.data.bp.acrc.priv at Mon Apr 19 15:50:20 2021
Module time:
	user time   =      75.07 seconds =       1.25 minutes
	system time =       2.38 seconds =       0.04 minutes
	total time  =          3 seconds =       0.05 minutes
Total time:
	user time   =    7970.42 seconds =     132.84 minutes
	system time =     286.25 seconds =       4.77 minutes
	total time  =        396 seconds =       6.60 minutes

*** tstart() called on bp1-compute00146.data.bp.acrc.priv
*** at Mon Apr 19 15:50:20 2021

   => Loading Basis Set <=

    Name: (AUG-CC-PV(Q+D)Z AUX)
    Role: RIFIT
    Keyword: DF_BASIS_MP2
    atoms 1   entry C          line   184 file /work/zw18965/.conda/envs/p4env/share/psi4/basis/aug-cc-pvqz-ri.gbs 
    atoms 2   entry S          line   824 file /work/zw18965/.conda/envs/p4env/share/psi4/basis/aug-cc-pvqz-ri.gbs 
    atoms 3-4 entry H          line    30 file /work/zw18965/.conda/envs/p4env/share/psi4/basis/aug-cc-pvqz-ri.gbs 

	 --------------------------------------------------------
	                          DF-MP2                         
	      2nd-Order Density-Fitted Moller-Plesset Theory     
	              RMP2 Wavefunction,  24 Threads             
	                                                         
	        Rob Parrish, Justin Turney, Andy Simmonett,      
	           Ed Hohenstein, and C. David Sherrill          
	 --------------------------------------------------------

   => Auxiliary Basis Set <=

  Basis Set: (AUG-CC-PV(Q+D)Z AUX)
    Blend: AUG-CC-PVQZ-RI
    Number of shells: 120
    Number of basis function: 522
    Number of Cartesian functions: 715
    Spherical Harmonics?: true
    Max angular momentum: 5

	 --------------------------------------------------------
	                 NBF =   261, NAUX =   522
	 --------------------------------------------------------
	   CLASS    FOCC     OCC    AOCC    AVIR     VIR    FVIR
	   PAIRS       0      12      12     249     249       0
	 --------------------------------------------------------

	-----------------------------------------------------------
	 ==================> DF-MP2 Energies <==================== 
	-----------------------------------------------------------
	 Reference Energy          =    -437.0563655287764959 [Eh]
	 Singles Energy            =      -0.0000000000000000 [Eh]
	 Same-Spin Energy          =      -0.1365313939380007 [Eh]
	 Opposite-Spin Energy      =      -0.4344200057337912 [Eh]
	 Correlation Energy        =      -0.5709513996717919 [Eh]
	 Total Energy              =    -437.6273169284482947 [Eh]
	-----------------------------------------------------------
	 ================> DF-SCS-MP2 Energies <================== 
	-----------------------------------------------------------
	 SCS Same-Spin Scale       =       0.4000000000000000 [-]
	 SCS Opposite-Spin Scale   =       0.4700000000000000 [-]
	 SCS Same-Spin Energy      =      -0.0546125575752003 [Eh]
	 SCS Opposite-Spin Energy  =      -0.2041774026948819 [Eh]
	 SCS Correlation Energy    =      -0.2587899602700822 [Eh]
	 SCS Total Energy          =    -437.3151554890465604 [Eh]
	-----------------------------------------------------------



    DSD-BLYP-D3BJ Energy Summary
    ----------------------------
    DFT Reference Energy                  =  -437.0563655287764959
    Scaled MP2 Correlation                =    -0.2587899602700822
    @Final double-hybrid DFT total energy =  -437.3151554890465604


*** tstop() called on bp1-compute00146.data.bp.acrc.priv at Mon Apr 19 15:50:21 2021
Module time:
	user time   =      13.82 seconds =       0.23 minutes
	system time =       0.55 seconds =       0.01 minutes
	total time  =          1 seconds =       0.02 minutes
Total time:
	user time   =    7984.25 seconds =     133.07 minutes
	system time =     286.80 seconds =       4.78 minutes
	total time  =        397 seconds =       6.62 minutes

         ----------------------------------------------------------
                                   FINDIF
                     R. A. King and Jonathon Misiewicz
         ---------------------------------------------------------

  Computing second-derivative from energies using projected, 
  symmetry-adapted, cartesian coordinates.

  43 energies passed in, including the reference geometry.
    Using 3-point formula.
    Energy without displacement: -437.3151621549
    Check energies below for precision!
    0: -1        :      -437.3151613992
    0: 1         :      -437.3151610947
    1: -1        :      -437.3151615272
    1: 1         :      -437.3151615454
    2: -1        :      -437.3151599635
    2: 1         :      -437.3151599757
    3: -1        :      -437.3151605203
    3: 1         :      -437.3151603508
    4: -1        :      -437.3151591124
    4: 1         :      -437.3151591189
    5: -1        :      -437.3151585355
    5: 1         :      -437.3151585528
    0: 1, 1: 1   :      -437.3151604945
    0: -1, 1: -1 :      -437.3151607838
    0: 1, 2: 1   :      -437.3151588677
    0: -1, 2: -1 :      -437.3151591452
    1: 1, 2: 1   :      -437.3151584938
    1: -1, 2: -1 :      -437.3151584647
    0: 1, 3: 1   :      -437.3151580427
    0: -1, 3: -1 :      -437.3151585143
    1: 1, 3: 1   :      -437.3151597825
    1: -1, 3: -1 :      -437.3151599389
    2: 1, 3: 1   :      -437.3151581449
    2: -1, 3: -1 :      -437.3151582841
    0: 1, 4: 1   :      -437.3151580044
    0: -1, 4: -1 :      -437.3151582801
    1: 1, 4: 1   :      -437.3151574253
    1: -1, 4: -1 :      -437.3151573916
    2: 1, 4: 1   :      -437.3151527743
    2: -1, 4: -1 :      -437.3151527574
    3: 1, 4: 1   :      -437.3151572963
    3: -1, 4: -1 :      -437.3151574349
    0: 1, 5: 1   :      -437.3151560904
    0: -1, 5: -1 :      -437.3151563532
    1: 1, 5: 1   :      -437.3151580029
    1: -1, 5: -1 :      -437.3151579760
    2: 1, 5: 1   :      -437.3151563930
    2: -1, 5: -1 :      -437.3151563422
    3: 1, 5: 1   :      -437.3151539689
    3: -1, 5: -1 :      -437.3151540638
    4: 1, 5: 1   :      -437.3151555754
    4: -1, 5: -1 :      -437.3151554890

-------------------------------------------------------------


  ==> Harmonic Vibrational Analysis <==

  non-mass-weighted Hessian:       Symmetric? True   Hermitian? True   Lin Dep Dim?  6 (0)
  projection of translations (True) and rotations (True) removed 6 degrees of freedom (6)
  total projector:                 Symmetric? True   Hermitian? True   Lin Dep Dim?  6 (6)
  mass-weighted Hessian:           Symmetric? True   Hermitian? True   Lin Dep Dim?  6 (0)
  pre-proj  low-frequency mode:    0.0000i [cm^-1]
  pre-proj  low-frequency mode:    0.0000i [cm^-1]
  pre-proj  low-frequency mode:    0.0000i [cm^-1]
  pre-proj  low-frequency mode:    0.0000  [cm^-1]
  pre-proj  low-frequency mode:    0.0000  [cm^-1]
  pre-proj  low-frequency mode:    0.0000  [cm^-1]
  pre-proj  all modes:['0.0000i' '0.0000i' '0.0000i' '0.0000' '0.0000' '0.0000' '1012.2297'
 '1033.4803' '1094.9613' '1512.9699' '3114.3361' '3203.1046']
  projected mass-weighted Hessian: Symmetric? True   Hermitian? True   Lin Dep Dim?  6 (6)
  post-proj low-frequency mode:    0.0001i [cm^-1] (TR)
  post-proj low-frequency mode:    0.0000i [cm^-1] (TR)
  post-proj low-frequency mode:    0.0000i [cm^-1] (TR)
  post-proj low-frequency mode:    0.0000i [cm^-1] (TR)
  post-proj low-frequency mode:    0.0000  [cm^-1] (TR)
  post-proj low-frequency mode:    0.0000  [cm^-1] (TR)
  post-proj  all modes:['0.0001i' '0.0000i' '0.0000i' '0.0000i' '0.0000' '0.0000' '1012.2297'
 '1033.4803' '1094.9613' '1512.9699' '3114.3361' '3203.1046']

  Vibration                       7                   8                   9           
  Freq [cm^-1]                1012.2297           1033.4803           1094.9613       
  Irrep                           A                   A                   A           
  Reduced mass [u]              1.2061              1.2962              4.8413        
  Force const [mDyne/A]         0.7281              0.8157              3.4198        
  Turning point v=0 [a0]        0.3140              0.2998              0.1507        
  RMS dev v=0 [a0 u^1/2]        0.2439              0.2413              0.2345        
  Char temp [K]               1456.3732           1486.9481           1575.4055       
  ----------------------------------------------------------------------------------
      1   C               -0.00 -0.05 -0.12    0.00 -0.15  0.05    0.47 -0.02 -0.01   
      2   S               -0.00  0.01  0.03   -0.01  0.01 -0.01   -0.21  0.02  0.00   
      3   H                0.66  0.09  0.24   -0.02  0.67 -0.20    0.59 -0.12  0.07   
      4   H               -0.62  0.19  0.25    0.15  0.65 -0.20    0.59 -0.14 -0.04   

  Vibration                       10                  11                  12          
  Freq [cm^-1]                1512.9699           3114.3361           3203.1046       
  Irrep                           A                   A                   A           
  Reduced mass [u]              1.1692              1.0498              1.1201        
  Force const [mDyne/A]         1.5768              5.9992              6.7708        
  Turning point v=0 [a0]        0.2609              0.1919              0.1832        
  RMS dev v=0 [a0 u^1/2]        0.1995              0.1390              0.1371        
  Char temp [K]               2176.8269           4480.8363           4608.5543       
  ----------------------------------------------------------------------------------
      1   C               -0.12  0.01  0.00    0.06 -0.01 -0.00   -0.00 -0.02 -0.10   
      2   S                0.01 -0.00 -0.00   -0.00  0.00  0.00    0.00  0.00  0.00   
      3   H                0.59  0.05  0.38   -0.33  0.17  0.60   -0.35  0.17  0.58   
      4   H                0.56 -0.14 -0.40   -0.36 -0.12 -0.59    0.39  0.11  0.58   

  ==> Thermochemistry Components <==

  Entropy, S
    Electronic S            0.000 [cal/(mol K)]        0.000 [J/(mol K)]       0.00000000 [mEh/K] (multiplicity = 1)
    Translational S        37.403 [cal/(mol K)]      156.492 [J/(mol K)]       0.05960470 [mEh/K] (mol. weight = 45.9877 [u], P = 101325.00 [Pa])
    Rotational S           18.824 [cal/(mol K)]       78.761 [J/(mol K)]       0.02999861 [mEh/K] (symmetry no. = 1)
    Vibrational S           0.246 [cal/(mol K)]        1.027 [J/(mol K)]       0.00039129 [mEh/K]
  Total S                  56.472 [cal/(mol K)]      236.281 [J/(mol K)]       0.08999460 [mEh/K]
  Correction S              0.000 [cal/(mol K)]        0.000 [J/(mol K)]       0.00000000 [mEh/K]

  Constant volume heat capacity, Cv
    Electronic Cv           0.000 [cal/(mol K)]        0.000 [J/(mol K)]       0.00000000 [mEh/K]
    Translational Cv        2.981 [cal/(mol K)]       12.472 [J/(mol K)]       0.00475022 [mEh/K]
    Rotational Cv           2.981 [cal/(mol K)]       12.472 [J/(mol K)]       0.00475022 [mEh/K]
    Vibrational Cv          1.062 [cal/(mol K)]        4.444 [J/(mol K)]       0.00169254 [mEh/K]
  Total Cv                  7.024 [cal/(mol K)]       29.387 [J/(mol K)]       0.01119297 [mEh/K]
  Correction Cv             0.000 [cal/(mol K)]        0.000 [J/(mol K)]       0.00000000 [mEh/K]

  Constant pressure heat capacity, Cp
    Electronic Cp           0.000 [cal/(mol K)]        0.000 [J/(mol K)]       0.00000000 [mEh/K]
    Translational Cp        4.968 [cal/(mol K)]       20.786 [J/(mol K)]       0.00791703 [mEh/K]
    Rotational Cp           2.981 [cal/(mol K)]       12.472 [J/(mol K)]       0.00475022 [mEh/K]
    Vibrational Cp          1.062 [cal/(mol K)]        4.444 [J/(mol K)]       0.00169254 [mEh/K]
  Total Cp                  9.011 [cal/(mol K)]       37.702 [J/(mol K)]       0.01435978 [mEh/K]
  Correction Cp             0.000 [cal/(mol K)]        0.000 [J/(mol K)]       0.00000000 [mEh/K]

  ==> Thermochemistry Energy Analysis <==

  Raw electronic energy, E0
  Total E0, Electronic energy at well bottom at 0 [K]                 -437.31516215 [Eh]

  Zero-point energy, ZPE_vib = Sum_i nu_i / 2
    Electronic ZPE          0.000 [kcal/mol]        0.000 [kJ/mol]       0.00000000 [Eh]
    Translational ZPE       0.000 [kcal/mol]        0.000 [kJ/mol]       0.00000000 [Eh]
    Rotational ZPE          0.000 [kcal/mol]        0.000 [kJ/mol]       0.00000000 [Eh]
    Vibrational ZPE        15.684 [kcal/mol]       65.622 [kJ/mol]       0.02499396 [Eh]        5485.541 [cm^-1]
  Correction ZPE           15.684 [kcal/mol]       65.622 [kJ/mol]       0.02499396 [Eh]        5485.541 [cm^-1]
  Total ZPE, Electronic energy at 0 [K]                               -437.29016819 [Eh]

  Thermal Energy, E (includes ZPE)
    Electronic E            0.000 [kcal/mol]        0.000 [kJ/mol]       0.00000000 [Eh]
    Translational E         0.889 [kcal/mol]        3.718 [kJ/mol]       0.00141628 [Eh]
    Rotational E            0.889 [kcal/mol]        3.718 [kJ/mol]       0.00141628 [Eh]
    Vibrational E          15.745 [kcal/mol]       65.878 [kJ/mol]       0.02509156 [Eh]
  Correction E             17.523 [kcal/mol]       73.315 [kJ/mol]       0.02792411 [Eh]
  Total E, Electronic energy at  298.15 [K]                           -437.28723805 [Eh]

  Enthalpy, H_trans = E_trans + k_B * T
    Electronic H            0.000 [kcal/mol]        0.000 [kJ/mol]       0.00000000 [Eh]
    Translational H         1.481 [kcal/mol]        6.197 [kJ/mol]       0.00236046 [Eh]
    Rotational H            0.889 [kcal/mol]        3.718 [kJ/mol]       0.00141628 [Eh]
    Vibrational H          15.745 [kcal/mol]       65.878 [kJ/mol]       0.02509156 [Eh]
  Correction H             18.115 [kcal/mol]       75.794 [kJ/mol]       0.02886829 [Eh]
  Total H, Enthalpy at  298.15 [K]                                    -437.28629386 [Eh]

  Gibbs free energy, G = H - T * S
    Electronic G            0.000 [kcal/mol]        0.000 [kJ/mol]       0.00000000 [Eh]
    Translational G        -9.670 [kcal/mol]      -40.461 [kJ/mol]      -0.01541068 [Eh]
    Rotational G           -4.724 [kcal/mol]      -19.764 [kJ/mol]      -0.00752781 [Eh]
    Vibrational G          15.672 [kcal/mol]       65.572 [kJ/mol]       0.02497489 [Eh]
  Correction G              1.278 [kcal/mol]        5.347 [kJ/mol]       0.00203640 [Eh]
  Total G, Free enthalpy at  298.15 [K]                               -437.31312575 [Eh]

    Psi4 stopped on: Monday, 19 April 2021 03:50PM
    Psi4 wall time for execution: 0:06:37.65

*** Psi4 exiting successfully. Buy a developer a beer!
