
    -----------------------------------------------------------------------
          Psi4: An Open-Source Ab Initio Electronic Structure Package
                               Psi4 1.3.2 release

                         Git: Rev {HEAD} ecbda83 


    R. M. Parrish, L. A. Burns, D. G. A. Smith, A. C. Simmonett,
    A. E. DePrince III, E. G. Hohenstein, U. Bozkaya, A. Yu. Sokolov,
    R. Di Remigio, R. M. Richard, J. F. Gonthier, A. M. James,
    H. R. McAlexander, A. Kumar, M. Saitow, X. Wang, B. P. Pritchard,
    P. Verma, H. F. Schaefer III, K. Patkowski, R. A. King, E. F. Valeev,
    F. A. Evangelista, J. M. Turney, T. D. Crawford, and C. D. Sherrill,
    J. Chem. Theory Comput. 13(7) pp 3185--3197 (2017).
    (doi: 10.1021/acs.jctc.7b00174)


                         Additional Contributions by
    P. Kraus, H. Kruse, M. H. Lechner, M. C. Schieber, R. A. Shaw,
    A. Alenaizan, R. Galvelis, Z. L. Glick, S. Lehtola, and J. P. Misiewicz

    -----------------------------------------------------------------------


    Psi4 started on: Monday, 19 April 2021 03:44PM

    Process ID: 6177
    Host:       bp1-compute00191.data.bp.acrc.priv
    PSIDATADIR: /work/zw18965/.conda/envs/p4env/share/psi4
    Memory:     500.0 MiB
    Threads:    24
    
  ==> Input File <==

--------------------------------------------------------------------------
memory 144 GB

molecule {
0 1
C    -0.026590255247  -0.000020489742   0.000000000000
N     1.117415244719  -0.000587529582   0.000000000000
H    -1.090824989472   0.000608024615   0.000000000000}

set basis aug-cc-pV(Q+d)Z
 
optimize("DSD-BLYP-D3BJ")
frequencies("DSD-BLYP-D3BJ")--------------------------------------------------------------------------

  Memory set to 134.110 GiB by Python driver.
gradient() will perform gradient computation by finite difference of analytic energies.

         ----------------------------------------------------------
                                   FINDIF
                     R. A. King and Jonathon Misiewicz
         ---------------------------------------------------------

  Using finite-differences of energies to determine gradients.
    Generating geometries for use with 3-point formula.
    Displacement size will be 5.00e-03.
    Number of atoms is 3.
    Number of symmetric SALCs is 3.
    Translations projected? 1. Rotations projected? 1.
    Number of geometries (including reference) is 7.

  //>>>>>>>>>>>>>>>>>>>>>>>>>>>>>>>>>>>//
  //    Loading displacement 1 of 7    //
  //<<<<<<<<<<<<<<<<<<<<<<<<<<<<<<<<<<<//

*** tstart() called on bp1-compute00191.data.bp.acrc.priv
*** at Mon Apr 19 15:44:44 2021

   => Loading Basis Set <=

    Name: AUG-CC-PV(Q+D)Z
    Role: ORBITAL
    Keyword: BASIS
    atoms 1 entry C          line   319 file /work/zw18965/.conda/envs/p4env/share/psi4/basis/aug-cc-pv_qpd_z.gbs 
    atoms 2 entry N          line   379 file /work/zw18965/.conda/envs/p4env/share/psi4/basis/aug-cc-pv_qpd_z.gbs 
    atoms 3 entry H          line    56 file /work/zw18965/.conda/envs/p4env/share/psi4/basis/aug-cc-pv_qpd_z.gbs 


         ---------------------------------------------------------
                                   SCF
               by Justin Turney, Rob Parrish, Andy Simmonett
                          and Daniel G. A. Smith
                              RKS Reference
                       24 Threads, 137329 MiB Core
         ---------------------------------------------------------

  ==> Geometry <==

    Molecular point group: cs
    Full point group: C1v

    Geometry (in Angstrom), charge = 0, multiplicity = 1:

       Center              X                  Y                   Z               Mass       
    ------------   -----------------  -----------------  -----------------  -----------------
         C           -0.000003769007     0.000000000000    -0.553370439004    12.000000000000
         N           -0.000003769007     0.000000000000     0.590635201492    14.003074004430
         H            0.000097244820     0.000000000000    -1.617605354029     1.007825032230

  Running in cs symmetry.

  Rotational constants: A = 2254335784.34953  B =      1.50559  C =      1.50559 [cm^-1]
  Rotational constants: A = 67583286594750.21875  B =  45136.34393  C =  45136.34390 [MHz]
  Nuclear repulsion =   24.088624561893237

  Charge       = 0
  Multiplicity = 1
  Electrons    = 14
  Nalpha       = 7
  Nbeta        = 7

  ==> Algorithm <==

  SCF Algorithm Type is DF.
  DIIS enabled.
  MOM disabled.
  Fractional occupation disabled.
  Guess Type is SAD.
  Energy threshold   = 1.00e-08
  Density threshold  = 1.00e-08
  Integral threshold = 0.00e+00

  ==> Primary Basis <==

  Basis Set: AUG-CC-PV(Q+D)Z
    Blend: AUG-CC-PV(Q+D)Z
    Number of shells: 54
    Number of basis function: 206
    Number of Cartesian functions: 265
    Spherical Harmonics?: true
    Max angular momentum: 4

  ==> DFT Potential <==

   => Composite Functional: DSD-BLYP-D3BJ <= 

    DSD-BLYP-D3BJ Dispersion-corrected SCS Double Hybrid XC Functional

    S. Kozuch, J.M.L. Martin, J. Comp. Chem., 34, 2327-2344, 2013


    Deriv               =              1
    GGA                 =           TRUE
    Meta                =          FALSE

    Exchange Hybrid     =           TRUE
    MP2 Hybrid          =           TRUE

   => Exchange Functionals <=

    0.2900     XC_GGA_X_B88

   => Exact (HF) Exchange <=

    0.7100               HF 

   => Correlation Functionals <=

    0.5400     XC_GGA_C_LYP

   => MP2 Correlation <=

    MP2 SCS Hybrid      =           TRUE
    MP2 OS Alpha        =       0.470000
    MP2 SS Alpha        =       0.400000

   => Molecular Quadrature <=

    Radial Scheme          =       TREUTLER
    Pruning Scheme         =           FLAT
    Nuclear Scheme         =       TREUTLER

    BS radius alpha        =              1
    Pruning alpha          =              1
    Radial Points          =             75
    Spherical Points       =            302
    Total Points           =          67950
    Total Blocks           =            576
    Max Points             =            256
    Max Functions          =            206

   => DSD-BLYP-D3BJ: Empirical Dispersion <=

    Grimme's -D3 (BJ-damping) Dispersion Correction
    Grimme S.; Ehrlich S.; Goerigk L. (2011), J. Comput. Chem., 32: 1456
    Parametrisation from:    S. Kozuch, J.M.L. Martin, J. Comp. Chem., 34, 2327-2344, 2013

        s6 =       0.570000
        s8 =       0.000000
        a1 =       0.000000
        a2 =       5.400000

   => Loading Basis Set <=

    Name: (AUG-CC-PV(Q+D)Z AUX)
    Role: JKFIT
    Keyword: DF_BASIS_SCF
    atoms 1 entry C          line   178 file /work/zw18965/.conda/envs/p4env/share/psi4/basis/aug-cc-pvqz-jkfit.gbs 
    atoms 2 entry N          line   248 file /work/zw18965/.conda/envs/p4env/share/psi4/basis/aug-cc-pvqz-jkfit.gbs 
    atoms 3 entry H          line    70 file /work/zw18965/.conda/envs/p4env/share/psi4/basis/aug-cc-pvqz-jkfit.gbs 

  ==> Pre-Iterations <==

   -------------------------------------------------------
    Irrep   Nso     Nmo     Nalpha   Nbeta   Ndocc  Nsocc
   -------------------------------------------------------
     A'       130     130       0       0       0       0
     A"        76      76       0       0       0       0
   -------------------------------------------------------
    Total     206     206       7       7       7       0
   -------------------------------------------------------

  ==> Integral Setup <==

  DFHelper Memory: AOs need 0.133 GiB; user supplied 100.217 GiB. Using in-core AOs.

  ==> MemDFJK: Density-Fitted J/K Matrices <==

    J tasked:                   Yes
    K tasked:                   Yes
    wK tasked:                   No
    OpenMP threads:              24
    Memory [MiB]:            102621
    Algorithm:                 Core
    Schwarz Cutoff:           1E-12
    Mask sparsity (%):       0.0047
    Fitting Condition:        1E-10

   => Auxiliary Basis Set <=

  Basis Set: (AUG-CC-PV(Q+D)Z AUX)
    Blend: AUG-CC-PVQZ-JKFIT
    Number of shells: 86
    Number of basis function: 360
    Number of Cartesian functions: 497
    Spherical Harmonics?: true
    Max angular momentum: 5

  Cached 100.0% of DFT collocation blocks in 0.366 [GiB].

  Minimum eigenvalue in the overlap matrix is 1.7493273233E-05.
  Using Symmetric Orthogonalization.

  SCF Guess: Superposition of Atomic Densities via on-the-fly atomic UHF.

  ==> Iterations <==

                           Total Energy        Delta E     RMS |[F,P]|

   @DF-RKS iter SAD:   -92.33475896609940   -9.23348e+01   0.00000e+00 
   @DF-RKS iter   1:   -93.10635118415202   -7.71592e-01   2.82055e-03 DIIS
   @DF-RKS iter   2:   -93.09906879040597    7.28239e-03   2.94333e-03 DIIS
   @DF-RKS iter   3:   -93.18101379225097   -8.19450e-02   4.32133e-04 DIIS
   @DF-RKS iter   4:   -93.18287604618578   -1.86225e-03   6.57009e-05 DIIS
   @DF-RKS iter   5:   -93.18292289089696   -4.68447e-05   9.35604e-06 DIIS
   @DF-RKS iter   6:   -93.18292415828952   -1.26739e-06   2.14823e-06 DIIS
   @DF-RKS iter   7:   -93.18292423631198   -7.80225e-08   3.43879e-07 DIIS
   @DF-RKS iter   8:   -93.18292423779222   -1.48025e-09   4.34415e-08 DIIS
   @DF-RKS iter   9:   -93.18292423781392   -2.17000e-11   2.28230e-09 DIIS
  Energy and wave function converged.


  ==> Post-Iterations <==

    Orbital Energies [Eh]
    ---------------------

    Doubly Occupied:                                                      

       1Ap   -15.148408     2Ap   -10.910860     3Ap    -1.133131  
       4Ap    -0.744658     5Ap    -0.516189     1App   -0.457852  
       6Ap    -0.457852  

    Virtual:                                                              

       7Ap     0.011758     8Ap     0.048113     2App    0.048113  
       9Ap     0.049604    10Ap     0.094336     3App    0.094336  
      11Ap     0.097031    12Ap     0.105434    13Ap     0.135804  
       4App    0.135804    14Ap     0.163388    15Ap     0.199901  
       5App    0.199901    16Ap     0.209419    17Ap     0.228853  
       6App    0.228853    18Ap     0.288540    19Ap     0.294830  
      20Ap     0.320395     7App    0.320395    21Ap     0.364493  
       8App    0.364493    22Ap     0.399103    23Ap     0.428042  
       9App    0.428042    24Ap     0.434958    10App    0.434958  
      25Ap     0.446708    26Ap     0.556406    27Ap     0.599476  
      11App    0.599476    28Ap     0.614020    12App    0.614020  
      29Ap     0.640180    30Ap     0.699086    31Ap     0.706384  
      13App    0.706384    32Ap     0.733085    33Ap     0.766389  
      14App    0.766389    15App    0.771343    34Ap     0.771343  
      35Ap     0.889151    16App    0.889151    36Ap     0.892869  
      17App    0.892869    37Ap     0.981513    38Ap     1.016508  
      39Ap     1.079778    18App    1.079778    40Ap     1.094925  
      19App    1.094925    41Ap     1.155393    20App    1.155393  
      42Ap     1.177476    21App    1.177476    43Ap     1.245939  
      44Ap     1.315193    22App    1.372009    45Ap     1.372009  
      46Ap     1.425365    47Ap     1.544803    23App    1.548854  
      48Ap     1.548854    49Ap     1.555419    24App    1.555419  
      50Ap     1.613241    51Ap     1.627608    52Ap     1.656579  
      25App    1.656579    26App    1.702067    53Ap     1.702067  
      27App    1.821787    54Ap     1.821787    55Ap     1.991650  
      28App    1.991650    56Ap     2.043132    29App    2.043132  
      30App    2.053021    57Ap     2.053021    58Ap     2.098781  
      31App    2.186796    59Ap     2.186796    60Ap     2.262209  
      32App    2.262209    61Ap     2.307600    33App    2.307600  
      62Ap     2.376609    63Ap     2.439386    34App    2.439386  
      35App    2.480041    64Ap     2.480041    65Ap     2.647390  
      66Ap     2.723155    67Ap     2.732999    36App    2.732999  
      68Ap     2.842814    37App    2.842814    69Ap     2.909167  
      38App    2.909168    70Ap     2.961380    71Ap     3.030016  
      39App    3.030016    72Ap     3.137642    40App    3.137642  
      73Ap     3.185887    74Ap     3.206623    41App    3.206623  
      75Ap     3.271684    76Ap     3.281900    42App    3.281901  
      43App    3.478572    77Ap     3.478572    78Ap     3.673774  
      44App    3.705024    79Ap     3.705024    80Ap     3.753918  
      45App    3.753918    81Ap     3.839996    46App    3.880948  
      82Ap     3.880948    83Ap     4.075408    47App    4.075408  
      84Ap     4.384238    85Ap     4.475011    48App    4.475011  
      86Ap     4.641154    49App    4.641154    87Ap     4.726814  
      50App    4.726814    88Ap     4.732631    89Ap     4.900402  
      90Ap     5.301598    91Ap     5.818487    51App    5.818488  
      52App    5.859335    92Ap     5.859335    53App    5.888899  
      93Ap     5.888900    54App    6.019086    94Ap     6.019086  
      55App    6.297916    95Ap     6.297917    96Ap     6.331409  
      56App    6.331409    97Ap     6.489950    57App    6.489950  
      98Ap     6.520811    58App    6.699161    99Ap     6.699161  
     100Ap     6.859510    59App    6.973153   101Ap     6.973154  
     102Ap     7.181349    60App    7.181349   103Ap     7.665256  
      61App    7.987701   104Ap     7.987701    62App    8.082874  
     105Ap     8.082875   106Ap     8.097691    63App    8.147317  
     107Ap     8.147325    64App    8.203310   108Ap     8.203310  
      65App    8.521646   109Ap     8.521646   110Ap     8.573150  
      66App    8.677903   111Ap     8.677903   112Ap     8.879706  
      67App    8.879709    68App    8.954201   113Ap     8.954201  
     114Ap     9.115428    69App    9.115432   115Ap     9.116553  
     116Ap     9.151757    70App    9.151757   117Ap     9.558570  
      71App    9.558570   118Ap     9.717018    72App    9.807390  
     119Ap     9.807391   120Ap     9.937755   121Ap    10.157092  
      73App   10.157098    74App   10.257715   122Ap    10.257715  
     123Ap    10.769488   124Ap    11.156461    75App   11.400117  
     125Ap    11.400117   126Ap    12.560782   127Ap    12.829336  
      76App   12.829336   128Ap    14.669234   129Ap    25.963708  
     130Ap    33.700629  

    Final Occupation by Irrep:
             Ap   App 
    DOCC [     6,    1 ]

  @DF-RKS Final Energy:   -93.18292423781392

   => Energetics <=

    Nuclear Repulsion Energy =             24.0886245618932371
    One-Electron Energy =                -173.0899609940517792
    Two-Electron Energy =                  59.5846908143840039
    DFT Exchange-Correlation Energy =      -3.7653212700393626
    Empirical Dispersion Energy =          -0.0009573500000000
    VV10 Nonlocal Energy =                  0.0000000000000000
    Total Energy =                        -93.1829242378139071

Computation Completed


Properties will be evaluated at   0.000000,   0.000000,   0.000000 [a0]

Properties computed using the SCF density matrix

  Nuclear Dipole Moment: [e a0]
     X:     0.0001      Y:     0.0000      Z:    -1.5182

  Electronic Dipole Moment: [e a0]
     X:    -0.0000      Y:     0.0000      Z:     0.2585

  Dipole Moment: [e a0]
     X:     0.0001      Y:     0.0000      Z:    -1.2597     Total:     1.2597

  Dipole Moment: [D]
     X:     0.0001      Y:     0.0000      Z:    -3.2017     Total:     3.2017


*** tstop() called on bp1-compute00191.data.bp.acrc.priv at Mon Apr 19 15:44:46 2021
Module time:
	user time   =      54.95 seconds =       0.92 minutes
	system time =       2.74 seconds =       0.05 minutes
	total time  =          2 seconds =       0.03 minutes
Total time:
	user time   =      54.95 seconds =       0.92 minutes
	system time =       2.74 seconds =       0.05 minutes
	total time  =          2 seconds =       0.03 minutes

*** tstart() called on bp1-compute00191.data.bp.acrc.priv
*** at Mon Apr 19 15:44:46 2021

   => Loading Basis Set <=

    Name: (AUG-CC-PV(Q+D)Z AUX)
    Role: RIFIT
    Keyword: DF_BASIS_MP2
    atoms 1 entry C          line   184 file /work/zw18965/.conda/envs/p4env/share/psi4/basis/aug-cc-pvqz-ri.gbs 
    atoms 2 entry N          line   258 file /work/zw18965/.conda/envs/p4env/share/psi4/basis/aug-cc-pvqz-ri.gbs 
    atoms 3 entry H          line    30 file /work/zw18965/.conda/envs/p4env/share/psi4/basis/aug-cc-pvqz-ri.gbs 

	 --------------------------------------------------------
	                          DF-MP2                         
	      2nd-Order Density-Fitted Moller-Plesset Theory     
	              RMP2 Wavefunction,  24 Threads             
	                                                         
	        Rob Parrish, Justin Turney, Andy Simmonett,      
	           Ed Hohenstein, and C. David Sherrill          
	 --------------------------------------------------------

   => Auxiliary Basis Set <=

  Basis Set: (AUG-CC-PV(Q+D)Z AUX)
    Blend: AUG-CC-PVQZ-RI
    Number of shells: 92
    Number of basis function: 416
    Number of Cartesian functions: 579
    Spherical Harmonics?: true
    Max angular momentum: 5

	 --------------------------------------------------------
	                 NBF =   206, NAUX =   416
	 --------------------------------------------------------
	   CLASS    FOCC     OCC    AOCC    AVIR     VIR    FVIR
	   PAIRS       0       7       7     199     199       0
	 --------------------------------------------------------

	-----------------------------------------------------------
	 ==================> DF-MP2 Energies <==================== 
	-----------------------------------------------------------
	 Reference Energy          =     -93.1829242378139213 [Eh]
	 Singles Energy            =      -0.0000000000000000 [Eh]
	 Same-Spin Energy          =      -0.1088155681228055 [Eh]
	 Opposite-Spin Energy      =      -0.3672034527330890 [Eh]
	 Correlation Energy        =      -0.4760190208558944 [Eh]
	 Total Energy              =     -93.6589432586698223 [Eh]
	-----------------------------------------------------------
	 ================> DF-SCS-MP2 Energies <================== 
	-----------------------------------------------------------
	 SCS Same-Spin Scale       =       0.4000000000000000 [-]
	 SCS Opposite-Spin Scale   =       0.4700000000000000 [-]
	 SCS Same-Spin Energy      =      -0.0435262272491222 [Eh]
	 SCS Opposite-Spin Energy  =      -0.1725856227845518 [Eh]
	 SCS Correlation Energy    =      -0.2161118500336740 [Eh]
	 SCS Total Energy          =     -93.3990360878475911 [Eh]
	-----------------------------------------------------------



    DSD-BLYP-D3BJ Energy Summary
    ----------------------------
    DFT Reference Energy                  =   -93.1829242378139213
    Scaled MP2 Correlation                =    -0.2161118500336740
    @Final double-hybrid DFT total energy =   -93.3990360878475911


*** tstop() called on bp1-compute00191.data.bp.acrc.priv at Mon Apr 19 15:44:47 2021
Module time:
	user time   =      12.75 seconds =       0.21 minutes
	system time =       0.45 seconds =       0.01 minutes
	total time  =          1 seconds =       0.02 minutes
Total time:
	user time   =      67.72 seconds =       1.13 minutes
	system time =       3.19 seconds =       0.05 minutes
	total time  =          3 seconds =       0.05 minutes

  //>>>>>>>>>>>>>>>>>>>>>>>>>>>>>>>>>>>//
  //    Loading displacement 2 of 7    //
  //<<<<<<<<<<<<<<<<<<<<<<<<<<<<<<<<<<<//

*** tstart() called on bp1-compute00191.data.bp.acrc.priv
*** at Mon Apr 19 15:44:47 2021

   => Loading Basis Set <=

    Name: AUG-CC-PV(Q+D)Z
    Role: ORBITAL
    Keyword: BASIS
    atoms 1 entry C          line   319 file /work/zw18965/.conda/envs/p4env/share/psi4/basis/aug-cc-pv_qpd_z.gbs 
    atoms 2 entry N          line   379 file /work/zw18965/.conda/envs/p4env/share/psi4/basis/aug-cc-pv_qpd_z.gbs 
    atoms 3 entry H          line    56 file /work/zw18965/.conda/envs/p4env/share/psi4/basis/aug-cc-pv_qpd_z.gbs 


         ---------------------------------------------------------
                                   SCF
               by Justin Turney, Rob Parrish, Andy Simmonett
                          and Daniel G. A. Smith
                              RKS Reference
                       24 Threads, 137329 MiB Core
         ---------------------------------------------------------

  ==> Geometry <==

    Molecular point group: cs
    Full point group: Cs

    Geometry (in Angstrom), charge = 0, multiplicity = 1:

       Center              X                  Y                   Z               Mass       
    ------------   -----------------  -----------------  -----------------  -----------------
         C           -0.000368116871     0.000000000000    -0.553370442583    12.000000000000
         N            0.000146706291     0.000000000000     0.590635197913    14.003074004430
         H            0.002344715923     0.000000000000    -1.617605261683     1.007825032230

  Running in cs symmetry.

  Rotational constants: A = 2257981.74676  B =      1.50559  C =      1.50559 [cm^-1]
  Rotational constants: A = 67692589798.02763  B =  45136.34520  C =  45136.31510 [MHz]
  Nuclear repulsion =   24.088612427769984

  Charge       = 0
  Multiplicity = 1
  Electrons    = 14
  Nalpha       = 7
  Nbeta        = 7

  ==> Algorithm <==

  SCF Algorithm Type is DF.
  DIIS enabled.
  MOM disabled.
  Fractional occupation disabled.
  Guess Type is SAD.
  Energy threshold   = 1.00e-08
  Density threshold  = 1.00e-08
  Integral threshold = 0.00e+00

  ==> Primary Basis <==

  Basis Set: AUG-CC-PV(Q+D)Z
    Blend: AUG-CC-PV(Q+D)Z
    Number of shells: 54
    Number of basis function: 206
    Number of Cartesian functions: 265
    Spherical Harmonics?: true
    Max angular momentum: 4

  ==> DFT Potential <==

   => Composite Functional: DSD-BLYP-D3BJ <= 

    DSD-BLYP-D3BJ Dispersion-corrected SCS Double Hybrid XC Functional

    S. Kozuch, J.M.L. Martin, J. Comp. Chem., 34, 2327-2344, 2013


    Deriv               =              1
    GGA                 =           TRUE
    Meta                =          FALSE

    Exchange Hybrid     =           TRUE
    MP2 Hybrid          =           TRUE

   => Exchange Functionals <=

    0.2900     XC_GGA_X_B88

   => Exact (HF) Exchange <=

    0.7100               HF 

   => Correlation Functionals <=

    0.5400     XC_GGA_C_LYP

   => MP2 Correlation <=

    MP2 SCS Hybrid      =           TRUE
    MP2 OS Alpha        =       0.470000
    MP2 SS Alpha        =       0.400000

   => Molecular Quadrature <=

    Radial Scheme          =       TREUTLER
    Pruning Scheme         =           FLAT
    Nuclear Scheme         =       TREUTLER

    BS radius alpha        =              1
    Pruning alpha          =              1
    Radial Points          =             75
    Spherical Points       =            302
    Total Points           =          67950
    Total Blocks           =            574
    Max Points             =            255
    Max Functions          =            206

   => DSD-BLYP-D3BJ: Empirical Dispersion <=

    Grimme's -D3 (BJ-damping) Dispersion Correction
    Grimme S.; Ehrlich S.; Goerigk L. (2011), J. Comput. Chem., 32: 1456
    Parametrisation from:    S. Kozuch, J.M.L. Martin, J. Comp. Chem., 34, 2327-2344, 2013

        s6 =       0.570000
        s8 =       0.000000
        a1 =       0.000000
        a2 =       5.400000

   => Loading Basis Set <=

    Name: (AUG-CC-PV(Q+D)Z AUX)
    Role: JKFIT
    Keyword: DF_BASIS_SCF
    atoms 1 entry C          line   178 file /work/zw18965/.conda/envs/p4env/share/psi4/basis/aug-cc-pvqz-jkfit.gbs 
    atoms 2 entry N          line   248 file /work/zw18965/.conda/envs/p4env/share/psi4/basis/aug-cc-pvqz-jkfit.gbs 
    atoms 3 entry H          line    70 file /work/zw18965/.conda/envs/p4env/share/psi4/basis/aug-cc-pvqz-jkfit.gbs 

  ==> Pre-Iterations <==

   -------------------------------------------------------
    Irrep   Nso     Nmo     Nalpha   Nbeta   Ndocc  Nsocc
   -------------------------------------------------------
     A'       130     130       0       0       0       0
     A"        76      76       0       0       0       0
   -------------------------------------------------------
    Total     206     206       7       7       7       0
   -------------------------------------------------------

  ==> Integral Setup <==

  DFHelper Memory: AOs need 0.133 GiB; user supplied 100.216 GiB. Using in-core AOs.

  ==> MemDFJK: Density-Fitted J/K Matrices <==

    J tasked:                   Yes
    K tasked:                   Yes
    wK tasked:                   No
    OpenMP threads:              24
    Memory [MiB]:            102621
    Algorithm:                 Core
    Schwarz Cutoff:           1E-12
    Mask sparsity (%):       0.0047
    Fitting Condition:        1E-10

   => Auxiliary Basis Set <=

  Basis Set: (AUG-CC-PV(Q+D)Z AUX)
    Blend: AUG-CC-PVQZ-JKFIT
    Number of shells: 86
    Number of basis function: 360
    Number of Cartesian functions: 497
    Spherical Harmonics?: true
    Max angular momentum: 5

  Cached 100.0% of DFT collocation blocks in 0.367 [GiB].

  Minimum eigenvalue in the overlap matrix is 1.7493679301E-05.
  Using Symmetric Orthogonalization.

  SCF Guess: Superposition of Atomic Densities via on-the-fly atomic UHF.

  ==> Iterations <==

                           Total Energy        Delta E     RMS |[F,P]|

   @DF-RKS iter SAD:   -92.33475827075821   -9.23348e+01   0.00000e+00 
   @DF-RKS iter   1:   -93.10635041125424   -7.71592e-01   2.82055e-03 DIIS
   @DF-RKS iter   2:   -93.09906763946651    7.28277e-03   2.94335e-03 DIIS
   @DF-RKS iter   3:   -93.18101341366717   -8.19458e-02   4.32133e-04 DIIS
   @DF-RKS iter   4:   -93.18287566923588   -1.86226e-03   6.57014e-05 DIIS
   @DF-RKS iter   5:   -93.18292251477592   -4.68455e-05   9.35618e-06 DIIS
   @DF-RKS iter   6:   -93.18292378220889   -1.26743e-06   2.14825e-06 DIIS
   @DF-RKS iter   7:   -93.18292386023359   -7.80247e-08   3.43883e-07 DIIS
   @DF-RKS iter   8:   -93.18292386171390   -1.48032e-09   4.34462e-08 DIIS
   @DF-RKS iter   9:   -93.18292386173542   -2.15152e-11   2.29464e-09 DIIS
  Energy and wave function converged.


  ==> Post-Iterations <==

    Orbital Energies [Eh]
    ---------------------

    Doubly Occupied:                                                      

       1Ap   -15.148408     2Ap   -10.910860     3Ap    -1.133131  
       4Ap    -0.744656     5Ap    -0.516189     1App   -0.457852  
       6Ap    -0.457852  

    Virtual:                                                              

       7Ap     0.011758     8Ap     0.048112     2App    0.048113  
       9Ap     0.049605    10Ap     0.094335     3App    0.094336  
      11Ap     0.097031    12Ap     0.105435    13Ap     0.135803  
       4App    0.135804    14Ap     0.163389    15Ap     0.199900  
       5App    0.199901    16Ap     0.209419    17Ap     0.228853  
       6App    0.228853    18Ap     0.288540    19Ap     0.294831  
      20Ap     0.320395     7App    0.320395    21Ap     0.364493  
       8App    0.364493    22Ap     0.399103    23Ap     0.428038  
       9App    0.428043    24Ap     0.434957    10App    0.434958  
      25Ap     0.446713    26Ap     0.556406    27Ap     0.599474  
      11App    0.599474    28Ap     0.614022    12App    0.614022  
      29Ap     0.640182    30Ap     0.699086    13App    0.706384  
      31Ap     0.706384    32Ap     0.733086    33Ap     0.766388  
      14App    0.766388    34Ap     0.771344    15App    0.771344  
      35Ap     0.889143    16App    0.889145    36Ap     0.892874  
      17App    0.892874    37Ap     0.981512    38Ap     1.016507  
      39Ap     1.079779    18App    1.079779    40Ap     1.094924  
      19App    1.094924    41Ap     1.155392    20App    1.155393  
      42Ap     1.177477    21App    1.177477    43Ap     1.245940  
      44Ap     1.315196    22App    1.372010    45Ap     1.372011  
      46Ap     1.425364    47Ap     1.544806    23App    1.548840  
      48Ap     1.548840    49Ap     1.555415    24App    1.555422  
      50Ap     1.613244    51Ap     1.627613    25App    1.656589  
      52Ap     1.656589    26App    1.702067    53Ap     1.702071  
      27App    1.821785    54Ap     1.821785    55Ap     1.991648  
      28App    1.991654    56Ap     2.043134    29App    2.043134  
      30App    2.053020    57Ap     2.053020    58Ap     2.098782  
      59Ap     2.186795    31App    2.186795    60Ap     2.262184  
      32App    2.262184    61Ap     2.307608    33App    2.307621  
      62Ap     2.376619    63Ap     2.439387    34App    2.439389  
      35App    2.480035    64Ap     2.480035    65Ap     2.647387  
      66Ap     2.723155    67Ap     2.732998    36App    2.732998  
      68Ap     2.842808    37App    2.842811    69Ap     2.909169  
      38App    2.909170    70Ap     2.961389    71Ap     3.030015  
      39App    3.030015    72Ap     3.137642    40App    3.137642  
      73Ap     3.185880    74Ap     3.206620    41App    3.206622  
      75Ap     3.271701    76Ap     3.281899    42App    3.281900  
      43App    3.478565    77Ap     3.478565    78Ap     3.673774  
      79Ap     3.705014    44App    3.705014    80Ap     3.753920  
      45App    3.753921    81Ap     3.839996    46App    3.880948  
      82Ap     3.880949    83Ap     4.075400    47App    4.075409  
      84Ap     4.384233    85Ap     4.475006    48App    4.475006  
      86Ap     4.641122    49App    4.641153    87Ap     4.726552  
      50App    4.726808    88Ap     4.732886    89Ap     4.900433  
      90Ap     5.301593    91Ap     5.818486    51App    5.818487  
      52App    5.859330    92Ap     5.859330    53App    5.888908  
      93Ap     5.888909    54App    6.019085    94Ap     6.019089  
      55App    6.297912    95Ap     6.297913    56App    6.331412  
      96Ap     6.331412    97Ap     6.489944    57App    6.489945  
      98Ap     6.520806    58App    6.699152    99Ap     6.699152  
     100Ap     6.859505    59App    6.973151   101Ap     6.973152  
     102Ap     7.181347    60App    7.181353   103Ap     7.665240  
      61App    7.987700   104Ap     7.987703    62App    8.082849  
     105Ap     8.082850   106Ap     8.097659    63App    8.147317  
     107Ap     8.147325    64App    8.203310   108Ap     8.203347  
     109Ap     8.521644    65App    8.521644   110Ap     8.573140  
      66App    8.677903   111Ap     8.677907   112Ap     8.879694  
      67App    8.879697    68App    8.954217   113Ap     8.954218  
     114Ap     9.115390    69App    9.115394   115Ap     9.116557  
     116Ap     9.151788    70App    9.151788   117Ap     9.558527  
      71App    9.558563   118Ap     9.717041    72App    9.807390  
     119Ap     9.807391   120Ap     9.937742   121Ap    10.157038  
      73App   10.157043    74App   10.257748   122Ap    10.257751  
     123Ap    10.769498   124Ap    11.156402    75App   11.400102  
     125Ap    11.400177   126Ap    12.560764   127Ap    12.829254  
      76App   12.829279   128Ap    14.669171   129Ap    25.963699  
     130Ap    33.700616  

    Final Occupation by Irrep:
             Ap   App 
    DOCC [     6,    1 ]

  @DF-RKS Final Energy:   -93.18292386173542

   => Energetics <=

    Nuclear Repulsion Energy =             24.0886124277699842
    One-Electron Energy =                -173.0899386994746010
    Two-Electron Energy =                  59.5846806010274292
    DFT Exchange-Correlation Energy =      -3.7653208410582275
    Empirical Dispersion Energy =          -0.0009573500000000
    VV10 Nonlocal Energy =                  0.0000000000000000
    Total Energy =                        -93.1829238617354036

Computation Completed


Properties will be evaluated at   0.000000,   0.000000,   0.000000 [a0]

Properties computed using the SCF density matrix

  Nuclear Dipole Moment: [e a0]
     X:     0.0022      Y:     0.0000      Z:    -1.5182

  Electronic Dipole Moment: [e a0]
     X:    -0.0012      Y:     0.0000      Z:     0.2585

  Dipole Moment: [e a0]
     X:     0.0010      Y:     0.0000      Z:    -1.2596     Total:     1.2596

  Dipole Moment: [D]
     X:     0.0026      Y:     0.0000      Z:    -3.2017     Total:     3.2017


*** tstop() called on bp1-compute00191.data.bp.acrc.priv at Mon Apr 19 15:44:49 2021
Module time:
	user time   =      51.46 seconds =       0.86 minutes
	system time =       1.82 seconds =       0.03 minutes
	total time  =          2 seconds =       0.03 minutes
Total time:
	user time   =     119.36 seconds =       1.99 minutes
	system time =       5.02 seconds =       0.08 minutes
	total time  =          5 seconds =       0.08 minutes

*** tstart() called on bp1-compute00191.data.bp.acrc.priv
*** at Mon Apr 19 15:44:49 2021

   => Loading Basis Set <=

    Name: (AUG-CC-PV(Q+D)Z AUX)
    Role: RIFIT
    Keyword: DF_BASIS_MP2
    atoms 1 entry C          line   184 file /work/zw18965/.conda/envs/p4env/share/psi4/basis/aug-cc-pvqz-ri.gbs 
    atoms 2 entry N          line   258 file /work/zw18965/.conda/envs/p4env/share/psi4/basis/aug-cc-pvqz-ri.gbs 
    atoms 3 entry H          line    30 file /work/zw18965/.conda/envs/p4env/share/psi4/basis/aug-cc-pvqz-ri.gbs 

	 --------------------------------------------------------
	                          DF-MP2                         
	      2nd-Order Density-Fitted Moller-Plesset Theory     
	              RMP2 Wavefunction,  24 Threads             
	                                                         
	        Rob Parrish, Justin Turney, Andy Simmonett,      
	           Ed Hohenstein, and C. David Sherrill          
	 --------------------------------------------------------

   => Auxiliary Basis Set <=

  Basis Set: (AUG-CC-PV(Q+D)Z AUX)
    Blend: AUG-CC-PVQZ-RI
    Number of shells: 92
    Number of basis function: 416
    Number of Cartesian functions: 579
    Spherical Harmonics?: true
    Max angular momentum: 5

	 --------------------------------------------------------
	                 NBF =   206, NAUX =   416
	 --------------------------------------------------------
	   CLASS    FOCC     OCC    AOCC    AVIR     VIR    FVIR
	   PAIRS       0       7       7     199     199       0
	 --------------------------------------------------------

	-----------------------------------------------------------
	 ==================> DF-MP2 Energies <==================== 
	-----------------------------------------------------------
	 Reference Energy          =     -93.1829238617354179 [Eh]
	 Singles Energy            =      -0.0000000000000000 [Eh]
	 Same-Spin Energy          =      -0.1088156038133194 [Eh]
	 Opposite-Spin Energy      =      -0.3672035895608322 [Eh]
	 Correlation Energy        =      -0.4760191933741517 [Eh]
	 Total Energy              =     -93.6589430551095745 [Eh]
	-----------------------------------------------------------
	 ================> DF-SCS-MP2 Energies <================== 
	-----------------------------------------------------------
	 SCS Same-Spin Scale       =       0.4000000000000000 [-]
	 SCS Opposite-Spin Scale   =       0.4700000000000000 [-]
	 SCS Same-Spin Energy      =      -0.0435262415253278 [Eh]
	 SCS Opposite-Spin Energy  =      -0.1725856870935911 [Eh]
	 SCS Correlation Energy    =      -0.2161119286189189 [Eh]
	 SCS Total Energy          =     -93.3990357903543327 [Eh]
	-----------------------------------------------------------



    DSD-BLYP-D3BJ Energy Summary
    ----------------------------
    DFT Reference Energy                  =   -93.1829238617354179
    Scaled MP2 Correlation                =    -0.2161119286189189
    @Final double-hybrid DFT total energy =   -93.3990357903543327


*** tstop() called on bp1-compute00191.data.bp.acrc.priv at Mon Apr 19 15:44:50 2021
Module time:
	user time   =      12.04 seconds =       0.20 minutes
	system time =       0.38 seconds =       0.01 minutes
	total time  =          1 seconds =       0.02 minutes
Total time:
	user time   =     131.41 seconds =       2.19 minutes
	system time =       5.41 seconds =       0.09 minutes
	total time  =          6 seconds =       0.10 minutes

  //>>>>>>>>>>>>>>>>>>>>>>>>>>>>>>>>>>>//
  //    Loading displacement 3 of 7    //
  //<<<<<<<<<<<<<<<<<<<<<<<<<<<<<<<<<<<//

*** tstart() called on bp1-compute00191.data.bp.acrc.priv
*** at Mon Apr 19 15:44:50 2021

   => Loading Basis Set <=

    Name: AUG-CC-PV(Q+D)Z
    Role: ORBITAL
    Keyword: BASIS
    atoms 1 entry C          line   319 file /work/zw18965/.conda/envs/p4env/share/psi4/basis/aug-cc-pv_qpd_z.gbs 
    atoms 2 entry N          line   379 file /work/zw18965/.conda/envs/p4env/share/psi4/basis/aug-cc-pv_qpd_z.gbs 
    atoms 3 entry H          line    56 file /work/zw18965/.conda/envs/p4env/share/psi4/basis/aug-cc-pv_qpd_z.gbs 


         ---------------------------------------------------------
                                   SCF
               by Justin Turney, Rob Parrish, Andy Simmonett
                          and Daniel G. A. Smith
                              RKS Reference
                       24 Threads, 137329 MiB Core
         ---------------------------------------------------------

  ==> Geometry <==

    Molecular point group: cs
    Full point group: Cs

    Geometry (in Angstrom), charge = 0, multiplicity = 1:

       Center              X                  Y                   Z               Mass       
    ------------   -----------------  -----------------  -----------------  -----------------
         C            0.000360578858     0.000000000000    -0.553370435425    12.000000000000
         N           -0.000154244305     0.000000000000     0.590635205071    14.003074004430
         H           -0.002150226283     0.000000000000    -1.617605446375     1.007825032230

  Running in cs symmetry.

  Rotational constants: A = 2573453.37617  B =      1.50559  C =      1.50559 [cm^-1]
  Rotational constants: A = 77150191319.16998  B =  45136.34267  C =  45136.31627 [MHz]
  Nuclear repulsion =   24.088613279871939

  Charge       = 0
  Multiplicity = 1
  Electrons    = 14
  Nalpha       = 7
  Nbeta        = 7

  ==> Algorithm <==

  SCF Algorithm Type is DF.
  DIIS enabled.
  MOM disabled.
  Fractional occupation disabled.
  Guess Type is SAD.
  Energy threshold   = 1.00e-08
  Density threshold  = 1.00e-08
  Integral threshold = 0.00e+00

  ==> Primary Basis <==

  Basis Set: AUG-CC-PV(Q+D)Z
    Blend: AUG-CC-PV(Q+D)Z
    Number of shells: 54
    Number of basis function: 206
    Number of Cartesian functions: 265
    Spherical Harmonics?: true
    Max angular momentum: 4

  ==> DFT Potential <==

   => Composite Functional: DSD-BLYP-D3BJ <= 

    DSD-BLYP-D3BJ Dispersion-corrected SCS Double Hybrid XC Functional

    S. Kozuch, J.M.L. Martin, J. Comp. Chem., 34, 2327-2344, 2013


    Deriv               =              1
    GGA                 =           TRUE
    Meta                =          FALSE

    Exchange Hybrid     =           TRUE
    MP2 Hybrid          =           TRUE

   => Exchange Functionals <=

    0.2900     XC_GGA_X_B88

   => Exact (HF) Exchange <=

    0.7100               HF 

   => Correlation Functionals <=

    0.5400     XC_GGA_C_LYP

   => MP2 Correlation <=

    MP2 SCS Hybrid      =           TRUE
    MP2 OS Alpha        =       0.470000
    MP2 SS Alpha        =       0.400000

   => Molecular Quadrature <=

    Radial Scheme          =       TREUTLER
    Pruning Scheme         =           FLAT
    Nuclear Scheme         =       TREUTLER

    BS radius alpha        =              1
    Pruning alpha          =              1
    Radial Points          =             75
    Spherical Points       =            302
    Total Points           =          67950
    Total Blocks           =            572
    Max Points             =            256
    Max Functions          =            206

   => DSD-BLYP-D3BJ: Empirical Dispersion <=

    Grimme's -D3 (BJ-damping) Dispersion Correction
    Grimme S.; Ehrlich S.; Goerigk L. (2011), J. Comput. Chem., 32: 1456
    Parametrisation from:    S. Kozuch, J.M.L. Martin, J. Comp. Chem., 34, 2327-2344, 2013

        s6 =       0.570000
        s8 =       0.000000
        a1 =       0.000000
        a2 =       5.400000

   => Loading Basis Set <=

    Name: (AUG-CC-PV(Q+D)Z AUX)
    Role: JKFIT
    Keyword: DF_BASIS_SCF
    atoms 1 entry C          line   178 file /work/zw18965/.conda/envs/p4env/share/psi4/basis/aug-cc-pvqz-jkfit.gbs 
    atoms 2 entry N          line   248 file /work/zw18965/.conda/envs/p4env/share/psi4/basis/aug-cc-pvqz-jkfit.gbs 
    atoms 3 entry H          line    70 file /work/zw18965/.conda/envs/p4env/share/psi4/basis/aug-cc-pvqz-jkfit.gbs 

  ==> Pre-Iterations <==

   -------------------------------------------------------
    Irrep   Nso     Nmo     Nalpha   Nbeta   Ndocc  Nsocc
   -------------------------------------------------------
     A'       130     130       0       0       0       0
     A"        76      76       0       0       0       0
   -------------------------------------------------------
    Total     206     206       7       7       7       0
   -------------------------------------------------------

  ==> Integral Setup <==

  DFHelper Memory: AOs need 0.133 GiB; user supplied 100.216 GiB. Using in-core AOs.

  ==> MemDFJK: Density-Fitted J/K Matrices <==

    J tasked:                   Yes
    K tasked:                   Yes
    wK tasked:                   No
    OpenMP threads:              24
    Memory [MiB]:            102621
    Algorithm:                 Core
    Schwarz Cutoff:           1E-12
    Mask sparsity (%):       0.0047
    Fitting Condition:        1E-10

   => Auxiliary Basis Set <=

  Basis Set: (AUG-CC-PV(Q+D)Z AUX)
    Blend: AUG-CC-PVQZ-JKFIT
    Number of shells: 86
    Number of basis function: 360
    Number of Cartesian functions: 497
    Spherical Harmonics?: true
    Max angular momentum: 5

  Cached 100.0% of DFT collocation blocks in 0.367 [GiB].

  Minimum eigenvalue in the overlap matrix is 1.7493637161E-05.
  Using Symmetric Orthogonalization.

  SCF Guess: Superposition of Atomic Densities via on-the-fly atomic UHF.

  ==> Iterations <==

                           Total Energy        Delta E     RMS |[F,P]|

   @DF-RKS iter SAD:   -92.33475831256669   -9.23348e+01   0.00000e+00 
   @DF-RKS iter   1:   -93.10635049516532   -7.71592e-01   2.82055e-03 DIIS
   @DF-RKS iter   2:   -93.09906775601222    7.28274e-03   2.94335e-03 DIIS
   @DF-RKS iter   3:   -93.18101345822723   -8.19457e-02   4.32133e-04 DIIS
   @DF-RKS iter   4:   -93.18287571344194   -1.86226e-03   6.57014e-05 DIIS
   @DF-RKS iter   5:   -93.18292255889099   -4.68454e-05   9.35616e-06 DIIS
   @DF-RKS iter   6:   -93.18292382631935   -1.26743e-06   2.14825e-06 DIIS
   @DF-RKS iter   7:   -93.18292390434392   -7.80246e-08   3.43882e-07 DIIS
   @DF-RKS iter   8:   -93.18292390582407   -1.48015e-09   4.34456e-08 DIIS
   @DF-RKS iter   9:   -93.18292390584591   -2.18421e-11   2.29313e-09 DIIS
  Energy and wave function converged.


  ==> Post-Iterations <==

    Orbital Energies [Eh]
    ---------------------

    Doubly Occupied:                                                      

       1Ap   -15.148408     2Ap   -10.910860     3Ap    -1.133131  
       4Ap    -0.744656     5Ap    -0.516189     1App   -0.457852  
       6Ap    -0.457852  

    Virtual:                                                              

       7Ap     0.011758     8Ap     0.048112     2App    0.048113  
       9Ap     0.049605    10Ap     0.094335     3App    0.094336  
      11Ap     0.097031    12Ap     0.105435    13Ap     0.135804  
       4App    0.135804    14Ap     0.163389    15Ap     0.199900  
       5App    0.199901    16Ap     0.209419    17Ap     0.228853  
       6App    0.228853    18Ap     0.288540    19Ap     0.294831  
      20Ap     0.320395     7App    0.320395    21Ap     0.364493  
       8App    0.364493    22Ap     0.399103    23Ap     0.428039  
       9App    0.428043    24Ap     0.434957    10App    0.434958  
      25Ap     0.446712    26Ap     0.556406    27Ap     0.599474  
      11App    0.599474    28Ap     0.614022    12App    0.614022  
      29Ap     0.640182    30Ap     0.699086    13App    0.706384  
      31Ap     0.706384    32Ap     0.733085    33Ap     0.766388  
      14App    0.766388    34Ap     0.771344    15App    0.771344  
      35Ap     0.889144    16App    0.889146    36Ap     0.892874  
      17App    0.892874    37Ap     0.981512    38Ap     1.016507  
      39Ap     1.079779    18App    1.079779    40Ap     1.094924  
      19App    1.094924    41Ap     1.155392    20App    1.155393  
      42Ap     1.177477    21App    1.177477    43Ap     1.245940  
      44Ap     1.315196    22App    1.372010    45Ap     1.372011  
      46Ap     1.425364    47Ap     1.544805    23App    1.548842  
      48Ap     1.548842    49Ap     1.555416    24App    1.555421  
      50Ap     1.613243    51Ap     1.627612    25App    1.656588  
      52Ap     1.656588    26App    1.702067    53Ap     1.702070  
      27App    1.821785    54Ap     1.821785    55Ap     1.991648  
      28App    1.991653    56Ap     2.043134    29App    2.043134  
      30App    2.053020    57Ap     2.053020    58Ap     2.098782  
      59Ap     2.186795    31App    2.186795    60Ap     2.262187  
      32App    2.262187    61Ap     2.307607    33App    2.307618  
      62Ap     2.376618    63Ap     2.439387    34App    2.439389  
      35App    2.480036    64Ap     2.480036    65Ap     2.647387  
      66Ap     2.723155    67Ap     2.732998    36App    2.732998  
      68Ap     2.842809    37App    2.842811    69Ap     2.909169  
      38App    2.909169    70Ap     2.961388    71Ap     3.030015  
      39App    3.030015    72Ap     3.137642    40App    3.137642  
      73Ap     3.185881    74Ap     3.206620    41App    3.206622  
      75Ap     3.271698    76Ap     3.281899    42App    3.281900  
      43App    3.478566    77Ap     3.478566    78Ap     3.673774  
      79Ap     3.705015    44App    3.705015    80Ap     3.753920  
      45App    3.753920    81Ap     3.839996    46App    3.880948  
      82Ap     3.880949    83Ap     4.075401    47App    4.075409  
      84Ap     4.384233    85Ap     4.475007    48App    4.475007  
      86Ap     4.641126    49App    4.641153    87Ap     4.726583  
      50App    4.726809    88Ap     4.732856    89Ap     4.900429  
      90Ap     5.301593    91Ap     5.818486    51App    5.818487  
      52App    5.859330    92Ap     5.859330    53App    5.888907  
      93Ap     5.888908    54App    6.019085    94Ap     6.019088  
      55App    6.297913    95Ap     6.297914    56App    6.331411  
      96Ap     6.331411    97Ap     6.489944    57App    6.489945  
      98Ap     6.520806    58App    6.699153    99Ap     6.699153  
     100Ap     6.859506    59App    6.973151   101Ap     6.973152  
     102Ap     7.181347    60App    7.181353   103Ap     7.665241  
      61App    7.987701   104Ap     7.987703    62App    8.082851  
     105Ap     8.082853   106Ap     8.097662    63App    8.147317  
     107Ap     8.147325    64App    8.203310   108Ap     8.203343  
     109Ap     8.521645    65App    8.521645   110Ap     8.573141  
      66App    8.677903   111Ap     8.677906   112Ap     8.879695  
      67App    8.879698    68App    8.954215   113Ap     8.954216  
     114Ap     9.115395    69App    9.115399   115Ap     9.116557  
     116Ap     9.151784    70App    9.151784   117Ap     9.558532  
      71App    9.558563   118Ap     9.717038    72App    9.807390  
     119Ap     9.807391   120Ap     9.937743   121Ap    10.157044  
      73App   10.157050    74App   10.257744   122Ap    10.257747  
     123Ap    10.769497   124Ap    11.156409    75App   11.400103  
     125Ap    11.400169   126Ap    12.560766   127Ap    12.829263  
      76App   12.829285   128Ap    14.669177   129Ap    25.963699  
     130Ap    33.700617  

    Final Occupation by Irrep:
             Ap   App 
    DOCC [     6,    1 ]

  @DF-RKS Final Energy:   -93.18292390584591

   => Energetics <=

    Nuclear Repulsion Energy =             24.0886132798719395
    One-Electron Energy =                -173.0899402519995363
    Two-Electron Energy =                  59.5846812928864864
    DFT Exchange-Correlation Energy =      -3.7653208766047923
    Empirical Dispersion Energy =          -0.0009573500000000
    VV10 Nonlocal Energy =                  0.0000000000000000
    Total Energy =                        -93.1829239058458967

Computation Completed


Properties will be evaluated at   0.000000,   0.000000,   0.000000 [a0]

Properties computed using the SCF density matrix

  Nuclear Dipole Moment: [e a0]
     X:    -0.0020      Y:     0.0000      Z:    -1.5182

  Electronic Dipole Moment: [e a0]
     X:     0.0011      Y:     0.0000      Z:     0.2585

  Dipole Moment: [e a0]
     X:    -0.0009      Y:     0.0000      Z:    -1.2596     Total:     1.2596

  Dipole Moment: [D]
     X:    -0.0023      Y:     0.0000      Z:    -3.2017     Total:     3.2017


*** tstop() called on bp1-compute00191.data.bp.acrc.priv at Mon Apr 19 15:44:52 2021
Module time:
	user time   =      51.24 seconds =       0.85 minutes
	system time =       2.42 seconds =       0.04 minutes
	total time  =          2 seconds =       0.03 minutes
Total time:
	user time   =     182.80 seconds =       3.05 minutes
	system time =       7.85 seconds =       0.13 minutes
	total time  =          8 seconds =       0.13 minutes

*** tstart() called on bp1-compute00191.data.bp.acrc.priv
*** at Mon Apr 19 15:44:52 2021

   => Loading Basis Set <=

    Name: (AUG-CC-PV(Q+D)Z AUX)
    Role: RIFIT
    Keyword: DF_BASIS_MP2
    atoms 1 entry C          line   184 file /work/zw18965/.conda/envs/p4env/share/psi4/basis/aug-cc-pvqz-ri.gbs 
    atoms 2 entry N          line   258 file /work/zw18965/.conda/envs/p4env/share/psi4/basis/aug-cc-pvqz-ri.gbs 
    atoms 3 entry H          line    30 file /work/zw18965/.conda/envs/p4env/share/psi4/basis/aug-cc-pvqz-ri.gbs 

	 --------------------------------------------------------
	                          DF-MP2                         
	      2nd-Order Density-Fitted Moller-Plesset Theory     
	              RMP2 Wavefunction,  24 Threads             
	                                                         
	        Rob Parrish, Justin Turney, Andy Simmonett,      
	           Ed Hohenstein, and C. David Sherrill          
	 --------------------------------------------------------

   => Auxiliary Basis Set <=

  Basis Set: (AUG-CC-PV(Q+D)Z AUX)
    Blend: AUG-CC-PVQZ-RI
    Number of shells: 92
    Number of basis function: 416
    Number of Cartesian functions: 579
    Spherical Harmonics?: true
    Max angular momentum: 5

	 --------------------------------------------------------
	                 NBF =   206, NAUX =   416
	 --------------------------------------------------------
	   CLASS    FOCC     OCC    AOCC    AVIR     VIR    FVIR
	   PAIRS       0       7       7     199     199       0
	 --------------------------------------------------------

	-----------------------------------------------------------
	 ==================> DF-MP2 Energies <==================== 
	-----------------------------------------------------------
	 Reference Energy          =     -93.1829239058459109 [Eh]
	 Singles Energy            =      -0.0000000000000000 [Eh]
	 Same-Spin Energy          =      -0.1088156006231544 [Eh]
	 Opposite-Spin Energy      =      -0.3672035763125658 [Eh]
	 Correlation Energy        =      -0.4760191769357202 [Eh]
	 Total Energy              =     -93.6589430827816329 [Eh]
	-----------------------------------------------------------
	 ================> DF-SCS-MP2 Energies <================== 
	-----------------------------------------------------------
	 SCS Same-Spin Scale       =       0.4000000000000000 [-]
	 SCS Opposite-Spin Scale   =       0.4700000000000000 [-]
	 SCS Same-Spin Energy      =      -0.0435262402492617 [Eh]
	 SCS Opposite-Spin Energy  =      -0.1725856808669059 [Eh]
	 SCS Correlation Energy    =      -0.2161119211161677 [Eh]
	 SCS Total Energy          =     -93.3990358269620771 [Eh]
	-----------------------------------------------------------



    DSD-BLYP-D3BJ Energy Summary
    ----------------------------
    DFT Reference Energy                  =   -93.1829239058459109
    Scaled MP2 Correlation                =    -0.2161119211161677
    @Final double-hybrid DFT total energy =   -93.3990358269620771


*** tstop() called on bp1-compute00191.data.bp.acrc.priv at Mon Apr 19 15:44:53 2021
Module time:
	user time   =      11.93 seconds =       0.20 minutes
	system time =       0.43 seconds =       0.01 minutes
	total time  =          1 seconds =       0.02 minutes
Total time:
	user time   =     194.74 seconds =       3.25 minutes
	system time =       8.29 seconds =       0.14 minutes
	total time  =          9 seconds =       0.15 minutes

  //>>>>>>>>>>>>>>>>>>>>>>>>>>>>>>>>>>>//
  //    Loading displacement 4 of 7    //
  //<<<<<<<<<<<<<<<<<<<<<<<<<<<<<<<<<<<//

*** tstart() called on bp1-compute00191.data.bp.acrc.priv
*** at Mon Apr 19 15:44:53 2021

   => Loading Basis Set <=

    Name: AUG-CC-PV(Q+D)Z
    Role: ORBITAL
    Keyword: BASIS
    atoms 1 entry C          line   319 file /work/zw18965/.conda/envs/p4env/share/psi4/basis/aug-cc-pv_qpd_z.gbs 
    atoms 2 entry N          line   379 file /work/zw18965/.conda/envs/p4env/share/psi4/basis/aug-cc-pv_qpd_z.gbs 
    atoms 3 entry H          line    56 file /work/zw18965/.conda/envs/p4env/share/psi4/basis/aug-cc-pv_qpd_z.gbs 


         ---------------------------------------------------------
                                   SCF
               by Justin Turney, Rob Parrish, Andy Simmonett
                          and Daniel G. A. Smith
                              RKS Reference
                       24 Threads, 137329 MiB Core
         ---------------------------------------------------------

  ==> Geometry <==

    Molecular point group: cs
    Full point group: C1

    Geometry (in Angstrom), charge = 0, multiplicity = 1:

       Center              X                  Y                   Z               Mass       
    ------------   -----------------  -----------------  -----------------  -----------------
         C           -0.000003769007     0.000000000000    -0.553939834918    12.000000000000
         N           -0.000003767508     0.000000000000     0.591090387484    14.003074004430
         H            0.000097223998     0.000000000000    -1.617150168038     1.007825032230

  Running in cs symmetry.

  Rotational constants: A = 2253906410.42844  B =      1.50376  C =      1.50376 [cm^-1]
  Rotational constants: A = 67570414288429.75000  B =  45081.52822  C =  45081.52819 [MHz]
  Nuclear repulsion =   24.074115500692521

  Charge       = 0
  Multiplicity = 1
  Electrons    = 14
  Nalpha       = 7
  Nbeta        = 7

  ==> Algorithm <==

  SCF Algorithm Type is DF.
  DIIS enabled.
  MOM disabled.
  Fractional occupation disabled.
  Guess Type is SAD.
  Energy threshold   = 1.00e-08
  Density threshold  = 1.00e-08
  Integral threshold = 0.00e+00

  ==> Primary Basis <==

  Basis Set: AUG-CC-PV(Q+D)Z
    Blend: AUG-CC-PV(Q+D)Z
    Number of shells: 54
    Number of basis function: 206
    Number of Cartesian functions: 265
    Spherical Harmonics?: true
    Max angular momentum: 4

  ==> DFT Potential <==

   => Composite Functional: DSD-BLYP-D3BJ <= 

    DSD-BLYP-D3BJ Dispersion-corrected SCS Double Hybrid XC Functional

    S. Kozuch, J.M.L. Martin, J. Comp. Chem., 34, 2327-2344, 2013


    Deriv               =              1
    GGA                 =           TRUE
    Meta                =          FALSE

    Exchange Hybrid     =           TRUE
    MP2 Hybrid          =           TRUE

   => Exchange Functionals <=

    0.2900     XC_GGA_X_B88

   => Exact (HF) Exchange <=

    0.7100               HF 

   => Correlation Functionals <=

    0.5400     XC_GGA_C_LYP

   => MP2 Correlation <=

    MP2 SCS Hybrid      =           TRUE
    MP2 OS Alpha        =       0.470000
    MP2 SS Alpha        =       0.400000

   => Molecular Quadrature <=

    Radial Scheme          =       TREUTLER
    Pruning Scheme         =           FLAT
    Nuclear Scheme         =       TREUTLER

    BS radius alpha        =              1
    Pruning alpha          =              1
    Radial Points          =             75
    Spherical Points       =            302
    Total Points           =          67950
    Total Blocks           =            576
    Max Points             =            256
    Max Functions          =            206

   => DSD-BLYP-D3BJ: Empirical Dispersion <=

    Grimme's -D3 (BJ-damping) Dispersion Correction
    Grimme S.; Ehrlich S.; Goerigk L. (2011), J. Comput. Chem., 32: 1456
    Parametrisation from:    S. Kozuch, J.M.L. Martin, J. Comp. Chem., 34, 2327-2344, 2013

        s6 =       0.570000
        s8 =       0.000000
        a1 =       0.000000
        a2 =       5.400000

   => Loading Basis Set <=

    Name: (AUG-CC-PV(Q+D)Z AUX)
    Role: JKFIT
    Keyword: DF_BASIS_SCF
    atoms 1 entry C          line   178 file /work/zw18965/.conda/envs/p4env/share/psi4/basis/aug-cc-pvqz-jkfit.gbs 
    atoms 2 entry N          line   248 file /work/zw18965/.conda/envs/p4env/share/psi4/basis/aug-cc-pvqz-jkfit.gbs 
    atoms 3 entry H          line    70 file /work/zw18965/.conda/envs/p4env/share/psi4/basis/aug-cc-pvqz-jkfit.gbs 

  ==> Pre-Iterations <==

   -------------------------------------------------------
    Irrep   Nso     Nmo     Nalpha   Nbeta   Ndocc  Nsocc
   -------------------------------------------------------
     A'       130     130       0       0       0       0
     A"        76      76       0       0       0       0
   -------------------------------------------------------
    Total     206     206       7       7       7       0
   -------------------------------------------------------

  ==> Integral Setup <==

  DFHelper Memory: AOs need 0.133 GiB; user supplied 100.217 GiB. Using in-core AOs.

  ==> MemDFJK: Density-Fitted J/K Matrices <==

    J tasked:                   Yes
    K tasked:                   Yes
    wK tasked:                   No
    OpenMP threads:              24
    Memory [MiB]:            102621
    Algorithm:                 Core
    Schwarz Cutoff:           1E-12
    Mask sparsity (%):       0.0047
    Fitting Condition:        1E-10

   => Auxiliary Basis Set <=

  Basis Set: (AUG-CC-PV(Q+D)Z AUX)
    Blend: AUG-CC-PVQZ-JKFIT
    Number of shells: 86
    Number of basis function: 360
    Number of Cartesian functions: 497
    Spherical Harmonics?: true
    Max angular momentum: 5

  Cached 100.0% of DFT collocation blocks in 0.366 [GiB].

  Minimum eigenvalue in the overlap matrix is 1.7446226081E-05.
  Using Symmetric Orthogonalization.

  SCF Guess: Superposition of Atomic Densities via on-the-fly atomic UHF.

  ==> Iterations <==

                           Total Energy        Delta E     RMS |[F,P]|

   @DF-RKS iter SAD:   -92.33343881035532   -9.23334e+01   0.00000e+00 
   @DF-RKS iter   1:   -93.10655309109161   -7.73114e-01   2.81445e-03 DIIS
   @DF-RKS iter   2:   -93.09900106680941    7.55202e-03   2.94270e-03 DIIS
   @DF-RKS iter   3:   -93.18094236927766   -8.19413e-02   4.31815e-04 DIIS
   @DF-RKS iter   4:   -93.18280295611541   -1.86059e-03   6.56391e-05 DIIS
   @DF-RKS iter   5:   -93.18284974971729   -4.67936e-05   9.37459e-06 DIIS
   @DF-RKS iter   6:   -93.18285102035249   -1.27064e-06   2.15959e-06 DIIS
   @DF-RKS iter   7:   -93.18285109912618   -7.87737e-08   3.45263e-07 DIIS
   @DF-RKS iter   8:   -93.18285110061886   -1.49268e-09   4.36051e-08 DIIS
   @DF-RKS iter   9:   -93.18285110064076   -2.18989e-11   2.28976e-09 DIIS
  Energy and wave function converged.


  ==> Post-Iterations <==

    Orbital Energies [Eh]
    ---------------------

    Doubly Occupied:                                                      

       1Ap   -15.148781     2Ap   -10.911142     3Ap    -1.132710  
       4Ap    -0.745158     5Ap    -0.516290     1App   -0.457590  
       6Ap    -0.457590  

    Virtual:                                                              

       7Ap     0.011761     8Ap     0.048077     2App    0.048077  
       9Ap     0.049607    10Ap     0.094170     3App    0.094170  
      11Ap     0.097038    12Ap     0.105443    13Ap     0.135685  
       4App    0.135685    14Ap     0.163439    15Ap     0.199900  
       5App    0.199900    16Ap     0.209428    17Ap     0.228808  
       6App    0.228808    18Ap     0.288627    19Ap     0.294838  
       7App    0.320344    20Ap     0.320344    21Ap     0.364487  
       8App    0.364487    22Ap     0.399005    23Ap     0.428070  
       9App    0.428070    24Ap     0.434933    10App    0.434933  
      25Ap     0.446689    26Ap     0.556443    27Ap     0.599455  
      11App    0.599455    28Ap     0.613953    12App    0.613953  
      29Ap     0.640318    30Ap     0.699123    31Ap     0.706357  
      13App    0.706357    32Ap     0.732867    33Ap     0.766411  
      14App    0.766411    15App    0.771327    34Ap     0.771327  
      35Ap     0.889121    16App    0.889121    36Ap     0.892906  
      17App    0.892906    37Ap     0.981061    38Ap     1.016625  
      39Ap     1.079705    18App    1.079705    40Ap     1.095067  
      19App    1.095067    41Ap     1.155169    20App    1.155169  
      42Ap     1.177374    21App    1.177374    43Ap     1.245629  
      44Ap     1.315283    22App    1.371908    45Ap     1.371908  
      46Ap     1.425008    47Ap     1.544610    23App    1.548849  
      48Ap     1.548849    49Ap     1.554959    24App    1.554959  
      50Ap     1.613133    51Ap     1.627652    52Ap     1.656673  
      25App    1.656673    26App    1.702035    53Ap     1.702035  
      27App    1.821518    54Ap     1.821518    55Ap     1.991759  
      28App    1.991759    56Ap     2.043082    29App    2.043082  
      30App    2.053078    57Ap     2.053078    58Ap     2.099381  
      59Ap     2.186712    31App    2.186712    60Ap     2.262437  
      32App    2.262437    61Ap     2.308083    33App    2.308083  
      62Ap     2.376473    63Ap     2.439195    34App    2.439195  
      35App    2.480244    64Ap     2.480244    65Ap     2.647516  
      66Ap     2.722896    67Ap     2.732822    36App    2.732822  
      68Ap     2.841805    37App    2.841805    69Ap     2.908844  
      38App    2.908844    70Ap     2.961155    71Ap     3.029905  
      39App    3.029905    72Ap     3.137563    40App    3.137563  
      73Ap     3.185533    74Ap     3.206690    41App    3.206690  
      75Ap     3.271855    76Ap     3.281706    42App    3.281707  
      43App    3.479247    77Ap     3.479248    78Ap     3.672922  
      79Ap     3.703861    44App    3.703861    80Ap     3.753588  
      45App    3.753588    81Ap     3.840594    46App    3.880442  
      82Ap     3.880443    83Ap     4.075679    47App    4.075679  
      84Ap     4.384921    85Ap     4.474209    48App    4.474209  
      86Ap     4.641052    49App    4.641052    87Ap     4.726607  
      50App    4.726608    88Ap     4.733649    89Ap     4.899577  
      90Ap     5.299067    91Ap     5.818440    51App    5.818441  
      52App    5.858849    92Ap     5.858849    53App    5.889582  
      93Ap     5.889582    54App    6.018921    94Ap     6.018921  
      55App    6.297022    95Ap     6.297023    96Ap     6.331281  
      56App    6.331281    97Ap     6.490020    57App    6.490020  
      98Ap     6.520928    58App    6.700278    99Ap     6.700278  
     100Ap     6.858536    59App    6.972107   101Ap     6.972107  
     102Ap     7.181024    60App    7.181024   103Ap     7.666470  
      61App    7.985646   104Ap     7.985646    62App    8.084615  
     105Ap     8.084617   106Ap     8.098964    63App    8.147058  
     107Ap     8.147066    64App    8.204222   108Ap     8.204223  
     109Ap     8.520577    65App    8.520577   110Ap     8.574155  
      66App    8.677430   111Ap     8.677430   112Ap     8.879945  
      67App    8.879948    68App    8.953679   113Ap     8.953679  
     114Ap     9.115748   115Ap     9.116873    69App    9.116877  
     116Ap     9.150879    70App    9.150879   117Ap     9.559008  
      71App    9.559008   118Ap     9.717098    72App    9.805553  
     119Ap     9.805554   120Ap     9.937972   121Ap    10.154708  
      73App   10.154713    74App   10.257569   122Ap    10.257569  
     123Ap    10.768669   124Ap    11.152720    75App   11.399647  
     125Ap    11.399647   126Ap    12.558581   127Ap    12.828775  
      76App   12.828775   128Ap    14.673105   129Ap    25.961900  
     130Ap    33.689595  

    Final Occupation by Irrep:
             Ap   App 
    DOCC [     6,    1 ]

  @DF-RKS Final Energy:   -93.18285110064076

   => Energetics <=

    Nuclear Repulsion Energy =             24.0741155006925212
    One-Electron Energy =                -173.0603438075916927
    Two-Electron Energy =                  59.5694116683533110
    DFT Exchange-Correlation Energy =      -3.7650771320949157
    Empirical Dispersion Energy =          -0.0009573300000000
    VV10 Nonlocal Energy =                  0.0000000000000000
    Total Energy =                        -93.1828511006407751

Computation Completed


Properties will be evaluated at   0.000000,   0.000000,   0.000000 [a0]

Properties computed using the SCF density matrix

  Nuclear Dipole Moment: [e a0]
     X:     0.0001      Y:     0.0000      Z:    -1.5177

  Electronic Dipole Moment: [e a0]
     X:    -0.0000      Y:     0.0000      Z:     0.2585

  Dipole Moment: [e a0]
     X:     0.0001      Y:     0.0000      Z:    -1.2593     Total:     1.2593

  Dipole Moment: [D]
     X:     0.0001      Y:     0.0000      Z:    -3.2007     Total:     3.2007


*** tstop() called on bp1-compute00191.data.bp.acrc.priv at Mon Apr 19 15:44:55 2021
Module time:
	user time   =      52.88 seconds =       0.88 minutes
	system time =       1.63 seconds =       0.03 minutes
	total time  =          2 seconds =       0.03 minutes
Total time:
	user time   =     247.77 seconds =       4.13 minutes
	system time =       9.92 seconds =       0.17 minutes
	total time  =         11 seconds =       0.18 minutes

*** tstart() called on bp1-compute00191.data.bp.acrc.priv
*** at Mon Apr 19 15:44:55 2021

   => Loading Basis Set <=

    Name: (AUG-CC-PV(Q+D)Z AUX)
    Role: RIFIT
    Keyword: DF_BASIS_MP2
    atoms 1 entry C          line   184 file /work/zw18965/.conda/envs/p4env/share/psi4/basis/aug-cc-pvqz-ri.gbs 
    atoms 2 entry N          line   258 file /work/zw18965/.conda/envs/p4env/share/psi4/basis/aug-cc-pvqz-ri.gbs 
    atoms 3 entry H          line    30 file /work/zw18965/.conda/envs/p4env/share/psi4/basis/aug-cc-pvqz-ri.gbs 

	 --------------------------------------------------------
	                          DF-MP2                         
	      2nd-Order Density-Fitted Moller-Plesset Theory     
	              RMP2 Wavefunction,  24 Threads             
	                                                         
	        Rob Parrish, Justin Turney, Andy Simmonett,      
	           Ed Hohenstein, and C. David Sherrill          
	 --------------------------------------------------------

   => Auxiliary Basis Set <=

  Basis Set: (AUG-CC-PV(Q+D)Z AUX)
    Blend: AUG-CC-PVQZ-RI
    Number of shells: 92
    Number of basis function: 416
    Number of Cartesian functions: 579
    Spherical Harmonics?: true
    Max angular momentum: 5

	 --------------------------------------------------------
	                 NBF =   206, NAUX =   416
	 --------------------------------------------------------
	   CLASS    FOCC     OCC    AOCC    AVIR     VIR    FVIR
	   PAIRS       0       7       7     199     199       0
	 --------------------------------------------------------

	-----------------------------------------------------------
	 ==================> DF-MP2 Energies <==================== 
	-----------------------------------------------------------
	 Reference Energy          =     -93.1828511006407609 [Eh]
	 Singles Energy            =      -0.0000000000000000 [Eh]
	 Same-Spin Energy          =      -0.1088875421015358 [Eh]
	 Opposite-Spin Energy      =      -0.3673740022443807 [Eh]
	 Correlation Energy        =      -0.4762615443459164 [Eh]
	 Total Energy              =     -93.6591126449866778 [Eh]
	-----------------------------------------------------------
	 ================> DF-SCS-MP2 Energies <================== 
	-----------------------------------------------------------
	 SCS Same-Spin Scale       =       0.4000000000000000 [-]
	 SCS Opposite-Spin Scale   =       0.4700000000000000 [-]
	 SCS Same-Spin Energy      =      -0.0435550168406143 [Eh]
	 SCS Opposite-Spin Energy  =      -0.1726657810548589 [Eh]
	 SCS Correlation Energy    =      -0.2162207978954732 [Eh]
	 SCS Total Energy          =     -93.3990718985362349 [Eh]
	-----------------------------------------------------------



    DSD-BLYP-D3BJ Energy Summary
    ----------------------------
    DFT Reference Energy                  =   -93.1828511006407609
    Scaled MP2 Correlation                =    -0.2162207978954732
    @Final double-hybrid DFT total energy =   -93.3990718985362349


*** tstop() called on bp1-compute00191.data.bp.acrc.priv at Mon Apr 19 15:44:56 2021
Module time:
	user time   =      12.11 seconds =       0.20 minutes
	system time =       0.46 seconds =       0.01 minutes
	total time  =          1 seconds =       0.02 minutes
Total time:
	user time   =     259.89 seconds =       4.33 minutes
	system time =      10.38 seconds =       0.17 minutes
	total time  =         12 seconds =       0.20 minutes

  //>>>>>>>>>>>>>>>>>>>>>>>>>>>>>>>>>>>//
  //    Loading displacement 5 of 7    //
  //<<<<<<<<<<<<<<<<<<<<<<<<<<<<<<<<<<<//

*** tstart() called on bp1-compute00191.data.bp.acrc.priv
*** at Mon Apr 19 15:44:56 2021

   => Loading Basis Set <=

    Name: AUG-CC-PV(Q+D)Z
    Role: ORBITAL
    Keyword: BASIS
    atoms 1 entry C          line   319 file /work/zw18965/.conda/envs/p4env/share/psi4/basis/aug-cc-pv_qpd_z.gbs 
    atoms 2 entry N          line   379 file /work/zw18965/.conda/envs/p4env/share/psi4/basis/aug-cc-pv_qpd_z.gbs 
    atoms 3 entry H          line    56 file /work/zw18965/.conda/envs/p4env/share/psi4/basis/aug-cc-pv_qpd_z.gbs 


         ---------------------------------------------------------
                                   SCF
               by Justin Turney, Rob Parrish, Andy Simmonett
                          and Daniel G. A. Smith
                              RKS Reference
                       24 Threads, 137329 MiB Core
         ---------------------------------------------------------

  ==> Geometry <==

    Molecular point group: cs
    Full point group: C1v

    Geometry (in Angstrom), charge = 0, multiplicity = 1:

       Center              X                  Y                   Z               Mass       
    ------------   -----------------  -----------------  -----------------  -----------------
         C           -0.000003769007     0.000000000000    -0.552801043090    12.000000000000
         N           -0.000003770505     0.000000000000     0.590180015500    14.003074004430
         H            0.000097265642     0.000000000000    -1.618060540020     1.007825032230

  Running in cs symmetry.

  Rotational constants: A = 2254768744.75374  B =      1.50742  C =      1.50742 [cm^-1]
  Rotational constants: A = 67596266421129.84375  B =  45191.23653  C =  45191.23650 [MHz]
  Nuclear repulsion =   24.103170320198970

  Charge       = 0
  Multiplicity = 1
  Electrons    = 14
  Nalpha       = 7
  Nbeta        = 7

  ==> Algorithm <==

  SCF Algorithm Type is DF.
  DIIS enabled.
  MOM disabled.
  Fractional occupation disabled.
  Guess Type is SAD.
  Energy threshold   = 1.00e-08
  Density threshold  = 1.00e-08
  Integral threshold = 0.00e+00

  ==> Primary Basis <==

  Basis Set: AUG-CC-PV(Q+D)Z
    Blend: AUG-CC-PV(Q+D)Z
    Number of shells: 54
    Number of basis function: 206
    Number of Cartesian functions: 265
    Spherical Harmonics?: true
    Max angular momentum: 4

  ==> DFT Potential <==

   => Composite Functional: DSD-BLYP-D3BJ <= 

    DSD-BLYP-D3BJ Dispersion-corrected SCS Double Hybrid XC Functional

    S. Kozuch, J.M.L. Martin, J. Comp. Chem., 34, 2327-2344, 2013


    Deriv               =              1
    GGA                 =           TRUE
    Meta                =          FALSE

    Exchange Hybrid     =           TRUE
    MP2 Hybrid          =           TRUE

   => Exchange Functionals <=

    0.2900     XC_GGA_X_B88

   => Exact (HF) Exchange <=

    0.7100               HF 

   => Correlation Functionals <=

    0.5400     XC_GGA_C_LYP

   => MP2 Correlation <=

    MP2 SCS Hybrid      =           TRUE
    MP2 OS Alpha        =       0.470000
    MP2 SS Alpha        =       0.400000

   => Molecular Quadrature <=

    Radial Scheme          =       TREUTLER
    Pruning Scheme         =           FLAT
    Nuclear Scheme         =       TREUTLER

    BS radius alpha        =              1
    Pruning alpha          =              1
    Radial Points          =             75
    Spherical Points       =            302
    Total Points           =          67950
    Total Blocks           =            576
    Max Points             =            256
    Max Functions          =            206

   => DSD-BLYP-D3BJ: Empirical Dispersion <=

    Grimme's -D3 (BJ-damping) Dispersion Correction
    Grimme S.; Ehrlich S.; Goerigk L. (2011), J. Comput. Chem., 32: 1456
    Parametrisation from:    S. Kozuch, J.M.L. Martin, J. Comp. Chem., 34, 2327-2344, 2013

        s6 =       0.570000
        s8 =       0.000000
        a1 =       0.000000
        a2 =       5.400000

   => Loading Basis Set <=

    Name: (AUG-CC-PV(Q+D)Z AUX)
    Role: JKFIT
    Keyword: DF_BASIS_SCF
    atoms 1 entry C          line   178 file /work/zw18965/.conda/envs/p4env/share/psi4/basis/aug-cc-pvqz-jkfit.gbs 
    atoms 2 entry N          line   248 file /work/zw18965/.conda/envs/p4env/share/psi4/basis/aug-cc-pvqz-jkfit.gbs 
    atoms 3 entry H          line    70 file /work/zw18965/.conda/envs/p4env/share/psi4/basis/aug-cc-pvqz-jkfit.gbs 

  ==> Pre-Iterations <==

   -------------------------------------------------------
    Irrep   Nso     Nmo     Nalpha   Nbeta   Ndocc  Nsocc
   -------------------------------------------------------
     A'       130     130       0       0       0       0
     A"        76      76       0       0       0       0
   -------------------------------------------------------
    Total     206     206       7       7       7       0
   -------------------------------------------------------

  ==> Integral Setup <==

  DFHelper Memory: AOs need 0.133 GiB; user supplied 100.217 GiB. Using in-core AOs.

  ==> MemDFJK: Density-Fitted J/K Matrices <==

    J tasked:                   Yes
    K tasked:                   Yes
    wK tasked:                   No
    OpenMP threads:              24
    Memory [MiB]:            102621
    Algorithm:                 Core
    Schwarz Cutoff:           1E-12
    Mask sparsity (%):       0.0047
    Fitting Condition:        1E-10

   => Auxiliary Basis Set <=

  Basis Set: (AUG-CC-PV(Q+D)Z AUX)
    Blend: AUG-CC-PVQZ-JKFIT
    Number of shells: 86
    Number of basis function: 360
    Number of Cartesian functions: 497
    Spherical Harmonics?: true
    Max angular momentum: 5

  Cached 100.0% of DFT collocation blocks in 0.366 [GiB].

  Minimum eigenvalue in the overlap matrix is 1.7540306055E-05.
  Using Symmetric Orthogonalization.

  SCF Guess: Superposition of Atomic Densities via on-the-fly atomic UHF.

  ==> Iterations <==

                           Total Energy        Delta E     RMS |[F,P]|

   @DF-RKS iter SAD:   -92.33607746485211   -9.23361e+01   0.00000e+00 
   @DF-RKS iter   1:   -93.10614176936085   -7.70064e-01   2.82666e-03 DIIS
   @DF-RKS iter   2:   -93.09913034297745    7.01143e-03   2.94396e-03 DIIS
   @DF-RKS iter   3:   -93.18107855862232   -8.19482e-02   4.32451e-04 DIIS
   @DF-RKS iter   4:   -93.18294247212712   -1.86391e-03   6.57634e-05 DIIS
   @DF-RKS iter   5:   -93.18298936909434   -4.68970e-05   9.33734e-06 DIIS
   @DF-RKS iter   6:   -93.18299063323549   -1.26414e-06   2.13682e-06 DIIS
   @DF-RKS iter   7:   -93.18299071050849   -7.72730e-08   3.42505e-07 DIIS
   @DF-RKS iter   8:   -93.18299071197644   -1.46795e-09   4.32802e-08 DIIS
   @DF-RKS iter   9:   -93.18299071199792   -2.14726e-11   2.27505e-09 DIIS
  Energy and wave function converged.


  ==> Post-Iterations <==

    Orbital Energies [Eh]
    ---------------------

    Doubly Occupied:                                                      

       1Ap   -15.148035     2Ap   -10.910577     3Ap    -1.133552  
       4Ap    -0.744158     5Ap    -0.516087     1App   -0.458116  
       6Ap    -0.458116  

    Virtual:                                                              

       7Ap     0.011755     8Ap     0.048148     2App    0.048148  
       9Ap     0.049601    10Ap     0.094501     3App    0.094501  
      11Ap     0.097024    12Ap     0.105426    13Ap     0.135924  
       4App    0.135924    14Ap     0.163337    15Ap     0.199902  
       5App    0.199902    16Ap     0.209411    17Ap     0.228898  
       6App    0.228898    18Ap     0.288451    19Ap     0.294826  
      20Ap     0.320446     7App    0.320446    21Ap     0.364500  
       8App    0.364500    22Ap     0.399199    23Ap     0.428013  
       9App    0.428013    24Ap     0.434985    10App    0.434985  
      25Ap     0.446726    26Ap     0.556369    27Ap     0.599497  
      11App    0.599497    28Ap     0.614087    12App    0.614087  
      29Ap     0.640043    30Ap     0.699048    13App    0.706411  
      31Ap     0.706411    32Ap     0.733302    33Ap     0.766367  
      14App    0.766367    34Ap     0.771359    15App    0.771359  
      35Ap     0.889181    16App    0.889181    36Ap     0.892832  
      17App    0.892832    37Ap     0.981964    38Ap     1.016392  
      18App    1.079851    39Ap     1.079851    40Ap     1.094783  
      19App    1.094783    41Ap     1.155617    20App    1.155617  
      42Ap     1.177579    21App    1.177579    43Ap     1.246249  
      44Ap     1.315101    22App    1.372110    45Ap     1.372110  
      46Ap     1.425726    47Ap     1.544994    23App    1.548857  
      48Ap     1.548857    49Ap     1.555879    24App    1.555879  
      50Ap     1.613346    51Ap     1.627575    25App    1.656485  
      52Ap     1.656485    26App    1.702100    53Ap     1.702100  
      27App    1.822057    54Ap     1.822057    55Ap     1.991542  
      28App    1.991542    56Ap     2.043182    29App    2.043182  
      30App    2.052965    57Ap     2.052965    58Ap     2.098178  
      31App    2.186879    59Ap     2.186879    60Ap     2.261981  
      32App    2.261981    61Ap     2.307117    33App    2.307117  
      62Ap     2.376744    63Ap     2.439577    34App    2.439577  
      35App    2.479838    64Ap     2.479838    65Ap     2.647255  
      66Ap     2.723427    67Ap     2.733177    36App    2.733177  
      68Ap     2.843822    37App    2.843822    69Ap     2.909491  
      38App    2.909491    70Ap     2.961601    71Ap     3.030127  
      39App    3.030127    40App    3.137722    72Ap     3.137722  
      73Ap     3.186237    74Ap     3.206556    41App    3.206556  
      75Ap     3.271516    76Ap     3.282093    42App    3.282094  
      43App    3.477893    77Ap     3.477893    78Ap     3.674627  
      44App    3.706188    79Ap     3.706188    80Ap     3.754250  
      45App    3.754250    81Ap     3.839397    46App    3.881457  
      82Ap     3.881457    83Ap     4.075135    47App    4.075135  
      84Ap     4.383546    85Ap     4.475813    48App    4.475813  
[...]

  ==> MemDFJK: Density-Fitted J/K Matrices <==

    J tasked:                   Yes
    K tasked:                   Yes
    wK tasked:                   No
    OpenMP threads:              24
    Memory [MiB]:            102622
    Algorithm:                 Core
    Schwarz Cutoff:           1E-12
    Mask sparsity (%):       0.0094
    Fitting Condition:        1E-10

   => Auxiliary Basis Set <=

  Basis Set: (AUG-CC-PV(Q+D)Z AUX)
    Blend: AUG-CC-PVQZ-JKFIT
    Number of shells: 86
    Number of basis function: 360
    Number of Cartesian functions: 497
    Spherical Harmonics?: true
    Max angular momentum: 5

  Cached 100.0% of DFT collocation blocks in 0.366 [GiB].

  Minimum eigenvalue in the overlap matrix is 1.7644544685E-05.
  Using Symmetric Orthogonalization.

  SCF Guess: Superposition of Atomic Densities via on-the-fly atomic UHF.

  ==> Iterations <==

                           Total Energy        Delta E     RMS |[F,P]|

   @DF-RKS iter SAD:   -92.32150038685403   -9.23215e+01   0.00000e+00 
   @DF-RKS iter   1:   -93.10698753903752   -7.85487e-01   2.78244e-03 DIIS
   @DF-RKS iter   2:   -93.09665130604374    1.03362e-02   2.96412e-03 DIIS
   @DF-RKS iter   3:   -93.18016462358841   -8.35133e-02   4.27937e-04 DIIS
   @DF-RKS iter   4:   -93.18200226113547   -1.83764e-03   6.56584e-05 DIIS
   @DF-RKS iter   5:   -93.18204942767650   -4.71665e-05   9.58076e-06 DIIS
   @DF-RKS iter   6:   -93.18205074827603   -1.32060e-06   2.25825e-06 DIIS
   @DF-RKS iter   7:   -93.18205083406984   -8.57938e-08   3.59698e-07 DIIS
   @DF-RKS iter   8:   -93.18205083569666   -1.62682e-09   4.56612e-08 DIIS
   @DF-RKS iter   9:   -93.18205083572090   -2.42437e-11   2.37120e-09 DIIS
   @DF-RKS iter  10:   -93.18205083572107   -1.70530e-13   4.81614e-10 DIIS
   @DF-RKS iter  11:   -93.18205083572110   -2.84217e-14   4.58210e-11 DIIS
  Energy and wave function converged.


  ==> Post-Iterations <==

    Orbital Energies [Eh]
    ---------------------

    Doubly Occupied:                                                      

       1Ap   -15.151504     2Ap   -10.913921     3Ap    -1.129347  
       4Ap    -0.746103     5Ap    -0.516835     1App   -0.455445  
       6Ap    -0.455445  

    Virtual:                                                              

       7Ap     0.011699     8Ap     0.047746     2App    0.047746  
       9Ap     0.049499    10Ap     0.093014     3App    0.093014  
      11Ap     0.096976    12Ap     0.105330    13Ap     0.134808  
       4App    0.134808    14Ap     0.163130    15Ap     0.199945  
       5App    0.199945    16Ap     0.209153    17Ap     0.228199  
       6App    0.228199    18Ap     0.288496    19Ap     0.294772  
      20Ap     0.320325     7App    0.320325     8App    0.364561  
      21Ap     0.364561    22Ap     0.398094    23Ap     0.427447  
       9App    0.427447    24Ap     0.434785    10App    0.434785  
      25Ap     0.446443    26Ap     0.555963    27Ap     0.599073  
      11App    0.599073    12App    0.614010    28Ap     0.614010  
      29Ap     0.640539    30Ap     0.698742    31Ap     0.706328  
      13App    0.706328    32Ap     0.730785    14App    0.766449  
      33Ap     0.766449    34Ap     0.771749    15App    0.771749  
      16App    0.888413    35Ap     0.888413    36Ap     0.892646  
      17App    0.892646    37Ap     0.974529    38Ap     1.017185  
      39Ap     1.079284    18App    1.079284    40Ap     1.095188  
      19App    1.095188    41Ap     1.152761    20App    1.152761  
      42Ap     1.176338    21App    1.176338    43Ap     1.243742  
      44Ap     1.314620    45Ap     1.370933    22App    1.370933  
      46Ap     1.422142    47Ap     1.540887    23App    1.548739  
      48Ap     1.548739    49Ap     1.551824    24App    1.551824  
      50Ap     1.612987    51Ap     1.623402    52Ap     1.655812  
      25App    1.655812    26App    1.703315    53Ap     1.703315  
      27App    1.821113    54Ap     1.821114    55Ap     1.993294  
      28App    1.993294    56Ap     2.042854    29App    2.042854  
      30App    2.053259    57Ap     2.053259    58Ap     2.099728  
      31App    2.185883    59Ap     2.185883    60Ap     2.259498  
      32App    2.259498    61Ap     2.306165    33App    2.306165  
      62Ap     2.376204    63Ap     2.434683    34App    2.434683  
      35App    2.479328    64Ap     2.479328    65Ap     2.640728  
      66Ap     2.722756    67Ap     2.730494    36App    2.730494  
      68Ap     2.833538    37App    2.833538    69Ap     2.906491  
      38App    2.906491    70Ap     2.960264    39App    3.029842  
      71Ap     3.029842    72Ap     3.136762    40App    3.136762  
      73Ap     3.181775    74Ap     3.204457    41App    3.204457  
      75Ap     3.267662    76Ap     3.279572    42App    3.279573  
      43App    3.476555    77Ap     3.476556    78Ap     3.664299  
      44App    3.692994    79Ap     3.692994    45App    3.746734  
      80Ap     3.746734    81Ap     3.840318    46App    3.875980  
      82Ap     3.875980    83Ap     4.077268    47App    4.077268  
      84Ap     4.376983    85Ap     4.466643    48App    4.466643  
      86Ap     4.633986    49App    4.633986    87Ap     4.719478  
      50App    4.719478    88Ap     4.742789    89Ap     4.888651  
      90Ap     5.274674    91Ap     5.818193    51App    5.818194  
      52App    5.856908    92Ap     5.856908    53App    5.892403  
      93Ap     5.892404    54App    6.015458    94Ap     6.015458  
      55App    6.291017    95Ap     6.291018    56App    6.331707  
      96Ap     6.331707    97Ap     6.482359    57App    6.482359  
      98Ap     6.517435    99Ap     6.697973    58App    6.697973  
     100Ap     6.846697    59App    6.953297   101Ap     6.953298  
     102Ap     7.165525    60App    7.165525   103Ap     7.644171  
     104Ap     7.991956    61App    7.991956    62App    8.075737  
     105Ap     8.075738   106Ap     8.087269    63App    8.145237  
     107Ap     8.145244    64App    8.200825   108Ap     8.200825  
      65App    8.511977   109Ap     8.511977   110Ap     8.580547  
      66App    8.669813   111Ap     8.669813   112Ap     8.877395  
      67App    8.877398    68App    8.938077   113Ap     8.938077  
     114Ap     9.109000   115Ap     9.113606    69App    9.113610  
     116Ap     9.143320    70App    9.143320   117Ap     9.552455  
      71App    9.552455   118Ap     9.722971    72App    9.789952  
     119Ap     9.789953   120Ap     9.926657   121Ap    10.128359  
      73App   10.128365    74App   10.234178   122Ap    10.234178  
     123Ap    10.748714   124Ap    11.142022    75App   11.362317  
     125Ap    11.362317   126Ap    12.530869   127Ap    12.798529  
      76App   12.798529   128Ap    14.630038   129Ap    25.907159  
     130Ap    33.594617  

    Final Occupation by Irrep:
             Ap   App 
    DOCC [     6,    1 ]

  @DF-RKS Final Energy:   -93.18205083572110

   => Energetics <=

    Nuclear Repulsion Energy =             23.9333177680886600
    One-Electron Energy =                -172.7804325758313837
    Two-Electron Energy =                  59.4283050992825963
    DFT Exchange-Correlation Energy =      -3.7622845072609792
    Empirical Dispersion Energy =          -0.0009566200000000
    VV10 Nonlocal Energy =                  0.0000000000000000
    Total Energy =                        -93.1820508357210855

Computation Completed


Properties will be evaluated at   0.000000,   0.000000,   0.000000 [a0]

Properties computed using the SCF density matrix

  Nuclear Dipole Moment: [e a0]
     X:     0.0000      Y:     0.0000      Z:    -1.5219

  Electronic Dipole Moment: [e a0]
     X:    -0.0000      Y:     0.0000      Z:     0.2613

  Dipole Moment: [e a0]
     X:     0.0000      Y:     0.0000      Z:    -1.2606     Total:     1.2606

  Dipole Moment: [D]
     X:     0.0000      Y:     0.0000      Z:    -3.2042     Total:     3.2042


*** tstop() called on bp1-compute00191.data.bp.acrc.priv at Mon Apr 19 15:46:32 2021
Module time:
	user time   =      54.58 seconds =       0.91 minutes
	system time =       1.43 seconds =       0.02 minutes
	total time  =          3 seconds =       0.05 minutes
Total time:
	user time   =    2319.56 seconds =      38.66 minutes
	system time =      76.68 seconds =       1.28 minutes
	total time  =        108 seconds =       1.80 minutes

*** tstart() called on bp1-compute00191.data.bp.acrc.priv
*** at Mon Apr 19 15:46:32 2021

   => Loading Basis Set <=

    Name: (AUG-CC-PV(Q+D)Z AUX)
    Role: RIFIT
    Keyword: DF_BASIS_MP2
    atoms 1 entry C          line   184 file /work/zw18965/.conda/envs/p4env/share/psi4/basis/aug-cc-pvqz-ri.gbs 
    atoms 2 entry N          line   258 file /work/zw18965/.conda/envs/p4env/share/psi4/basis/aug-cc-pvqz-ri.gbs 
    atoms 3 entry H          line    30 file /work/zw18965/.conda/envs/p4env/share/psi4/basis/aug-cc-pvqz-ri.gbs 

	 --------------------------------------------------------
	                          DF-MP2                         
	      2nd-Order Density-Fitted Moller-Plesset Theory     
	              RMP2 Wavefunction,  24 Threads             
	                                                         
	        Rob Parrish, Justin Turney, Andy Simmonett,      
	           Ed Hohenstein, and C. David Sherrill          
	 --------------------------------------------------------

   => Auxiliary Basis Set <=

  Basis Set: (AUG-CC-PV(Q+D)Z AUX)
    Blend: AUG-CC-PVQZ-RI
    Number of shells: 92
    Number of basis function: 416
    Number of Cartesian functions: 579
    Spherical Harmonics?: true
    Max angular momentum: 5

	 --------------------------------------------------------
	                 NBF =   206, NAUX =   416
	 --------------------------------------------------------
	   CLASS    FOCC     OCC    AOCC    AVIR     VIR    FVIR
	   PAIRS       0       7       7     199     199       0
	 --------------------------------------------------------

	-----------------------------------------------------------
	 ==================> DF-MP2 Energies <==================== 
	-----------------------------------------------------------
	 Reference Energy          =     -93.1820508357210997 [Eh]
	 Singles Energy            =      -0.0000000000000000 [Eh]
	 Same-Spin Energy          =      -0.1094654743642361 [Eh]
	 Opposite-Spin Energy      =      -0.3687890876067915 [Eh]
	 Correlation Energy        =      -0.4782545619710275 [Eh]
	 Total Energy              =     -93.6603053976921274 [Eh]
	-----------------------------------------------------------
	 ================> DF-SCS-MP2 Energies <================== 
	-----------------------------------------------------------
	 SCS Same-Spin Scale       =       0.4000000000000000 [-]
	 SCS Opposite-Spin Scale   =       0.4700000000000000 [-]
	 SCS Same-Spin Energy      =      -0.0437861897456944 [Eh]
	 SCS Opposite-Spin Energy  =      -0.1733308711751920 [Eh]
	 SCS Correlation Energy    =      -0.2171170609208864 [Eh]
	 SCS Total Energy          =     -93.3991678966419840 [Eh]
	-----------------------------------------------------------



    DSD-BLYP-D3BJ Energy Summary
    ----------------------------
    DFT Reference Energy                  =   -93.1820508357210997
    Scaled MP2 Correlation                =    -0.2171170609208864
    @Final double-hybrid DFT total energy =   -93.3991678966419840


*** tstop() called on bp1-compute00191.data.bp.acrc.priv at Mon Apr 19 15:46:33 2021
Module time:
	user time   =      12.26 seconds =       0.20 minutes
	system time =       0.45 seconds =       0.01 minutes
	total time  =          1 seconds =       0.02 minutes
Total time:
	user time   =    2331.84 seconds =      38.86 minutes
	system time =      77.13 seconds =       1.29 minutes
	total time  =        109 seconds =       1.82 minutes

         ----------------------------------------------------------
                                   FINDIF
                     R. A. King and Jonathon Misiewicz
         ---------------------------------------------------------

  Computing second-derivative from energies using projected, 
  symmetry-adapted, cartesian coordinates.

  13 energies passed in, including the reference geometry.
    Using 3-point formula.
    Energy without displacement:  -93.3991726646
    Check energies below for precision!
    0: -1        :       -93.3991723913
    0: 1         :       -93.3991724030
    1: -1        :       -93.3991697438
    1: 1         :       -93.3991694512
    2: -1        :       -93.3991676875
    2: 1         :       -93.3991680233
    0: 1, 1: 1   :       -93.3991691852
    0: -1, 1: -1 :       -93.3991694752
    0: 1, 2: 1   :       -93.3991677722
    0: -1, 2: -1 :       -93.3991674037
    1: 1, 2: 1   :       -93.3991679560
    1: -1, 2: -1 :       -93.3991678966

-------------------------------------------------------------


  ==> Harmonic Vibrational Analysis <==

  non-mass-weighted Hessian:       Symmetric? True   Hermitian? True   Lin Dep Dim?  6 (0)
  projection of translations (True) and rotations (True) removed 5 degrees of freedom (6)
  total projector:                 Symmetric? True   Hermitian? True   Lin Dep Dim?  5 (5)
  mass-weighted Hessian:           Symmetric? True   Hermitian? True   Lin Dep Dim?  6 (0)
  pre-proj  low-frequency mode:    0.0000i [cm^-1]
  pre-proj  low-frequency mode:    0.0000i [cm^-1]
  pre-proj  low-frequency mode:    0.0000i [cm^-1]
  pre-proj  low-frequency mode:    0.0000  [cm^-1]
  pre-proj  low-frequency mode:    0.0000  [cm^-1]
  pre-proj  low-frequency mode:    0.0000  [cm^-1]
  pre-proj  all modes:['0.0000i' '0.0000i' '0.0000i' '0.0000' '0.0000' '0.0000' '751.8714'
 '2128.7036' '3481.1854']
  projected mass-weighted Hessian: Symmetric? True   Hermitian? True   Lin Dep Dim?  6 (5)
  post-proj low-frequency mode:    0.0000i [cm^-1] (-)
  post-proj low-frequency mode:    0.0000i [cm^-1] (-)
  post-proj low-frequency mode:    0.0000i [cm^-1] (-)
  post-proj low-frequency mode:    0.0000i [cm^-1] (-)
  post-proj low-frequency mode:    0.0000  [cm^-1] (-)
  post-proj low-frequency mode:    0.0000  [cm^-1] (-)
  post-proj  all modes:['0.0000i' '0.0000i' '0.0000i' '0.0000i' '0.0000' '0.0000' '751.8714'
 '2128.7036' '3481.1854']

  Vibration                       7                   8                   9           
  Freq [cm^-1]                 751.8714           2128.7036           3481.1854       
  Irrep                           Ap                  Ap                  Ap          
  Reduced mass [u]              1.3413              5.4506              1.1731        
  Force const [mDyne/A]         0.4468             14.5520              8.3760        
  Turning point v=0 [a0]        0.3455              0.1019              0.1717        
  RMS dev v=0 [a0 u^1/2]        0.2830              0.1682              0.1315        
  Char temp [K]               1081.7755           3062.7306           5008.6508       
  ----------------------------------------------------------------------------------
      1   C               -0.16  0.00 -0.00    0.00 -0.00 -0.43    0.00 -0.00 -0.12   
      2   N                0.07 -0.00  0.00   -0.00 -0.00  0.43    0.00  0.00  0.03   
      3   H                0.99  0.00  0.00   -0.00  0.00 -0.79   -0.00 -0.00  0.99   

  ==> Thermochemistry Components <==

  Entropy, S
    Electronic S            0.000 [cal/(mol K)]        0.000 [J/(mol K)]       0.00000000 [mEh/K] (multiplicity = 1)
    Translational S        35.816 [cal/(mol K)]      149.856 [J/(mol K)]       0.05707695 [mEh/K] (mol. weight = 27.0109 [u], P = 101325.00 [Pa])
    Rotational S           11.795 [cal/(mol K)]       49.350 [J/(mol K)]       0.01879631 [mEh/K] (symmetry no. = 1)
    Vibrational S           0.251 [cal/(mol K)]        1.050 [J/(mol K)]       0.00040001 [mEh/K]
  Total S                  47.862 [cal/(mol K)]      200.255 [J/(mol K)]       0.07627327 [mEh/K]
  Correction S              0.000 [cal/(mol K)]        0.000 [J/(mol K)]       0.00000000 [mEh/K]

  Constant volume heat capacity, Cv
    Electronic Cv           0.000 [cal/(mol K)]        0.000 [J/(mol K)]       0.00000000 [mEh/K]
    Translational Cv        2.981 [cal/(mol K)]       12.472 [J/(mol K)]       0.00475022 [mEh/K]
    Rotational Cv           1.987 [cal/(mol K)]        8.314 [J/(mol K)]       0.00316681 [mEh/K]
    Vibrational Cv          0.741 [cal/(mol K)]        3.099 [J/(mol K)]       0.00118019 [mEh/K]
  Total Cv                  5.709 [cal/(mol K)]       23.885 [J/(mol K)]       0.00909722 [mEh/K]
  Correction Cv             0.000 [cal/(mol K)]        0.000 [J/(mol K)]       0.00000000 [mEh/K]

  Constant pressure heat capacity, Cp
    Electronic Cp           0.000 [cal/(mol K)]        0.000 [J/(mol K)]       0.00000000 [mEh/K]
    Translational Cp        4.968 [cal/(mol K)]       20.786 [J/(mol K)]       0.00791703 [mEh/K]
    Rotational Cp           1.987 [cal/(mol K)]        8.314 [J/(mol K)]       0.00316681 [mEh/K]
    Vibrational Cp          0.741 [cal/(mol K)]        3.099 [J/(mol K)]       0.00118019 [mEh/K]
  Total Cp                  7.696 [cal/(mol K)]       32.199 [J/(mol K)]       0.01226403 [mEh/K]
  Correction Cp             0.000 [cal/(mol K)]        0.000 [J/(mol K)]       0.00000000 [mEh/K]

  ==> Thermochemistry Energy Analysis <==

  Raw electronic energy, E0
  Total E0, Electronic energy at well bottom at 0 [K]                  -93.39917266 [Eh]

  Zero-point energy, ZPE_vib = Sum_i nu_i / 2
    Electronic ZPE          0.000 [kcal/mol]        0.000 [kJ/mol]       0.00000000 [Eh]
    Translational ZPE       0.000 [kcal/mol]        0.000 [kJ/mol]       0.00000000 [Eh]
    Rotational ZPE          0.000 [kcal/mol]        0.000 [kJ/mol]       0.00000000 [Eh]
    Vibrational ZPE         9.095 [kcal/mol]       38.052 [kJ/mol]       0.01449316 [Eh]        3180.880 [cm^-1]
  Correction ZPE            9.095 [kcal/mol]       38.052 [kJ/mol]       0.01449316 [Eh]        3180.880 [cm^-1]
  Total ZPE, Electronic energy at 0 [K]                                -93.38467951 [Eh]

  Thermal Energy, E (includes ZPE)
    Electronic E            0.000 [kcal/mol]        0.000 [kJ/mol]       0.00000000 [Eh]
    Translational E         0.889 [kcal/mol]        3.718 [kJ/mol]       0.00141628 [Eh]
    Rotational E            0.592 [kcal/mol]        2.479 [kJ/mol]       0.00094418 [Eh]
    Vibrational E           9.153 [kcal/mol]       38.298 [kJ/mol]       0.01458697 [Eh]
  Correction E             10.635 [kcal/mol]       44.495 [kJ/mol]       0.01694743 [Eh]
  Total E, Electronic energy at  298.15 [K]                            -93.38222523 [Eh]

  Enthalpy, H_trans = E_trans + k_B * T
    Electronic H            0.000 [kcal/mol]        0.000 [kJ/mol]       0.00000000 [Eh]
    Translational H         1.481 [kcal/mol]        6.197 [kJ/mol]       0.00236046 [Eh]
    Rotational H            0.592 [kcal/mol]        2.479 [kJ/mol]       0.00094418 [Eh]
    Vibrational H           9.153 [kcal/mol]       38.298 [kJ/mol]       0.01458697 [Eh]
  Correction H             11.227 [kcal/mol]       46.974 [kJ/mol]       0.01789162 [Eh]
  Total H, Enthalpy at  298.15 [K]                                     -93.38128105 [Eh]

  Gibbs free energy, G = H - T * S
    Electronic G            0.000 [kcal/mol]        0.000 [kJ/mol]       0.00000000 [Eh]
    Translational G        -9.197 [kcal/mol]      -38.482 [kJ/mol]      -0.01465703 [Eh]
    Rotational G           -2.924 [kcal/mol]      -12.235 [kJ/mol]      -0.00465993 [Eh]
    Vibrational G           9.079 [kcal/mol]       37.985 [kJ/mol]       0.01446771 [Eh]
  Correction G             -3.043 [kcal/mol]      -12.732 [kJ/mol]      -0.00484926 [Eh]
  Total G, Free enthalpy at  298.15 [K]                                -93.40402192 [Eh]

    Psi4 stopped on: Monday, 19 April 2021 03:46PM
    Psi4 wall time for execution: 0:01:49.25

*** Psi4 exiting successfully. Buy a developer a beer!
