
    -----------------------------------------------------------------------
          Psi4: An Open-Source Ab Initio Electronic Structure Package
                               Psi4 1.3.2 release

                         Git: Rev {HEAD} ecbda83 


    R. M. Parrish, L. A. Burns, D. G. A. Smith, A. C. Simmonett,
    A. E. DePrince III, E. G. Hohenstein, U. Bozkaya, A. Yu. Sokolov,
    R. Di Remigio, R. M. Richard, J. F. Gonthier, A. M. James,
    H. R. McAlexander, A. Kumar, M. Saitow, X. Wang, B. P. Pritchard,
    P. Verma, H. F. Schaefer III, K. Patkowski, R. A. King, E. F. Valeev,
    F. A. Evangelista, J. M. Turney, T. D. Crawford, and C. D. Sherrill,
    J. Chem. Theory Comput. 13(7) pp 3185--3197 (2017).
    (doi: 10.1021/acs.jctc.7b00174)


                         Additional Contributions by
    P. Kraus, H. Kruse, M. H. Lechner, M. C. Schieber, R. A. Shaw,
    A. Alenaizan, R. Galvelis, Z. L. Glick, S. Lehtola, and J. P. Misiewicz

    -----------------------------------------------------------------------


    Psi4 started on: Monday, 19 April 2021 03:45PM

    Process ID: 16873
    Host:       bp1-compute00143.data.bp.acrc.priv
    PSIDATADIR: /work/zw18965/.conda/envs/p4env/share/psi4
    Memory:     500.0 MiB
    Threads:    24
    
  ==> Input File <==

--------------------------------------------------------------------------
memory 144 GB

molecule {
0 1
N    -0.069579945097   0.430449634685   0.000000000000
O     0.961484628022  -0.189175047824   0.000000000000
H    -0.891904677634  -0.241274586861   0.000000000000}

set basis aug-cc-pV(Q+d)Z
 
optimize("DSD-BLYP-D3BJ")
frequencies("DSD-BLYP-D3BJ")--------------------------------------------------------------------------

  Memory set to 134.110 GiB by Python driver.
gradient() will perform gradient computation by finite difference of analytic energies.

         ----------------------------------------------------------
                                   FINDIF
                     R. A. King and Jonathon Misiewicz
         ---------------------------------------------------------

  Using finite-differences of energies to determine gradients.
    Generating geometries for use with 3-point formula.
    Displacement size will be 5.00e-03.
    Number of atoms is 3.
    Number of symmetric SALCs is 3.
    Translations projected? 1. Rotations projected? 1.
    Number of geometries (including reference) is 7.

  //>>>>>>>>>>>>>>>>>>>>>>>>>>>>>>>>>>>//
  //    Loading displacement 1 of 7    //
  //<<<<<<<<<<<<<<<<<<<<<<<<<<<<<<<<<<<//

*** tstart() called on bp1-compute00143.data.bp.acrc.priv
*** at Mon Apr 19 15:45:18 2021

   => Loading Basis Set <=

    Name: AUG-CC-PV(Q+D)Z
    Role: ORBITAL
    Keyword: BASIS
    atoms 1 entry N          line   379 file /work/zw18965/.conda/envs/p4env/share/psi4/basis/aug-cc-pv_qpd_z.gbs 
    atoms 2 entry O          line   439 file /work/zw18965/.conda/envs/p4env/share/psi4/basis/aug-cc-pv_qpd_z.gbs 
    atoms 3 entry H          line    56 file /work/zw18965/.conda/envs/p4env/share/psi4/basis/aug-cc-pv_qpd_z.gbs 


         ---------------------------------------------------------
                                   SCF
               by Justin Turney, Rob Parrish, Andy Simmonett
                          and Daniel G. A. Smith
                              RKS Reference
                       24 Threads, 137329 MiB Core
         ---------------------------------------------------------

  ==> Geometry <==

    Molecular point group: cs
    Full point group: Cs

    Geometry (in Angstrom), charge = 0, multiplicity = 1:

       Center              X                  Y                   Z               Mass       
    ------------   -----------------  -----------------  -----------------  -----------------
         N           -0.505164306858     0.341478681886     0.000000000000    14.003074004430
         O            0.525900266261    -0.278146000623     0.000000000000    15.994914619570
         H           -1.327489039395    -0.330245539660     0.000000000000     1.007825032230

  Running in cs symmetry.

  Rotational constants: A =     19.01460  B =      1.42056  C =      1.32181 [cm^-1]
  Rotational constants: A = 570043.34949  B =  42587.37212  C =  39626.88679 [MHz]
  Nuclear repulsion =   30.406756849074540

  Charge       = 0
  Multiplicity = 1
  Electrons    = 16
  Nalpha       = 8
  Nbeta        = 8

  ==> Algorithm <==

  SCF Algorithm Type is DF.
  DIIS enabled.
  MOM disabled.
  Fractional occupation disabled.
  Guess Type is SAD.
  Energy threshold   = 1.00e-08
  Density threshold  = 1.00e-08
  Integral threshold = 0.00e+00

  ==> Primary Basis <==

  Basis Set: AUG-CC-PV(Q+D)Z
    Blend: AUG-CC-PV(Q+D)Z
    Number of shells: 54
    Number of basis function: 206
    Number of Cartesian functions: 265
    Spherical Harmonics?: true
    Max angular momentum: 4

  ==> DFT Potential <==

   => Composite Functional: DSD-BLYP-D3BJ <= 

    DSD-BLYP-D3BJ Dispersion-corrected SCS Double Hybrid XC Functional

    S. Kozuch, J.M.L. Martin, J. Comp. Chem., 34, 2327-2344, 2013


    Deriv               =              1
    GGA                 =           TRUE
    Meta                =          FALSE

    Exchange Hybrid     =           TRUE
    MP2 Hybrid          =           TRUE

   => Exchange Functionals <=

    0.2900     XC_GGA_X_B88

   => Exact (HF) Exchange <=

    0.7100               HF 

   => Correlation Functionals <=

    0.5400     XC_GGA_C_LYP

   => MP2 Correlation <=

    MP2 SCS Hybrid      =           TRUE
    MP2 OS Alpha        =       0.470000
    MP2 SS Alpha        =       0.400000

   => Molecular Quadrature <=

    Radial Scheme          =       TREUTLER
    Pruning Scheme         =           FLAT
    Nuclear Scheme         =       TREUTLER

    BS radius alpha        =              1
    Pruning alpha          =              1
    Radial Points          =             75
    Spherical Points       =            302
    Total Points           =          67950
    Total Blocks           =            581
    Max Points             =            256
    Max Functions          =            206

   => DSD-BLYP-D3BJ: Empirical Dispersion <=

    Grimme's -D3 (BJ-damping) Dispersion Correction
    Grimme S.; Ehrlich S.; Goerigk L. (2011), J. Comput. Chem., 32: 1456
    Parametrisation from:    S. Kozuch, J.M.L. Martin, J. Comp. Chem., 34, 2327-2344, 2013

        s6 =       0.570000
        s8 =       0.000000
        a1 =       0.000000
        a2 =       5.400000

   => Loading Basis Set <=

    Name: (AUG-CC-PV(Q+D)Z AUX)
    Role: JKFIT
    Keyword: DF_BASIS_SCF
    atoms 1 entry N          line   248 file /work/zw18965/.conda/envs/p4env/share/psi4/basis/aug-cc-pvqz-jkfit.gbs 
    atoms 2 entry O          line   318 file /work/zw18965/.conda/envs/p4env/share/psi4/basis/aug-cc-pvqz-jkfit.gbs 
    atoms 3 entry H          line    70 file /work/zw18965/.conda/envs/p4env/share/psi4/basis/aug-cc-pvqz-jkfit.gbs 

  ==> Pre-Iterations <==

   -------------------------------------------------------
    Irrep   Nso     Nmo     Nalpha   Nbeta   Ndocc  Nsocc
   -------------------------------------------------------
     A'       130     130       0       0       0       0
     A"        76      76       0       0       0       0
   -------------------------------------------------------
    Total     206     206       8       8       8       0
   -------------------------------------------------------

  ==> Integral Setup <==

  DFHelper Memory: AOs need 0.133 GiB; user supplied 100.220 GiB. Using in-core AOs.

  ==> MemDFJK: Density-Fitted J/K Matrices <==

    J tasked:                   Yes
    K tasked:                   Yes
    wK tasked:                   No
    OpenMP threads:              24
    Memory [MiB]:            102624
    Algorithm:                 Core
    Schwarz Cutoff:           1E-12
    Mask sparsity (%):       0.0000
    Fitting Condition:        1E-10

   => Auxiliary Basis Set <=

  Basis Set: (AUG-CC-PV(Q+D)Z AUX)
    Blend: AUG-CC-PVQZ-JKFIT
    Number of shells: 86
    Number of basis function: 360
    Number of Cartesian functions: 497
    Spherical Harmonics?: true
    Max angular momentum: 5

  Cached 100.0% of DFT collocation blocks in 0.363 [GiB].

  Minimum eigenvalue in the overlap matrix is 6.4603889518E-05.
  Using Symmetric Orthogonalization.

  SCF Guess: Superposition of Atomic Densities via on-the-fly atomic UHF.

  ==> Iterations <==

                           Total Energy        Delta E     RMS |[F,P]|

   @DF-RKS iter SAD:  -129.58124402291281   -1.29581e+02   0.00000e+00 
   @DF-RKS iter   1:  -130.14999803840308   -5.68754e-01   1.77116e-03 DIIS
   @DF-RKS iter   2:  -130.16307705838105   -1.30790e-02   1.46638e-03 DIIS
   @DF-RKS iter   3:  -130.17779567334745   -1.47186e-02   3.87651e-04 DIIS
   @DF-RKS iter   4:  -130.17894909908034   -1.15343e-03   8.95112e-05 DIIS
   @DF-RKS iter   5:  -130.17902640191991   -7.73028e-05   1.83175e-05 DIIS
   @DF-RKS iter   6:  -130.17903078745141   -4.38553e-06   4.17683e-06 DIIS
   @DF-RKS iter   7:  -130.17903124039586   -4.52944e-07   1.53005e-06 DIIS
   @DF-RKS iter   8:  -130.17903129586773   -5.54719e-08   3.56977e-07 DIIS
   @DF-RKS iter   9:  -130.17903129839604   -2.52831e-09   6.17045e-08 DIIS
   @DF-RKS iter  10:  -130.17903129847562   -7.95808e-11   9.68369e-09 DIIS
  Energy and wave function converged.


  ==> Post-Iterations <==

    Orbital Energies [Eh]
    ---------------------

    Doubly Occupied:                                                      

       1Ap   -20.141818     2Ap   -15.262962     3Ap    -1.411383  
       4Ap    -0.902900     5Ap    -0.677707     6Ap    -0.598039  
       1App   -0.557720     7Ap    -0.368252  

    Virtual:                                                              

       2App   -0.000132     8Ap     0.014198     9Ap     0.064641  
      10Ap     0.081270     3App    0.088435    11Ap     0.113908  
      12Ap     0.132585    13Ap     0.143818     4App    0.152565  
      14Ap     0.184252     5App    0.189925    15Ap     0.226652  
      16Ap     0.258880    17Ap     0.298953    18Ap     0.333257  
      19Ap     0.354685     6App    0.358398     7App    0.383188  
      20Ap     0.413419    21Ap     0.475763     8App    0.480567  
      22Ap     0.497525    23Ap     0.517662    24Ap     0.526282  
       9App    0.527433    10App    0.564279    25Ap     0.571967  
      26Ap     0.616596    27Ap     0.642962    11App    0.645786  
      28Ap     0.688704    29Ap     0.725561    12App    0.731149  
      30Ap     0.776115    31Ap     0.852481    13App    0.870055  
      32Ap     0.896045    14App    0.931791    33Ap     0.966305  
      34Ap     1.040854    15App    1.043379    35Ap     1.080145  
      16App    1.088837    36Ap     1.093113    37Ap     1.137129  
      17App    1.159164    18App    1.323662    38Ap     1.324990  
      39Ap     1.378143    40Ap     1.389044    19App    1.394637  
      41Ap     1.417367    42Ap     1.429451    43Ap     1.452993  
      20App    1.457638    44Ap     1.534864    21App    1.554846  
      45Ap     1.594418    46Ap     1.609906    22App    1.634933  
      47Ap     1.698262    23App    1.702087    48Ap     1.766708  
      49Ap     1.832806    24App    1.839148    25App    1.871104  
      50Ap     1.874201    26App    1.934725    51Ap     1.942383  
      52Ap     2.010548    27App    2.026872    53Ap     2.045124  
      54Ap     2.115210    55Ap     2.192821    28App    2.365340  
      56Ap     2.560009    29App    2.612929    30App    2.651366  
      57Ap     2.693634    58Ap     2.776053    59Ap     2.816017  
      31App    2.923543    60Ap     2.944483    32App    2.944498  
      61Ap     3.028438    33App    3.031528    62Ap     3.046081  
      63Ap     3.078567    34App    3.117566    64Ap     3.122937  
      35App    3.146092    65Ap     3.165763    66Ap     3.231709  
      36App    3.297917    67Ap     3.303034    68Ap     3.431461  
      37App    3.474287    69Ap     3.551109    38App    3.581941  
      70Ap     3.726814    39App    3.752232    71Ap     3.752686  
      40App    3.851528    72Ap     3.852594    41App    3.910309  
      73Ap     3.956764    74Ap     3.987037    75Ap     4.023446  
      42App    4.065809    76Ap     4.078272    43App    4.163564  
      77Ap     4.180724    44App    4.197930    78Ap     4.293775  
      79Ap     4.361717    80Ap     4.379613    45App    4.429161  
      81Ap     4.471089    46App    4.549181    82Ap     4.698138  
      83Ap     4.739449    84Ap     4.812149    47App    4.836700  
      85Ap     5.140902    48App    5.243437    49App    5.373622  
      86Ap     5.470203    87Ap     5.546552    88Ap     5.578975  
      50App    5.846617    89Ap     6.034439    90Ap     6.548047  
      91Ap     6.641303    51App    6.684055    92Ap     7.152155  
      52App    7.231048    53App    7.247540    93Ap     7.485138  
      94Ap     7.631242    95Ap     7.986139    54App    8.086200  
      55App    8.139248    96Ap     8.190914    97Ap     8.241474  
      56App    8.348608    98Ap     8.385690    57App    8.439889  
      58App    8.461563    99Ap     8.470931   100Ap     8.672066  
      59App    8.805239   101Ap     8.835681    60App    8.916711  
     102Ap     8.987210   103Ap     9.058871   104Ap     9.213234  
      61App    9.216478   105Ap     9.268260    62App    9.381270  
      63App    9.440167   106Ap     9.638396   107Ap     9.677923  
     108Ap     9.841321    64App   10.007121   109Ap    10.172860  
      65App   10.329987   110Ap    10.345589    66App   10.467639  
     111Ap    10.471445   112Ap    10.674234    67App   10.696114  
     113Ap    10.751824   114Ap    10.963926    68App   11.042500  
      69App   11.118946   115Ap    11.190756   116Ap    11.336177  
      70App   11.485822    71App   11.577677   117Ap    11.684322  
     118Ap    11.706066    72App   11.727371   119Ap    11.840587  
     120Ap    11.902430    73App   12.127092   121Ap    12.159803  
     122Ap    12.392654    74App   12.510234    75App   12.663720  
     123Ap    12.731355   124Ap    12.803927   125Ap    13.843037  
      76App   13.991026   126Ap    14.132971   127Ap    14.378095  
     128Ap    15.497531   129Ap    33.514245   130Ap    42.882735  

    Final Occupation by Irrep:
             Ap   App 
    DOCC [     7,    1 ]

  @DF-RKS Final Energy:  -130.17903129847562

   => Energetics <=

    Nuclear Repulsion Energy =             30.4067568490745401
    One-Electron Energy =                -237.9434207679565816
    Two-Electron Energy =                  82.0595800394155646
    DFT Exchange-Correlation Energy =      -4.7012794090091443
    Empirical Dispersion Energy =          -0.0006680100000000
    VV10 Nonlocal Energy =                  0.0000000000000000
    Total Energy =                       -130.1790312984755928

Computation Completed


Properties will be evaluated at   0.000000,   0.000000,   0.000000 [a0]

Properties computed using the SCF density matrix

  Nuclear Dipole Moment: [e a0]
     X:    -1.2405      Y:    -0.3119      Z:     0.0000

  Electronic Dipole Moment: [e a0]
     X:     0.5557      Y:     0.0314      Z:     0.0000

  Dipole Moment: [e a0]
     X:    -0.6848      Y:    -0.2805      Z:     0.0000     Total:     0.7400

  Dipole Moment: [D]
     X:    -1.7405      Y:    -0.7130      Z:     0.0000     Total:     1.8809


*** tstop() called on bp1-compute00143.data.bp.acrc.priv at Mon Apr 19 15:45:20 2021
Module time:
	user time   =      54.07 seconds =       0.90 minutes
	system time =       3.18 seconds =       0.05 minutes
	total time  =          2 seconds =       0.03 minutes
Total time:
	user time   =      54.07 seconds =       0.90 minutes
	system time =       3.18 seconds =       0.05 minutes
	total time  =          2 seconds =       0.03 minutes

*** tstart() called on bp1-compute00143.data.bp.acrc.priv
*** at Mon Apr 19 15:45:20 2021

   => Loading Basis Set <=

    Name: (AUG-CC-PV(Q+D)Z AUX)
    Role: RIFIT
    Keyword: DF_BASIS_MP2
    atoms 1 entry N          line   258 file /work/zw18965/.conda/envs/p4env/share/psi4/basis/aug-cc-pvqz-ri.gbs 
    atoms 2 entry O          line   332 file /work/zw18965/.conda/envs/p4env/share/psi4/basis/aug-cc-pvqz-ri.gbs 
    atoms 3 entry H          line    30 file /work/zw18965/.conda/envs/p4env/share/psi4/basis/aug-cc-pvqz-ri.gbs 

	 --------------------------------------------------------
	                          DF-MP2                         
	      2nd-Order Density-Fitted Moller-Plesset Theory     
	              RMP2 Wavefunction,  24 Threads             
	                                                         
	        Rob Parrish, Justin Turney, Andy Simmonett,      
	           Ed Hohenstein, and C. David Sherrill          
	 --------------------------------------------------------

   => Auxiliary Basis Set <=

  Basis Set: (AUG-CC-PV(Q+D)Z AUX)
    Blend: AUG-CC-PVQZ-RI
    Number of shells: 92
    Number of basis function: 416
    Number of Cartesian functions: 579
    Spherical Harmonics?: true
    Max angular momentum: 5

	 --------------------------------------------------------
	                 NBF =   206, NAUX =   416
	 --------------------------------------------------------
	   CLASS    FOCC     OCC    AOCC    AVIR     VIR    FVIR
	   PAIRS       0       8       8     198     198       0
	 --------------------------------------------------------

	-----------------------------------------------------------
	 ==================> DF-MP2 Energies <==================== 
	-----------------------------------------------------------
	 Reference Energy          =    -130.1790312984756213 [Eh]
	 Singles Energy            =      -0.0000000000000000 [Eh]
	 Same-Spin Energy          =      -0.1384403695709826 [Eh]
	 Opposite-Spin Energy      =      -0.4522329964467726 [Eh]
	 Correlation Energy        =      -0.5906733660177552 [Eh]
	 Total Energy              =    -130.7697046644933891 [Eh]
	-----------------------------------------------------------
	 ================> DF-SCS-MP2 Energies <================== 
	-----------------------------------------------------------
	 SCS Same-Spin Scale       =       0.4000000000000000 [-]
	 SCS Opposite-Spin Scale   =       0.4700000000000000 [-]
	 SCS Same-Spin Energy      =      -0.0553761478283930 [Eh]
	 SCS Opposite-Spin Energy  =      -0.2125495083299831 [Eh]
	 SCS Correlation Energy    =      -0.2679256561583762 [Eh]
	 SCS Total Energy          =    -130.4469569546340040 [Eh]
	-----------------------------------------------------------



    DSD-BLYP-D3BJ Energy Summary
    ----------------------------
    DFT Reference Energy                  =  -130.1790312984756213
    Scaled MP2 Correlation                =    -0.2679256561583762
    @Final double-hybrid DFT total energy =  -130.4469569546340040


*** tstop() called on bp1-compute00143.data.bp.acrc.priv at Mon Apr 19 15:45:21 2021
Module time:
	user time   =      12.36 seconds =       0.21 minutes
	system time =       0.59 seconds =       0.01 minutes
	total time  =          1 seconds =       0.02 minutes
Total time:
	user time   =      66.45 seconds =       1.11 minutes
	system time =       3.77 seconds =       0.06 minutes
	total time  =          3 seconds =       0.05 minutes

  //>>>>>>>>>>>>>>>>>>>>>>>>>>>>>>>>>>>//
  //    Loading displacement 2 of 7    //
  //<<<<<<<<<<<<<<<<<<<<<<<<<<<<<<<<<<<//

*** tstart() called on bp1-compute00143.data.bp.acrc.priv
*** at Mon Apr 19 15:45:21 2021

   => Loading Basis Set <=

    Name: AUG-CC-PV(Q+D)Z
    Role: ORBITAL
    Keyword: BASIS
    atoms 1 entry N          line   379 file /work/zw18965/.conda/envs/p4env/share/psi4/basis/aug-cc-pv_qpd_z.gbs 
    atoms 2 entry O          line   439 file /work/zw18965/.conda/envs/p4env/share/psi4/basis/aug-cc-pv_qpd_z.gbs 
    atoms 3 entry H          line    56 file /work/zw18965/.conda/envs/p4env/share/psi4/basis/aug-cc-pv_qpd_z.gbs 


         ---------------------------------------------------------
                                   SCF
               by Justin Turney, Rob Parrish, Andy Simmonett
                          and Daniel G. A. Smith
                              RKS Reference
                       24 Threads, 137329 MiB Core
         ---------------------------------------------------------

  ==> Geometry <==

    Molecular point group: cs
    Full point group: Cs

    Geometry (in Angstrom), charge = 0, multiplicity = 1:

       Center              X                  Y                   Z               Mass       
    ------------   -----------------  -----------------  -----------------  -----------------
         N           -0.505622722471     0.341685244577     0.000000000000    14.003074004430
         O            0.526279069806    -0.278361042289     0.000000000000    15.994914619570
         H           -1.327131539456    -0.329702726749     0.000000000000     1.007825032230

  Running in cs symmetry.

  Rotational constants: A =     19.03940  B =      1.41858  C =      1.32021 [cm^-1]
  Rotational constants: A = 570786.97315  B =  42527.91307  C =  39578.98189 [MHz]
  Nuclear repulsion =   30.390405229636507

  Charge       = 0
  Multiplicity = 1
  Electrons    = 16
  Nalpha       = 8
  Nbeta        = 8

  ==> Algorithm <==

  SCF Algorithm Type is DF.
  DIIS enabled.
  MOM disabled.
  Fractional occupation disabled.
  Guess Type is SAD.
  Energy threshold   = 1.00e-08
  Density threshold  = 1.00e-08
  Integral threshold = 0.00e+00

  ==> Primary Basis <==

  Basis Set: AUG-CC-PV(Q+D)Z
    Blend: AUG-CC-PV(Q+D)Z
    Number of shells: 54
    Number of basis function: 206
    Number of Cartesian functions: 265
    Spherical Harmonics?: true
    Max angular momentum: 4

  ==> DFT Potential <==

   => Composite Functional: DSD-BLYP-D3BJ <= 

    DSD-BLYP-D3BJ Dispersion-corrected SCS Double Hybrid XC Functional

    S. Kozuch, J.M.L. Martin, J. Comp. Chem., 34, 2327-2344, 2013


    Deriv               =              1
    GGA                 =           TRUE
    Meta                =          FALSE

    Exchange Hybrid     =           TRUE
    MP2 Hybrid          =           TRUE

   => Exchange Functionals <=

    0.2900     XC_GGA_X_B88

   => Exact (HF) Exchange <=

    0.7100               HF 

   => Correlation Functionals <=

    0.5400     XC_GGA_C_LYP

   => MP2 Correlation <=

    MP2 SCS Hybrid      =           TRUE
    MP2 OS Alpha        =       0.470000
    MP2 SS Alpha        =       0.400000

   => Molecular Quadrature <=

    Radial Scheme          =       TREUTLER
    Pruning Scheme         =           FLAT
    Nuclear Scheme         =       TREUTLER

    BS radius alpha        =              1
    Pruning alpha          =              1
    Radial Points          =             75
    Spherical Points       =            302
    Total Points           =          67950
    Total Blocks           =            581
    Max Points             =            256
    Max Functions          =            206

   => DSD-BLYP-D3BJ: Empirical Dispersion <=

    Grimme's -D3 (BJ-damping) Dispersion Correction
    Grimme S.; Ehrlich S.; Goerigk L. (2011), J. Comput. Chem., 32: 1456
    Parametrisation from:    S. Kozuch, J.M.L. Martin, J. Comp. Chem., 34, 2327-2344, 2013

        s6 =       0.570000
        s8 =       0.000000
        a1 =       0.000000
        a2 =       5.400000

   => Loading Basis Set <=

    Name: (AUG-CC-PV(Q+D)Z AUX)
    Role: JKFIT
    Keyword: DF_BASIS_SCF
    atoms 1 entry N          line   248 file /work/zw18965/.conda/envs/p4env/share/psi4/basis/aug-cc-pvqz-jkfit.gbs 
    atoms 2 entry O          line   318 file /work/zw18965/.conda/envs/p4env/share/psi4/basis/aug-cc-pvqz-jkfit.gbs 
    atoms 3 entry H          line    70 file /work/zw18965/.conda/envs/p4env/share/psi4/basis/aug-cc-pvqz-jkfit.gbs 

  ==> Pre-Iterations <==

   -------------------------------------------------------
    Irrep   Nso     Nmo     Nalpha   Nbeta   Ndocc  Nsocc
   -------------------------------------------------------
     A'       130     130       0       0       0       0
     A"        76      76       0       0       0       0
   -------------------------------------------------------
    Total     206     206       8       8       8       0
   -------------------------------------------------------

  ==> Integral Setup <==

  DFHelper Memory: AOs need 0.133 GiB; user supplied 100.220 GiB. Using in-core AOs.

  ==> MemDFJK: Density-Fitted J/K Matrices <==

    J tasked:                   Yes
    K tasked:                   Yes
    wK tasked:                   No
    OpenMP threads:              24
    Memory [MiB]:            102624
    Algorithm:                 Core
    Schwarz Cutoff:           1E-12
    Mask sparsity (%):       0.0000
    Fitting Condition:        1E-10

   => Auxiliary Basis Set <=

  Basis Set: (AUG-CC-PV(Q+D)Z AUX)
    Blend: AUG-CC-PVQZ-JKFIT
    Number of shells: 86
    Number of basis function: 360
    Number of Cartesian functions: 497
    Spherical Harmonics?: true
    Max angular momentum: 5

  Cached 100.0% of DFT collocation blocks in 0.363 [GiB].

  Minimum eigenvalue in the overlap matrix is 6.4620716537E-05.
  Using Symmetric Orthogonalization.

  SCF Guess: Superposition of Atomic Densities via on-the-fly atomic UHF.

  ==> Iterations <==

                           Total Energy        Delta E     RMS |[F,P]|

   @DF-RKS iter SAD:  -129.57928768496723   -1.29579e+02   0.00000e+00 
   @DF-RKS iter   1:  -130.14996146546480   -5.70674e-01   1.77022e-03 DIIS
   @DF-RKS iter   2:  -130.16300160812389   -1.30401e-02   1.46659e-03 DIIS
   @DF-RKS iter   3:  -130.17772218144262   -1.47206e-02   3.88538e-04 DIIS
   @DF-RKS iter   4:  -130.17888152049071   -1.15934e-03   8.94528e-05 DIIS
   @DF-RKS iter   5:  -130.17895873914330   -7.72187e-05   1.83144e-05 DIIS
   @DF-RKS iter   6:  -130.17896312108584   -4.38194e-06   4.17631e-06 DIIS
   @DF-RKS iter   7:  -130.17896357382585   -4.52740e-07   1.53421e-06 DIIS
   @DF-RKS iter   8:  -130.17896362963336   -5.58075e-08   3.57673e-07 DIIS
   @DF-RKS iter   9:  -130.17896363217807   -2.54471e-09   6.17630e-08 DIIS
   @DF-RKS iter  10:  -130.17896363225810   -8.00355e-11   9.69338e-09 DIIS
  Energy and wave function converged.


  ==> Post-Iterations <==

    Orbital Energies [Eh]
    ---------------------

    Doubly Occupied:                                                      

       1Ap   -20.141869     2Ap   -15.262990     3Ap    -1.410652  
       4Ap    -0.903295     5Ap    -0.677526     6Ap    -0.597781  
       1App   -0.557294     7Ap    -0.368549  

    Virtual:                                                              

       2App   -0.000427     8Ap     0.014193     9Ap     0.064636  
      10Ap     0.081274     3App    0.088425    11Ap     0.113925  
      12Ap     0.132594    13Ap     0.143832     4App    0.152567  
      14Ap     0.184275     5App    0.189929    15Ap     0.226619  
      16Ap     0.258872    17Ap     0.299069    18Ap     0.333249  
      19Ap     0.354663     6App    0.358384     7App    0.383181  
      20Ap     0.413429    21Ap     0.475485     8App    0.480642  
      22Ap     0.497532    23Ap     0.517480    24Ap     0.526318  
       9App    0.527541    10App    0.564240    25Ap     0.572028  
      26Ap     0.616322    27Ap     0.642959    11App    0.645729  
      28Ap     0.688840    29Ap     0.725490    12App    0.731086  
      30Ap     0.775764    31Ap     0.852517    13App    0.869907  
      32Ap     0.896073    14App    0.931988    33Ap     0.966309  
      34Ap     1.040837    15App    1.043399    35Ap     1.080147  
      16App    1.088873    36Ap     1.093036    37Ap     1.137182  
      17App    1.159292    18App    1.323557    38Ap     1.324924  
      39Ap     1.377945    40Ap     1.388973    19App    1.394526  
      41Ap     1.417402    42Ap     1.429879    43Ap     1.452895  
      20App    1.457513    44Ap     1.534858    21App    1.554837  
      45Ap     1.594307    46Ap     1.609926    22App    1.634792  
      47Ap     1.698187    23App    1.701964    48Ap     1.766288  
      49Ap     1.832480    24App    1.838919    25App    1.870616  
      50Ap     1.874191    26App    1.935252    51Ap     1.942551  
      52Ap     2.010880    27App    2.026801    53Ap     2.045023  
      54Ap     2.115470    55Ap     2.192969    28App    2.365885  
      56Ap     2.560366    29App    2.613393    30App    2.651623  
      57Ap     2.693413    58Ap     2.775661    59Ap     2.816120  
      31App    2.923397    32App    2.944296    60Ap     2.944667  
      61Ap     3.028475    33App    3.031210    62Ap     3.045986  
      63Ap     3.078492    34App    3.116969    64Ap     3.122633  
      35App    3.145977    65Ap     3.165917    66Ap     3.231115  
      36App    3.297114    67Ap     3.303063    68Ap     3.431298  
      37App    3.473904    69Ap     3.551741    38App    3.582316  
      70Ap     3.727228    39App    3.752705    71Ap     3.752864  
      40App    3.851681    72Ap     3.852748    41App    3.910676  
      73Ap     3.956469    74Ap     3.986711    75Ap     4.023632  
      42App    4.065706    76Ap     4.078306    43App    4.163509  
      77Ap     4.180479    44App    4.198184    78Ap     4.293335  
      79Ap     4.361515    80Ap     4.379599    45App    4.428742  
      81Ap     4.471699    46App    4.548739    82Ap     4.698243  
      83Ap     4.738517    84Ap     4.812704    47App    4.837499  
      85Ap     5.138973    48App    5.242402    49App    5.371809  
      86Ap     5.469357    87Ap     5.544136    88Ap     5.577027  
      50App    5.844932    89Ap     6.032833    90Ap     6.548828  
      91Ap     6.641606    51App    6.684486    92Ap     7.153913  
      52App    7.231567    53App    7.248553    93Ap     7.486206  
      94Ap     7.632857    95Ap     7.987669    54App    8.084653  
      55App    8.139222    96Ap     8.190664    97Ap     8.241400  
      56App    8.348640    98Ap     8.384412    57App    8.439556  
      58App    8.460959    99Ap     8.469687   100Ap     8.673100  
      59App    8.805567   101Ap     8.835933    60App    8.917947  
     102Ap     8.987216   103Ap     9.058468   104Ap     9.212448  
      61App    9.217708   105Ap     9.269729    62App    9.381699  
      63App    9.441185   106Ap     9.637125   107Ap     9.677270  
     108Ap     9.843044    64App   10.009609   109Ap    10.174123  
      65App   10.327632   110Ap    10.346326    66App   10.467640  
     111Ap    10.471468   112Ap    10.673980    67App   10.695487  
     113Ap    10.752140   114Ap    10.964528    68App   11.041405  
      69App   11.117150   115Ap    11.189486   116Ap    11.336689  
      70App   11.490056    71App   11.578188   117Ap    11.686748  
     118Ap    11.705987    72App   11.727155   119Ap    11.839737  
     120Ap    11.903213    73App   12.125855   121Ap    12.158923  
     122Ap    12.390457    74App   12.509083    75App   12.662996  
     123Ap    12.730374   124Ap    12.803264   125Ap    13.838692  
      76App   13.984915   126Ap    14.136250   127Ap    14.374153  
     128Ap    15.493090   129Ap    33.513850   130Ap    42.878860  

    Final Occupation by Irrep:
             Ap   App 
    DOCC [     7,    1 ]

  @DF-RKS Final Energy:  -130.17896363225810

   => Energetics <=

    Nuclear Repulsion Energy =             30.3904052296365066
    One-Electron Energy =                -237.9123332346979396
    Two-Electron Energy =                  82.0447658608103723
    DFT Exchange-Correlation Energy =      -4.7011334880070637
    Empirical Dispersion Energy =          -0.0006680000000000
    VV10 Nonlocal Energy =                  0.0000000000000000
    Total Energy =                       -130.1789636322581032

Computation Completed


Properties will be evaluated at   0.000000,   0.000000,   0.000000 [a0]

Properties computed using the SCF density matrix

  Nuclear Dipole Moment: [e a0]
     X:    -1.2401      Y:    -0.3114      Z:     0.0000

  Electronic Dipole Moment: [e a0]
     X:     0.5539      Y:     0.0309      Z:     0.0000

  Dipole Moment: [e a0]
     X:    -0.6863      Y:    -0.2805      Z:     0.0000     Total:     0.7414

  Dipole Moment: [D]
     X:    -1.7444      Y:    -0.7130      Z:     0.0000     Total:     1.8845


*** tstop() called on bp1-compute00143.data.bp.acrc.priv at Mon Apr 19 15:45:24 2021
Module time:
	user time   =      53.08 seconds =       0.88 minutes
	system time =       2.25 seconds =       0.04 minutes
	total time  =          3 seconds =       0.05 minutes
Total time:
	user time   =     119.84 seconds =       2.00 minutes
	system time =       6.03 seconds =       0.10 minutes
	total time  =          6 seconds =       0.10 minutes

*** tstart() called on bp1-compute00143.data.bp.acrc.priv
*** at Mon Apr 19 15:45:24 2021

   => Loading Basis Set <=

    Name: (AUG-CC-PV(Q+D)Z AUX)
    Role: RIFIT
    Keyword: DF_BASIS_MP2
    atoms 1 entry N          line   258 file /work/zw18965/.conda/envs/p4env/share/psi4/basis/aug-cc-pvqz-ri.gbs 
    atoms 2 entry O          line   332 file /work/zw18965/.conda/envs/p4env/share/psi4/basis/aug-cc-pvqz-ri.gbs 
    atoms 3 entry H          line    30 file /work/zw18965/.conda/envs/p4env/share/psi4/basis/aug-cc-pvqz-ri.gbs 

	 --------------------------------------------------------
	                          DF-MP2                         
	      2nd-Order Density-Fitted Moller-Plesset Theory     
	              RMP2 Wavefunction,  24 Threads             
	                                                         
	        Rob Parrish, Justin Turney, Andy Simmonett,      
	           Ed Hohenstein, and C. David Sherrill          
	 --------------------------------------------------------

   => Auxiliary Basis Set <=

  Basis Set: (AUG-CC-PV(Q+D)Z AUX)
    Blend: AUG-CC-PVQZ-RI
    Number of shells: 92
    Number of basis function: 416
    Number of Cartesian functions: 579
    Spherical Harmonics?: true
    Max angular momentum: 5

	 --------------------------------------------------------
	                 NBF =   206, NAUX =   416
	 --------------------------------------------------------
	   CLASS    FOCC     OCC    AOCC    AVIR     VIR    FVIR
	   PAIRS       0       8       8     198     198       0
	 --------------------------------------------------------

	-----------------------------------------------------------
	 ==================> DF-MP2 Energies <==================== 
	-----------------------------------------------------------
	 Reference Energy          =    -130.1789636322581032 [Eh]
	 Singles Energy            =      -0.0000000000000000 [Eh]
	 Same-Spin Energy          =      -0.1384853429714437 [Eh]
	 Opposite-Spin Energy      =      -0.4523578308027775 [Eh]
	 Correlation Energy        =      -0.5908431737742212 [Eh]
	 Total Energy              =    -130.7698068060323351 [Eh]
	-----------------------------------------------------------
	 ================> DF-SCS-MP2 Energies <================== 
	-----------------------------------------------------------
	 SCS Same-Spin Scale       =       0.4000000000000000 [-]
	 SCS Opposite-Spin Scale   =       0.4700000000000000 [-]
	 SCS Same-Spin Energy      =      -0.0553941371885775 [Eh]
	 SCS Opposite-Spin Energy  =      -0.2126081804773054 [Eh]
	 SCS Correlation Energy    =      -0.2680023176658829 [Eh]
	 SCS Total Energy          =    -130.4469659499239924 [Eh]
	-----------------------------------------------------------



    DSD-BLYP-D3BJ Energy Summary
    ----------------------------
    DFT Reference Energy                  =  -130.1789636322581032
    Scaled MP2 Correlation                =    -0.2680023176658829
    @Final double-hybrid DFT total energy =  -130.4469659499239924


*** tstop() called on bp1-compute00143.data.bp.acrc.priv at Mon Apr 19 15:45:24 2021
Module time:
	user time   =      11.98 seconds =       0.20 minutes
	system time =       0.51 seconds =       0.01 minutes
	total time  =          0 seconds =       0.00 minutes
Total time:
	user time   =     131.84 seconds =       2.20 minutes
	system time =       6.54 seconds =       0.11 minutes
	total time  =          6 seconds =       0.10 minutes

  //>>>>>>>>>>>>>>>>>>>>>>>>>>>>>>>>>>>//
  //    Loading displacement 3 of 7    //
  //<<<<<<<<<<<<<<<<<<<<<<<<<<<<<<<<<<<//

*** tstart() called on bp1-compute00143.data.bp.acrc.priv
*** at Mon Apr 19 15:45:24 2021

   => Loading Basis Set <=

    Name: AUG-CC-PV(Q+D)Z
    Role: ORBITAL
    Keyword: BASIS
    atoms 1 entry N          line   379 file /work/zw18965/.conda/envs/p4env/share/psi4/basis/aug-cc-pv_qpd_z.gbs 
    atoms 2 entry O          line   439 file /work/zw18965/.conda/envs/p4env/share/psi4/basis/aug-cc-pv_qpd_z.gbs 
    atoms 3 entry H          line    56 file /work/zw18965/.conda/envs/p4env/share/psi4/basis/aug-cc-pv_qpd_z.gbs 


         ---------------------------------------------------------
                                   SCF
               by Justin Turney, Rob Parrish, Andy Simmonett
                          and Daniel G. A. Smith
                              RKS Reference
                       24 Threads, 137329 MiB Core
         ---------------------------------------------------------

  ==> Geometry <==

    Molecular point group: cs
    Full point group: Cs

    Geometry (in Angstrom), charge = 0, multiplicity = 1:

       Center              X                  Y                   Z               Mass       
    ------------   -----------------  -----------------  -----------------  -----------------
         N           -0.504705891246     0.341272119195     0.000000000000    14.003074004430
         O            0.525521462716    -0.277930958957     0.000000000000    15.994914619570
         H           -1.327846539335    -0.330788352571     0.000000000000     1.007825032230

  Running in cs symmetry.

  Rotational constants: A =     18.98985  B =      1.42255  C =      1.32341 [cm^-1]
  Rotational constants: A = 569301.42415  B =  42646.94860  C =  39674.86418 [MHz]
  Nuclear repulsion =   30.423141968066709

  Charge       = 0
  Multiplicity = 1
  Electrons    = 16
  Nalpha       = 8
  Nbeta        = 8

  ==> Algorithm <==

  SCF Algorithm Type is DF.
  DIIS enabled.
  MOM disabled.
  Fractional occupation disabled.
  Guess Type is SAD.
  Energy threshold   = 1.00e-08
  Density threshold  = 1.00e-08
  Integral threshold = 0.00e+00

  ==> Primary Basis <==

  Basis Set: AUG-CC-PV(Q+D)Z
    Blend: AUG-CC-PV(Q+D)Z
    Number of shells: 54
    Number of basis function: 206
    Number of Cartesian functions: 265
    Spherical Harmonics?: true
    Max angular momentum: 4

  ==> DFT Potential <==

   => Composite Functional: DSD-BLYP-D3BJ <= 

    DSD-BLYP-D3BJ Dispersion-corrected SCS Double Hybrid XC Functional

    S. Kozuch, J.M.L. Martin, J. Comp. Chem., 34, 2327-2344, 2013


    Deriv               =              1
    GGA                 =           TRUE
    Meta                =          FALSE

    Exchange Hybrid     =           TRUE
    MP2 Hybrid          =           TRUE

   => Exchange Functionals <=

    0.2900     XC_GGA_X_B88

   => Exact (HF) Exchange <=

    0.7100               HF 

   => Correlation Functionals <=

    0.5400     XC_GGA_C_LYP

   => MP2 Correlation <=

    MP2 SCS Hybrid      =           TRUE
    MP2 OS Alpha        =       0.470000
    MP2 SS Alpha        =       0.400000

   => Molecular Quadrature <=

    Radial Scheme          =       TREUTLER
    Pruning Scheme         =           FLAT
    Nuclear Scheme         =       TREUTLER

    BS radius alpha        =              1
    Pruning alpha          =              1
    Radial Points          =             75
    Spherical Points       =            302
    Total Points           =          67950
    Total Blocks           =            582
    Max Points             =            256
    Max Functions          =            206

   => DSD-BLYP-D3BJ: Empirical Dispersion <=

    Grimme's -D3 (BJ-damping) Dispersion Correction
    Grimme S.; Ehrlich S.; Goerigk L. (2011), J. Comput. Chem., 32: 1456
    Parametrisation from:    S. Kozuch, J.M.L. Martin, J. Comp. Chem., 34, 2327-2344, 2013

        s6 =       0.570000
        s8 =       0.000000
        a1 =       0.000000
        a2 =       5.400000

   => Loading Basis Set <=

    Name: (AUG-CC-PV(Q+D)Z AUX)
    Role: JKFIT
    Keyword: DF_BASIS_SCF
    atoms 1 entry N          line   248 file /work/zw18965/.conda/envs/p4env/share/psi4/basis/aug-cc-pvqz-jkfit.gbs 
    atoms 2 entry O          line   318 file /work/zw18965/.conda/envs/p4env/share/psi4/basis/aug-cc-pvqz-jkfit.gbs 
    atoms 3 entry H          line    70 file /work/zw18965/.conda/envs/p4env/share/psi4/basis/aug-cc-pvqz-jkfit.gbs 

  ==> Pre-Iterations <==

   -------------------------------------------------------
    Irrep   Nso     Nmo     Nalpha   Nbeta   Ndocc  Nsocc
   -------------------------------------------------------
     A'       130     130       0       0       0       0
     A"        76      76       0       0       0       0
   -------------------------------------------------------
    Total     206     206       8       8       8       0
   -------------------------------------------------------

  ==> Integral Setup <==

  DFHelper Memory: AOs need 0.133 GiB; user supplied 100.220 GiB. Using in-core AOs.

  ==> MemDFJK: Density-Fitted J/K Matrices <==

    J tasked:                   Yes
    K tasked:                   Yes
    wK tasked:                   No
    OpenMP threads:              24
    Memory [MiB]:            102624
    Algorithm:                 Core
    Schwarz Cutoff:           1E-12
    Mask sparsity (%):       0.0000
    Fitting Condition:        1E-10

   => Auxiliary Basis Set <=

  Basis Set: (AUG-CC-PV(Q+D)Z AUX)
    Blend: AUG-CC-PVQZ-JKFIT
    Number of shells: 86
    Number of basis function: 360
    Number of Cartesian functions: 497
    Spherical Harmonics?: true
    Max angular momentum: 5

  Cached 100.0% of DFT collocation blocks in 0.363 [GiB].

  Minimum eigenvalue in the overlap matrix is 6.4586503131E-05.
  Using Symmetric Orthogonalization.

  SCF Guess: Superposition of Atomic Densities via on-the-fly atomic UHF.

  ==> Iterations <==

                           Total Energy        Delta E     RMS |[F,P]|

   @DF-RKS iter SAD:  -129.58320363443462   -1.29583e+02   0.00000e+00 
   @DF-RKS iter   1:  -130.15003161857166   -5.66828e-01   1.77211e-03 DIIS
   @DF-RKS iter   2:  -130.16314954799847   -1.31179e-02   1.46617e-03 DIIS
   @DF-RKS iter   3:  -130.17786615689332   -1.47166e-02   3.86765e-04 DIIS
   @DF-RKS iter   4:  -130.17901369401787   -1.14754e-03   8.95696e-05 DIIS
   @DF-RKS iter   5:  -130.17909108131005   -7.73873e-05   1.83206e-05 DIIS
   @DF-RKS iter   6:  -130.17909547038673   -4.38908e-06   4.17724e-06 DIIS
   @DF-RKS iter   7:  -130.17909592351666   -4.53130e-07   1.52585e-06 DIIS
   @DF-RKS iter   8:  -130.17909597865184   -5.51352e-08   3.56279e-07 DIIS
   @DF-RKS iter   9:  -130.17909598116373   -2.51188e-09   6.16472e-08 DIIS
   @DF-RKS iter  10:  -130.17909598124288   -7.91545e-11   9.67444e-09 DIIS
  Energy and wave function converged.


  ==> Post-Iterations <==

    Orbital Energies [Eh]
    ---------------------

    Doubly Occupied:                                                      

       1Ap   -20.141767     2Ap   -15.262935     3Ap    -1.412117  
       4Ap    -0.902505     5Ap    -0.677889     6Ap    -0.598298  
       1App   -0.558149     7Ap    -0.367955  

    Virtual:                                                              

       2App    0.000162     8Ap     0.014204     9Ap     0.064645  
      10Ap     0.081266     3App    0.088445    11Ap     0.113891  
      12Ap     0.132576    13Ap     0.143804     4App    0.152562  
      14Ap     0.184228     5App    0.189920    15Ap     0.226685  
      16Ap     0.258889    17Ap     0.298836    18Ap     0.333265  
      19Ap     0.354706     6App    0.358411     7App    0.383196  
      20Ap     0.413408    21Ap     0.476034     8App    0.480491  
      22Ap     0.497517    23Ap     0.517849    24Ap     0.526246  
       9App    0.527326    10App    0.564319    25Ap     0.571906  
      26Ap     0.616872    27Ap     0.642965    11App    0.645843  
      28Ap     0.688570    29Ap     0.725632    12App    0.731212  
      30Ap     0.776469    31Ap     0.852445    13App    0.870203  
      32Ap     0.896018    14App    0.931593    33Ap     0.966302  
      34Ap     1.040872    15App    1.043359    35Ap     1.080143  
      16App    1.088801    36Ap     1.093191    37Ap     1.137077  
      17App    1.159036    18App    1.323766    38Ap     1.325055  
      39Ap     1.378341    40Ap     1.389115    19App    1.394747  
      41Ap     1.417328    42Ap     1.429027    43Ap     1.453092  
      20App    1.457764    44Ap     1.534871    21App    1.554855  
      45Ap     1.594530    46Ap     1.609886    22App    1.635074  
      47Ap     1.698338    23App    1.702209    48Ap     1.767129  
      49Ap     1.833130    24App    1.839377    25App    1.871593  
      50Ap     1.874212    26App    1.934198    51Ap     1.942216  
      52Ap     2.010215    27App    2.026943    53Ap     2.045227  
      54Ap     2.114951    55Ap     2.192674    28App    2.364794  
      56Ap     2.559652    29App    2.612466    30App    2.651109  
      57Ap     2.693852    58Ap     2.776424    59Ap     2.815937  
      31App    2.923680    60Ap     2.944301    32App    2.944704  
      61Ap     3.028390    33App    3.031846    62Ap     3.046180  
      63Ap     3.078641    34App    3.118162    64Ap     3.123245  
      35App    3.146209    65Ap     3.165609    66Ap     3.232296  
      36App    3.298720    67Ap     3.303015    68Ap     3.431623  
      37App    3.474669    69Ap     3.550475    38App    3.581563  
      70Ap     3.726400    39App    3.751757    71Ap     3.752512  
      40App    3.851373    72Ap     3.852438    41App    3.909946  
      73Ap     3.957058    74Ap     3.987365    75Ap     4.023260  
      42App    4.065911    76Ap     4.078235    43App    4.163619  
      77Ap     4.180971    44App    4.197678    78Ap     4.294213  
      79Ap     4.361915    80Ap     4.379628    45App    4.429580  
      81Ap     4.470478    46App    4.549619    82Ap     4.698043  
      83Ap     4.740378    84Ap     4.811606    47App    4.835907  
      85Ap     5.142836    48App    5.244470    49App    5.375436  
      86Ap     5.471040    87Ap     5.548922    88Ap     5.580991  
      50App    5.848305    89Ap     6.036042    90Ap     6.547254  
      91Ap     6.641002    51App    6.683625    92Ap     7.150398  
      52App    7.230528    53App    7.246530    93Ap     7.484058  
      94Ap     7.629640    95Ap     7.984614    54App    8.087727  
      55App    8.139277    96Ap     8.191156    97Ap     8.241551  
      56App    8.348578    98Ap     8.386973    57App    8.440184  
      58App    8.462204    99Ap     8.472175   100Ap     8.671029  
      59App    8.804924   101Ap     8.835427    60App    8.915471  
     102Ap     8.987199   103Ap     9.059262   104Ap     9.214028  
      61App    9.215254   105Ap     9.266819    62App    9.380850  
      63App    9.439157   106Ap     9.639649   107Ap     9.678585  
     108Ap     9.839605    64App   10.004632   109Ap    10.171531  
      65App   10.332345   110Ap    10.344913    66App   10.467637  
     111Ap    10.471425   112Ap    10.674491    67App   10.696742  
     113Ap    10.751504   114Ap    10.963297    68App   11.043587  
      69App   11.120745   115Ap    11.192024   116Ap    11.335666  
      70App   11.481385    71App   11.577364   117Ap    11.681846  
     118Ap    11.706189    72App   11.727591   119Ap    11.841431  
     120Ap    11.901684    73App   12.128332   121Ap    12.160716  
     122Ap    12.394860    74App   12.511413    75App   12.664447  
     123Ap    12.732349   124Ap    12.804597   125Ap    13.847324  
      76App   13.997144   126Ap    14.129643   127Ap    14.382148  
     128Ap    15.501960   129Ap    33.514693   130Ap    42.886638  

    Final Occupation by Irrep:
             Ap   App 
    DOCC [     7,    1 ]

  @DF-RKS Final Energy:  -130.17909598124288

   => Energetics <=

    Nuclear Repulsion Energy =             30.4231419680667088
    One-Electron Energy =                -237.9745563101006951
    Two-Electron Energy =                  82.0744122866500447
    DFT Exchange-Correlation Energy =      -4.7014259058589527
    Empirical Dispersion Energy =          -0.0006680200000000
    VV10 Nonlocal Energy =                  0.0000000000000000
    Total Energy =                       -130.1790959812428810

Computation Completed


Properties will be evaluated at   0.000000,   0.000000,   0.000000 [a0]

Properties computed using the SCF density matrix

  Nuclear Dipole Moment: [e a0]
     X:    -1.2408      Y:    -0.3124      Z:     0.0000

  Electronic Dipole Moment: [e a0]
     X:     0.5576      Y:     0.0319      Z:     0.0000

  Dipole Moment: [e a0]
     X:    -0.6832      Y:    -0.2805      Z:     0.0000     Total:     0.7386

  Dipole Moment: [D]
     X:    -1.7365      Y:    -0.7130      Z:     0.0000     Total:     1.8772


*** tstop() called on bp1-compute00143.data.bp.acrc.priv at Mon Apr 19 15:45:27 2021
Module time:
	user time   =      53.31 seconds =       0.89 minutes
	system time =       2.11 seconds =       0.04 minutes
	total time  =          3 seconds =       0.05 minutes
Total time:
	user time   =     185.29 seconds =       3.09 minutes
	system time =       8.66 seconds =       0.14 minutes
	total time  =          9 seconds =       0.15 minutes

*** tstart() called on bp1-compute00143.data.bp.acrc.priv
*** at Mon Apr 19 15:45:27 2021

   => Loading Basis Set <=

    Name: (AUG-CC-PV(Q+D)Z AUX)
    Role: RIFIT
    Keyword: DF_BASIS_MP2
    atoms 1 entry N          line   258 file /work/zw18965/.conda/envs/p4env/share/psi4/basis/aug-cc-pvqz-ri.gbs 
    atoms 2 entry O          line   332 file /work/zw18965/.conda/envs/p4env/share/psi4/basis/aug-cc-pvqz-ri.gbs 
    atoms 3 entry H          line    30 file /work/zw18965/.conda/envs/p4env/share/psi4/basis/aug-cc-pvqz-ri.gbs 

	 --------------------------------------------------------
	                          DF-MP2                         
	      2nd-Order Density-Fitted Moller-Plesset Theory     
	              RMP2 Wavefunction,  24 Threads             
	                                                         
	        Rob Parrish, Justin Turney, Andy Simmonett,      
	           Ed Hohenstein, and C. David Sherrill          
	 --------------------------------------------------------

   => Auxiliary Basis Set <=

  Basis Set: (AUG-CC-PV(Q+D)Z AUX)
    Blend: AUG-CC-PVQZ-RI
    Number of shells: 92
    Number of basis function: 416
    Number of Cartesian functions: 579
    Spherical Harmonics?: true
    Max angular momentum: 5

	 --------------------------------------------------------
	                 NBF =   206, NAUX =   416
	 --------------------------------------------------------
	   CLASS    FOCC     OCC    AOCC    AVIR     VIR    FVIR
	   PAIRS       0       8       8     198     198       0
	 --------------------------------------------------------

	-----------------------------------------------------------
	 ==================> DF-MP2 Energies <==================== 
	-----------------------------------------------------------
	 Reference Energy          =    -130.1790959812428810 [Eh]
	 Singles Energy            =      -0.0000000000000000 [Eh]
	 Same-Spin Energy          =      -0.1383955589708973 [Eh]
	 Opposite-Spin Energy      =      -0.4521085451220746 [Eh]
	 Correlation Energy        =      -0.5905041040929719 [Eh]
	 Total Energy              =    -130.7696000853358669 [Eh]
	-----------------------------------------------------------
	 ================> DF-SCS-MP2 Energies <================== 
	-----------------------------------------------------------
	 SCS Same-Spin Scale       =       0.4000000000000000 [-]
	 SCS Opposite-Spin Scale   =       0.4700000000000000 [-]
	 SCS Same-Spin Energy      =      -0.0553582235883589 [Eh]
	 SCS Opposite-Spin Energy  =      -0.2124910162073750 [Eh]
	 SCS Correlation Energy    =      -0.2678492397957339 [Eh]
	 SCS Total Energy          =    -130.4469452210386180 [Eh]
	-----------------------------------------------------------



    DSD-BLYP-D3BJ Energy Summary
    ----------------------------
    DFT Reference Energy                  =  -130.1790959812428810
    Scaled MP2 Correlation                =    -0.2678492397957339
    @Final double-hybrid DFT total energy =  -130.4469452210386180


*** tstop() called on bp1-compute00143.data.bp.acrc.priv at Mon Apr 19 15:45:27 2021
Module time:
	user time   =      12.18 seconds =       0.20 minutes
	system time =       0.54 seconds =       0.01 minutes
	total time  =          0 seconds =       0.00 minutes
Total time:
	user time   =     197.48 seconds =       3.29 minutes
	system time =       9.20 seconds =       0.15 minutes
	total time  =          9 seconds =       0.15 minutes

  //>>>>>>>>>>>>>>>>>>>>>>>>>>>>>>>>>>>//
  //    Loading displacement 4 of 7    //
  //<<<<<<<<<<<<<<<<<<<<<<<<<<<<<<<<<<<//

*** tstart() called on bp1-compute00143.data.bp.acrc.priv
*** at Mon Apr 19 15:45:27 2021

   => Loading Basis Set <=

    Name: AUG-CC-PV(Q+D)Z
    Role: ORBITAL
    Keyword: BASIS
    atoms 1 entry N          line   379 file /work/zw18965/.conda/envs/p4env/share/psi4/basis/aug-cc-pv_qpd_z.gbs 
    atoms 2 entry O          line   439 file /work/zw18965/.conda/envs/p4env/share/psi4/basis/aug-cc-pv_qpd_z.gbs 
    atoms 3 entry H          line    56 file /work/zw18965/.conda/envs/p4env/share/psi4/basis/aug-cc-pv_qpd_z.gbs 


         ---------------------------------------------------------
                                   SCF
               by Justin Turney, Rob Parrish, Andy Simmonett
                          and Daniel G. A. Smith
                              RKS Reference
                       24 Threads, 137329 MiB Core
         ---------------------------------------------------------

  ==> Geometry <==

    Molecular point group: cs
    Full point group: Cs

    Geometry (in Angstrom), charge = 0, multiplicity = 1:

       Center              X                  Y                   Z               Mass       
    ------------   -----------------  -----------------  -----------------  -----------------
         N           -0.505164306858     0.341176350041     0.000000000000    14.003074004430
         O            0.525903961476    -0.278028460532     0.000000000000    15.994914619570
         H           -1.327547685147    -0.327910281646     0.000000000000     1.007825032230

  Running in cs symmetry.

  Rotational constants: A =     19.10928  B =      1.42067  C =      1.32236 [cm^-1]
  Rotational constants: A = 572881.93558  B =  42590.50445  C =  39643.25458 [MHz]
  Nuclear repulsion =   30.416453654107016

  Charge       = 0
  Multiplicity = 1
  Electrons    = 16
  Nalpha       = 8
  Nbeta        = 8

  ==> Algorithm <==

  SCF Algorithm Type is DF.
  DIIS enabled.
  MOM disabled.
  Fractional occupation disabled.
  Guess Type is SAD.
  Energy threshold   = 1.00e-08
  Density threshold  = 1.00e-08
  Integral threshold = 0.00e+00

  ==> Primary Basis <==

  Basis Set: AUG-CC-PV(Q+D)Z
    Blend: AUG-CC-PV(Q+D)Z
    Number of shells: 54
    Number of basis function: 206
    Number of Cartesian functions: 265
    Spherical Harmonics?: true
    Max angular momentum: 4

  ==> DFT Potential <==

   => Composite Functional: DSD-BLYP-D3BJ <= 

    DSD-BLYP-D3BJ Dispersion-corrected SCS Double Hybrid XC Functional

    S. Kozuch, J.M.L. Martin, J. Comp. Chem., 34, 2327-2344, 2013


    Deriv               =              1
    GGA                 =           TRUE
    Meta                =          FALSE

    Exchange Hybrid     =           TRUE
    MP2 Hybrid          =           TRUE

   => Exchange Functionals <=

    0.2900     XC_GGA_X_B88

   => Exact (HF) Exchange <=

    0.7100               HF 

   => Correlation Functionals <=

    0.5400     XC_GGA_C_LYP

   => MP2 Correlation <=

    MP2 SCS Hybrid      =           TRUE
    MP2 OS Alpha        =       0.470000
    MP2 SS Alpha        =       0.400000

   => Molecular Quadrature <=

    Radial Scheme          =       TREUTLER
    Pruning Scheme         =           FLAT
    Nuclear Scheme         =       TREUTLER

    BS radius alpha        =              1
    Pruning alpha          =              1
    Radial Points          =             75
    Spherical Points       =            302
    Total Points           =          67950
    Total Blocks           =            579
    Max Points             =            256
    Max Functions          =            206

   => DSD-BLYP-D3BJ: Empirical Dispersion <=

    Grimme's -D3 (BJ-damping) Dispersion Correction
    Grimme S.; Ehrlich S.; Goerigk L. (2011), J. Comput. Chem., 32: 1456
    Parametrisation from:    S. Kozuch, J.M.L. Martin, J. Comp. Chem., 34, 2327-2344, 2013

        s6 =       0.570000
        s8 =       0.000000
        a1 =       0.000000
        a2 =       5.400000

   => Loading Basis Set <=

    Name: (AUG-CC-PV(Q+D)Z AUX)
    Role: JKFIT
    Keyword: DF_BASIS_SCF
    atoms 1 entry N          line   248 file /work/zw18965/.conda/envs/p4env/share/psi4/basis/aug-cc-pvqz-jkfit.gbs 
    atoms 2 entry O          line   318 file /work/zw18965/.conda/envs/p4env/share/psi4/basis/aug-cc-pvqz-jkfit.gbs 
    atoms 3 entry H          line    70 file /work/zw18965/.conda/envs/p4env/share/psi4/basis/aug-cc-pvqz-jkfit.gbs 

  ==> Pre-Iterations <==

   -------------------------------------------------------
    Irrep   Nso     Nmo     Nalpha   Nbeta   Ndocc  Nsocc
   -------------------------------------------------------
     A'       130     130       0       0       0       0
     A"        76      76       0       0       0       0
   -------------------------------------------------------
    Total     206     206       8       8       8       0
   -------------------------------------------------------

  ==> Integral Setup <==

  DFHelper Memory: AOs need 0.133 GiB; user supplied 100.220 GiB. Using in-core AOs.

  ==> MemDFJK: Density-Fitted J/K Matrices <==

    J tasked:                   Yes
    K tasked:                   Yes
    wK tasked:                   No
    OpenMP threads:              24
    Memory [MiB]:            102624
    Algorithm:                 Core
    Schwarz Cutoff:           1E-12
    Mask sparsity (%):       0.0000
    Fitting Condition:        1E-10

   => Auxiliary Basis Set <=

  Basis Set: (AUG-CC-PV(Q+D)Z AUX)
    Blend: AUG-CC-PVQZ-JKFIT
    Number of shells: 86
    Number of basis function: 360
    Number of Cartesian functions: 497
    Spherical Harmonics?: true
    Max angular momentum: 5

  Cached 100.0% of DFT collocation blocks in 0.363 [GiB].

  Minimum eigenvalue in the overlap matrix is 6.4422896934E-05.
  Using Symmetric Orthogonalization.

  SCF Guess: Superposition of Atomic Densities via on-the-fly atomic UHF.

  ==> Iterations <==

                           Total Energy        Delta E     RMS |[F,P]|

   @DF-RKS iter SAD:  -129.58227557211268   -1.29582e+02   0.00000e+00 
   @DF-RKS iter   1:  -130.15011477151356   -5.67839e-01   1.76946e-03 DIIS
   @DF-RKS iter   2:  -130.16326824294720   -1.31535e-02   1.46045e-03 DIIS
   @DF-RKS iter   3:  -130.17785472336388   -1.45865e-02   3.87902e-04 DIIS
   @DF-RKS iter   4:  -130.17900879679999   -1.15407e-03   8.94925e-05 DIIS
   @DF-RKS iter   5:  -130.17908600630841   -7.72095e-05   1.82814e-05 DIIS
   @DF-RKS iter   6:  -130.17909037019240   -4.36388e-06   4.14856e-06 DIIS
   @DF-RKS iter   7:  -130.17909081785123   -4.47659e-07   1.52154e-06 DIIS
   @DF-RKS iter   8:  -130.17909087271005   -5.48588e-08   3.55302e-07 DIIS
   @DF-RKS iter   9:  -130.17909087521559   -2.50554e-09   6.15929e-08 DIIS
   @DF-RKS iter  10:  -130.17909087529435   -7.87566e-11   9.68084e-09 DIIS
  Energy and wave function converged.


  ==> Post-Iterations <==

    Orbital Energies [Eh]
    ---------------------

    Doubly Occupied:                                                      

       1Ap   -20.141795     2Ap   -15.262696     3Ap    -1.411500  
       4Ap    -0.903317     5Ap    -0.677916     6Ap    -0.598097  
       1App   -0.557774     7Ap    -0.368162  

    Virtual:                                                              

       2App   -0.000080     8Ap     0.014206     9Ap     0.064638  
      10Ap     0.081278     3App    0.088405    11Ap     0.113954  
      12Ap     0.132618    13Ap     0.143818     4App    0.152566  
      14Ap     0.184365     5App    0.190010    15Ap     0.226635  
      16Ap     0.258858    17Ap     0.299262    18Ap     0.333207  
      19Ap     0.354825     6App    0.358258     7App    0.383269  
      20Ap     0.413514    21Ap     0.475895     8App    0.480529  
      22Ap     0.497396    23Ap     0.517614    24Ap     0.526251  
       9App    0.527629    10App    0.564252    25Ap     0.572383  
      26Ap     0.616764    27Ap     0.643019    11App    0.645755  
      28Ap     0.689073    29Ap     0.725584    12App    0.730960  
      30Ap     0.776111    31Ap     0.852481    13App    0.870135  
      32Ap     0.896057    14App    0.932209    33Ap     0.966630  
      34Ap     1.040656    15App    1.043231    35Ap     1.080241  
      16App    1.088980    36Ap     1.093094    37Ap     1.137262  
      17App    1.159586    18App    1.323591    38Ap     1.325117  
      39Ap     1.378547    40Ap     1.388944    19App    1.394615  
      41Ap     1.417716    42Ap     1.430317    43Ap     1.452894  
      20App    1.457558    44Ap     1.534866    21App    1.554715  
      45Ap     1.594277    46Ap     1.609796    22App    1.634811  
      47Ap     1.698147    23App    1.702712    48Ap     1.766696  
      49Ap     1.833045    24App    1.838739    25App    1.870409  
      50Ap     1.874683    26App    1.935841    51Ap     1.942235  
      52Ap     2.010711    27App    2.026656    53Ap     2.045623  
      54Ap     2.115374    55Ap     2.193422    28App    2.365690  
      56Ap     2.559730    29App    2.614399    30App    2.652164  
      57Ap     2.694392    58Ap     2.776481    59Ap     2.817103  
      31App    2.924018    32App    2.944691    60Ap     2.944978  
      61Ap     3.028609    33App    3.031531    62Ap     3.045755  
      63Ap     3.078344    34App    3.116666    64Ap     3.122678  
      35App    3.146532    65Ap     3.166643    66Ap     3.231519  
      36App    3.298084    67Ap     3.303553    68Ap     3.432063  
      37App    3.474341    69Ap     3.552327    38App    3.582653  
      70Ap     3.727917    39App    3.753394    71Ap     3.753665  
      40App    3.852334    72Ap     3.854661    41App    3.911642  
      73Ap     3.956663    74Ap     3.987510    75Ap     4.023334  
      42App    4.065831    76Ap     4.078342    43App    4.163435  
      77Ap     4.181060    44App    4.198420    78Ap     4.294521  
      79Ap     4.362114    80Ap     4.380134    45App    4.429279  
      81Ap     4.471951    46App    4.551265    82Ap     4.699129  
      83Ap     4.740167    84Ap     4.814271    47App    4.839261  
      85Ap     5.141251    48App    5.243533    49App    5.374666  
      86Ap     5.471331    87Ap     5.548700    88Ap     5.579991  
      50App    5.847282    89Ap     6.036864    90Ap     6.548066  
      91Ap     6.642508    51App    6.685504    92Ap     7.155895  
      52App    7.233018    53App    7.251051    93Ap     7.487389  
      94Ap     7.637237    95Ap     7.989345    54App    8.082985  
      55App    8.139186    96Ap     8.190401    97Ap     8.241471  
      56App    8.349230    98Ap     8.385658    57App    8.440460  
      58App    8.461874    99Ap     8.470372   100Ap     8.673840  
      59App    8.807618   101Ap     8.835771    60App    8.917243  
     102Ap     8.987315   103Ap     9.057637   104Ap     9.210934  
      61App    9.218305   105Ap     9.270847    62App    9.381898  
      63App    9.442604   106Ap     9.639674   107Ap     9.679611  
     108Ap     9.840841    64App   10.011795   109Ap    10.176465  
      65App   10.331007   110Ap    10.349984    66App   10.467523  
     111Ap    10.471384   112Ap    10.675392    67App   10.696233  
     113Ap    10.752406   114Ap    10.964099    68App   11.042922  
      69App   11.120107   115Ap    11.191531   116Ap    11.337677  
      70App   11.495192    71App   11.581103   117Ap    11.691864  
     118Ap    11.706732    72App   11.727664   119Ap    11.843860  
     120Ap    11.907713    73App   12.128017   121Ap    12.163011  
     122Ap    12.395483    74App   12.510708    75App   12.664121  
     123Ap    12.732333   124Ap    12.804703   125Ap    13.845034  
      76App   13.992596   126Ap    14.144064   127Ap    14.382060  
     128Ap    15.498794   129Ap    33.526432   130Ap    42.883770  

    Final Occupation by Irrep:
             Ap   App 
    DOCC [     7,    1 ]

  @DF-RKS Final Energy:  -130.17909087529435

   => Energetics <=

    Nuclear Repulsion Energy =             30.4164536541070163
    One-Electron Energy =                -237.9618198112561629
    Two-Electron Energy =                  82.0684617031843828
    DFT Exchange-Correlation Energy =      -4.7015184213295829
    Empirical Dispersion Energy =          -0.0006680000000000
    VV10 Nonlocal Energy =                  0.0000000000000000
    Total Energy =                       -130.1790908752943494

Computation Completed


Properties will be evaluated at   0.000000,   0.000000,   0.000000 [a0]

Properties computed using the SCF density matrix

  Nuclear Dipole Moment: [e a0]
     X:    -1.2405      Y:    -0.3097      Z:     0.0000

  Electronic Dipole Moment: [e a0]
     X:     0.5547      Y:     0.0292      Z:     0.0000

  Dipole Moment: [e a0]
     X:    -0.6859      Y:    -0.2805      Z:     0.0000     Total:     0.7410

  Dipole Moment: [D]
     X:    -1.7433      Y:    -0.7130      Z:     0.0000     Total:     1.8835


*** tstop() called on bp1-compute00143.data.bp.acrc.priv at Mon Apr 19 15:45:30 2021
Module time:
	user time   =      52.42 seconds =       0.87 minutes
	system time =       1.92 seconds =       0.03 minutes
	total time  =          3 seconds =       0.05 minutes
Total time:
	user time   =     250.07 seconds =       4.17 minutes
	system time =      11.13 seconds =       0.19 minutes
	total time  =         12 seconds =       0.20 minutes

*** tstart() called on bp1-compute00143.data.bp.acrc.priv
*** at Mon Apr 19 15:45:30 2021

   => Loading Basis Set <=

    Name: (AUG-CC-PV(Q+D)Z AUX)
    Role: RIFIT
    Keyword: DF_BASIS_MP2
    atoms 1 entry N          line   258 file /work/zw18965/.conda/envs/p4env/share/psi4/basis/aug-cc-pvqz-ri.gbs 
    atoms 2 entry O          line   332 file /work/zw18965/.conda/envs/p4env/share/psi4/basis/aug-cc-pvqz-ri.gbs 
    atoms 3 entry H          line    30 file /work/zw18965/.conda/envs/p4env/share/psi4/basis/aug-cc-pvqz-ri.gbs 

	 --------------------------------------------------------
	                          DF-MP2                         
	      2nd-Order Density-Fitted Moller-Plesset Theory     
	              RMP2 Wavefunction,  24 Threads             
	                                                         
	        Rob Parrish, Justin Turney, Andy Simmonett,      
	           Ed Hohenstein, and C. David Sherrill          
	 --------------------------------------------------------

   => Auxiliary Basis Set <=

  Basis Set: (AUG-CC-PV(Q+D)Z AUX)
    Blend: AUG-CC-PVQZ-RI
    Number of shells: 92
    Number of basis function: 416
    Number of Cartesian functions: 579
    Spherical Harmonics?: true
    Max angular momentum: 5

	 --------------------------------------------------------
	                 NBF =   206, NAUX =   416
	 --------------------------------------------------------
	   CLASS    FOCC     OCC    AOCC    AVIR     VIR    FVIR
	   PAIRS       0       8       8     198     198       0
	 --------------------------------------------------------

	-----------------------------------------------------------
	 ==================> DF-MP2 Energies <==================== 
	-----------------------------------------------------------
	 Reference Energy          =    -130.1790908752943494 [Eh]
	 Singles Energy            =      -0.0000000000000000 [Eh]
	 Same-Spin Energy          =      -0.1384100369105118 [Eh]
	 Opposite-Spin Energy      =      -0.4521403119960136 [Eh]
	 Correlation Energy        =      -0.5905503489065254 [Eh]
	 Total Energy              =    -130.7696412242008819 [Eh]
	-----------------------------------------------------------
	 ================> DF-SCS-MP2 Energies <================== 
	-----------------------------------------------------------
	 SCS Same-Spin Scale       =       0.4000000000000000 [-]
	 SCS Opposite-Spin Scale   =       0.4700000000000000 [-]
	 SCS Same-Spin Energy      =      -0.0553640147642047 [Eh]
	 SCS Opposite-Spin Energy  =      -0.2125059466381264 [Eh]
	 SCS Correlation Energy    =      -0.2678699614023311 [Eh]
	 SCS Total Energy          =    -130.4469608366966895 [Eh]
	-----------------------------------------------------------



    DSD-BLYP-D3BJ Energy Summary
    ----------------------------
    DFT Reference Energy                  =  -130.1790908752943494
    Scaled MP2 Correlation                =    -0.2678699614023311
    @Final double-hybrid DFT total energy =  -130.4469608366966895


*** tstop() called on bp1-compute00143.data.bp.acrc.priv at Mon Apr 19 15:45:31 2021
Module time:
	user time   =      11.80 seconds =       0.20 minutes
	system time =       0.51 seconds =       0.01 minutes
	total time  =          1 seconds =       0.02 minutes
Total time:
	user time   =     261.88 seconds =       4.36 minutes
	system time =      11.64 seconds =       0.19 minutes
	total time  =         13 seconds =       0.22 minutes

  //>>>>>>>>>>>>>>>>>>>>>>>>>>>>>>>>>>>//
  //    Loading displacement 5 of 7    //
  //<<<<<<<<<<<<<<<<<<<<<<<<<<<<<<<<<<<//

*** tstart() called on bp1-compute00143.data.bp.acrc.priv
*** at Mon Apr 19 15:45:31 2021

   => Loading Basis Set <=

    Name: AUG-CC-PV(Q+D)Z
    Role: ORBITAL
    Keyword: BASIS
    atoms 1 entry N          line   379 file /work/zw18965/.conda/envs/p4env/share/psi4/basis/aug-cc-pv_qpd_z.gbs 
    atoms 2 entry O          line   439 file /work/zw18965/.conda/envs/p4env/share/psi4/basis/aug-cc-pv_qpd_z.gbs 
    atoms 3 entry H          line    56 file /work/zw18965/.conda/envs/p4env/share/psi4/basis/aug-cc-pv_qpd_z.gbs 


         ---------------------------------------------------------
                                   SCF
               by Justin Turney, Rob Parrish, Andy Simmonett
                          and Daniel G. A. Smith
                              RKS Reference
                       24 Threads, 137329 MiB Core
         ---------------------------------------------------------

  ==> Geometry <==

    Molecular point group: cs
    Full point group: Cs

    Geometry (in Angstrom), charge = 0, multiplicity = 1:

       Center              X                  Y                   Z               Mass       
    ------------   -----------------  -----------------  -----------------  -----------------
         N           -0.505164306858     0.341781013731     0.000000000000    14.003074004430
         O            0.525896571045    -0.278263540714     0.000000000000    15.994914619570
         H           -1.327430393644    -0.332580797673     0.000000000000     1.007825032230

  Running in cs symmetry.

  Rotational constants: A =     18.92063  B =      1.42046  C =      1.32126 [cm^-1]
  Rotational constants: A = 567226.25995  B =  42584.22661  C =  39610.48904 [MHz]
  Nuclear repulsion =   30.397059013412026

  Charge       = 0
  Multiplicity = 1
  Electrons    = 16
  Nalpha       = 8
  Nbeta        = 8

  ==> Algorithm <==

  SCF Algorithm Type is DF.
  DIIS enabled.
  MOM disabled.
  Fractional occupation disabled.
  Guess Type is SAD.
  Energy threshold   = 1.00e-08
  Density threshold  = 1.00e-08
  Integral threshold = 0.00e+00

  ==> Primary Basis <==

  Basis Set: AUG-CC-PV(Q+D)Z
    Blend: AUG-CC-PV(Q+D)Z
    Number of shells: 54
    Number of basis function: 206
    Number of Cartesian functions: 265
    Spherical Harmonics?: true
    Max angular momentum: 4

  ==> DFT Potential <==

   => Composite Functional: DSD-BLYP-D3BJ <= 

    DSD-BLYP-D3BJ Dispersion-corrected SCS Double Hybrid XC Functional

    S. Kozuch, J.M.L. Martin, J. Comp. Chem., 34, 2327-2344, 2013


    Deriv               =              1
    GGA                 =           TRUE
    Meta                =          FALSE

    Exchange Hybrid     =           TRUE
    MP2 Hybrid          =           TRUE

   => Exchange Functionals <=

    0.2900     XC_GGA_X_B88

   => Exact (HF) Exchange <=

    0.7100               HF 

   => Correlation Functionals <=

    0.5400     XC_GGA_C_LYP

   => MP2 Correlation <=

    MP2 SCS Hybrid      =           TRUE
    MP2 OS Alpha        =       0.470000
    MP2 SS Alpha        =       0.400000

   => Molecular Quadrature <=

    Radial Scheme          =       TREUTLER
    Pruning Scheme         =           FLAT
    Nuclear Scheme         =       TREUTLER

    BS radius alpha        =              1
    Pruning alpha          =              1
    Radial Points          =             75
    Spherical Points       =            302
    Total Points           =          67950
    Total Blocks           =            580
    Max Points             =            256
    Max Functions          =            206

   => DSD-BLYP-D3BJ: Empirical Dispersion <=

    Grimme's -D3 (BJ-damping) Dispersion Correction
    Grimme S.; Ehrlich S.; Goerigk L. (2011), J. Comput. Chem., 32: 1456
    Parametrisation from:    S. Kozuch, J.M.L. Martin, J. Comp. Chem., 34, 2327-2344, 2013

        s6 =       0.570000
        s8 =       0.000000
        a1 =       0.000000
        a2 =       5.400000

   => Loading Basis Set <=

    Name: (AUG-CC-PV(Q+D)Z AUX)
    Role: JKFIT
    Keyword: DF_BASIS_SCF
    atoms 1 entry N          line   248 file /work/zw18965/.conda/envs/p4env/share/psi4/basis/aug-cc-pvqz-jkfit.gbs 
    atoms 2 entry O          line   318 file /work/zw18965/.conda/envs/p4env/share/psi4/basis/aug-cc-pvqz-jkfit.gbs 
    atoms 3 entry H          line    70 file /work/zw18965/.conda/envs/p4env/share/psi4/basis/aug-cc-pvqz-jkfit.gbs 

  ==> Pre-Iterations <==

   -------------------------------------------------------
    Irrep   Nso     Nmo     Nalpha   Nbeta   Ndocc  Nsocc
   -------------------------------------------------------
     A'       130     130       0       0       0       0
     A"        76      76       0       0       0       0
   -------------------------------------------------------
    Total     206     206       8       8       8       0
   -------------------------------------------------------

  ==> Integral Setup <==

  DFHelper Memory: AOs need 0.133 GiB; user supplied 100.220 GiB. Using in-core AOs.

  ==> MemDFJK: Density-Fitted J/K Matrices <==

    J tasked:                   Yes
    K tasked:                   Yes
    wK tasked:                   No
    OpenMP threads:              24
    Memory [MiB]:            102624
    Algorithm:                 Core
    Schwarz Cutoff:           1E-12
    Mask sparsity (%):       0.0000
    Fitting Condition:        1E-10

   => Auxiliary Basis Set <=

  Basis Set: (AUG-CC-PV(Q+D)Z AUX)
    Blend: AUG-CC-PVQZ-JKFIT
    Number of shells: 86
    Number of basis function: 360
    Number of Cartesian functions: 497
    Spherical Harmonics?: true
    Max angular momentum: 5

  Cached 100.0% of DFT collocation blocks in 0.363 [GiB].

  Minimum eigenvalue in the overlap matrix is 6.4784657257E-05.
  Using Symmetric Orthogonalization.

  SCF Guess: Superposition of Atomic Densities via on-the-fly atomic UHF.

  ==> Iterations <==

                           Total Energy        Delta E     RMS |[F,P]|

   @DF-RKS iter SAD:  -129.58020886587019   -1.29580e+02   0.00000e+00 
   @DF-RKS iter   1:  -130.14987592329743   -5.69667e-01   1.77288e-03 DIIS
   @DF-RKS iter   2:  -130.16288029190653   -1.30044e-02   1.47232e-03 DIIS
   @DF-RKS iter   3:  -130.17773173222668   -1.48514e-02   3.87395e-04 DIIS
   @DF-RKS iter   4:  -130.17888448215166   -1.15275e-03   8.95321e-05 DIIS
   @DF-RKS iter   5:  -130.17896188294245   -7.74008e-05   1.83543e-05 DIIS
   @DF-RKS iter   6:  -130.17896629056358   -4.40762e-06   4.20517e-06 DIIS
   @DF-RKS iter   7:  -130.17896674886285   -4.58299e-07   1.53855e-06 DIIS
   @DF-RKS iter   8:  -130.17896680495093   -5.60881e-08   3.58666e-07 DIIS
   @DF-RKS iter   9:  -130.17896680750292   -2.55199e-09   6.18246e-08 DIIS
   @DF-RKS iter  10:  -130.17896680758281   -7.98934e-11   9.68826e-09 DIIS
  Energy and wave function converged.


  ==> Post-Iterations <==

    Orbital Energies [Eh]
    ---------------------

    Doubly Occupied:                                                      

       1Ap   -20.141841     2Ap   -15.263229     3Ap    -1.411267  
       4Ap    -0.902485     5Ap    -0.677498     6Ap    -0.597982  
       1App   -0.557667     7Ap    -0.368341  

    Virtual:                                                              

       2App   -0.000185     8Ap     0.014190     9Ap     0.064643  
      10Ap     0.081262     3App    0.088465    11Ap     0.113861  
      12Ap     0.132552    13Ap     0.143818     4App    0.152563  
      14Ap     0.184138     5App    0.189840    15Ap     0.226669  
      16Ap     0.258902    17Ap     0.298641    18Ap     0.333307  
      19Ap     0.354547     6App    0.358537     7App    0.383108  
      20Ap     0.413322    21Ap     0.475631     8App    0.480605  
      22Ap     0.497655    23Ap     0.517706    24Ap     0.526316  
       9App    0.527238    10App    0.564306    25Ap     0.571550  
      26Ap     0.616429    27Ap     0.642906    11App    0.645818  
      28Ap     0.688338    29Ap     0.725540    12App    0.731336  
      30Ap     0.776118    31Ap     0.852480    13App    0.869976  
      32Ap     0.896033    14App    0.931371    33Ap     0.965978  
      34Ap     1.041051    15App    1.043526    35Ap     1.080051  
      16App    1.088695    36Ap     1.093133    37Ap     1.136997  
      17App    1.158744    18App    1.323732    38Ap     1.324862  
      39Ap     1.377720    40Ap     1.389157    19App    1.394658  
      41Ap     1.416987    42Ap     1.428624    43Ap     1.453093  
      20App    1.457721    44Ap     1.534865    21App    1.554976  
      45Ap     1.594565    46Ap     1.610015    22App    1.635055  
      47Ap     1.698374    23App    1.701465    48Ap     1.766720  
      49Ap     1.832567    24App    1.839557    25App    1.871798  
      50Ap     1.873714    26App    1.933605    51Ap     1.942533  
      52Ap     2.010374    27App    2.027086    53Ap     2.044637  
      54Ap     2.115045    55Ap     2.192216    28App    2.364995  
      56Ap     2.560292    29App    2.611446    30App    2.650580  
      57Ap     2.692876    58Ap     2.775598    59Ap     2.814964  
      31App    2.923068    60Ap     2.943988    32App    2.944308  
      61Ap     3.028229    33App    3.031521    62Ap     3.046408  
      63Ap     3.078804    34App    3.118462    64Ap     3.123195  
      35App    3.145649    65Ap     3.164871    66Ap     3.231906  
      36App    3.297752    67Ap     3.302521    68Ap     3.430853  
      37App    3.474234    69Ap     3.549885    38App    3.581221  
      70Ap     3.725688    39App    3.751068    71Ap     3.751731  
      72Ap     3.850524    40App    3.850708    41App    3.908989  
      73Ap     3.956861    74Ap     3.986565    75Ap     4.023567  
      42App    4.065789    76Ap     4.078202    43App    4.163694  
[...]
    wK tasked:                   No
    OpenMP threads:              24
    Memory [MiB]:            102624
    Algorithm:                 Core
    Schwarz Cutoff:           1E-12
    Mask sparsity (%):       0.0000
    Fitting Condition:        1E-10

   => Auxiliary Basis Set <=

  Basis Set: (AUG-CC-PV(Q+D)Z AUX)
    Blend: AUG-CC-PVQZ-JKFIT
    Number of shells: 86
    Number of basis function: 360
    Number of Cartesian functions: 497
    Spherical Harmonics?: true
    Max angular momentum: 5

  Cached 100.0% of DFT collocation blocks in 0.363 [GiB].

  Minimum eigenvalue in the overlap matrix is 6.3189630445E-05.
  Using Symmetric Orthogonalization.

  SCF Guess: Superposition of Atomic Densities via on-the-fly atomic UHF.

  ==> Iterations <==

                           Total Energy        Delta E     RMS |[F,P]|

   @DF-RKS iter SAD:  -129.58694999803049   -1.29587e+02   0.00000e+00 
   @DF-RKS iter   1:  -130.15091822138646   -5.63968e-01   1.75756e-03 DIIS
   @DF-RKS iter   2:  -130.16435736124211   -1.34391e-02   1.42872e-03 DIIS
   @DF-RKS iter   3:  -130.17820004204953   -1.38427e-02   3.89132e-04 DIIS
   @DF-RKS iter   4:  -130.17936019462138   -1.16015e-03   8.96709e-05 DIIS
   @DF-RKS iter   5:  -130.17943667410469   -7.64795e-05   1.78582e-05 DIIS
   @DF-RKS iter   6:  -130.17944080226130   -4.12816e-06   4.10155e-06 DIIS
   @DF-RKS iter   7:  -130.17944123060386   -4.28343e-07   1.51652e-06 DIIS
   @DF-RKS iter   8:  -130.17944128477626   -5.41724e-08   3.39543e-07 DIIS
   @DF-RKS iter   9:  -130.17944128708095   -2.30469e-09   5.78298e-08 DIIS
   @DF-RKS iter  10:  -130.17944128715121   -7.02585e-11   9.19313e-09 DIIS
   @DF-RKS iter  11:  -130.17944128715311   -1.90425e-12   1.47477e-09 DIIS
   @DF-RKS iter  12:  -130.17944128715311    0.00000e+00   2.31155e-10 DIIS
   @DF-RKS iter  13:  -130.17944128715311    0.00000e+00   4.43675e-11 DIIS
  Energy and wave function converged.


  ==> Post-Iterations <==

    Orbital Energies [Eh]
    ---------------------

    Doubly Occupied:                                                      

       1Ap   -20.141137     2Ap   -15.261293     3Ap    -1.411056  
       4Ap    -0.906276     5Ap    -0.678756     6Ap    -0.597471  
       1App   -0.557047     7Ap    -0.370046  

    Virtual:                                                              

       2App   -0.000358     8Ap     0.014429     9Ap     0.064755  
      10Ap     0.081260     3App    0.088254    11Ap     0.114619  
      12Ap     0.132435    13Ap     0.143959     4App    0.152624  
      14Ap     0.184615     5App    0.189952    15Ap     0.227297  
      16Ap     0.259851    17Ap     0.301404    18Ap     0.333746  
      19Ap     0.353715     6App    0.359350     7App    0.382590  
      20Ap     0.412780    21Ap     0.475608     8App    0.480891  
      22Ap     0.500374    23Ap     0.517954     9App    0.527524  
      24Ap     0.529152    10App    0.564058    25Ap     0.570745  
      26Ap     0.615982    27Ap     0.642823    11App    0.645188  
      28Ap     0.692214    29Ap     0.725147    12App    0.732422  
      30Ap     0.776708    31Ap     0.852696    13App    0.869363  
      32Ap     0.896584    14App    0.935241    33Ap     0.965549  
      34Ap     1.043370    15App    1.044222    35Ap     1.080293  
      16App    1.088609    36Ap     1.094415    37Ap     1.137706  
      17App    1.157729    38Ap     1.322253    18App    1.325182  
      39Ap     1.374809    40Ap     1.391600    19App    1.394497  
      41Ap     1.419551    42Ap     1.440605    43Ap     1.451143  
      20App    1.454640    44Ap     1.535725    21App    1.558387  
      45Ap     1.595227    46Ap     1.612047    22App    1.637930  
      23App    1.698062    47Ap     1.702663    48Ap     1.762246  
      49Ap     1.830561    24App    1.836509    25App    1.867201  
      50Ap     1.876721    51Ap     1.941257    26App    1.943159  
      52Ap     2.018976    27App    2.034425    53Ap     2.034645  
      54Ap     2.118102    55Ap     2.203043    28App    2.369148  
      56Ap     2.568628    29App    2.616654    30App    2.665800  
      57Ap     2.696714    58Ap     2.780215    59Ap     2.825145  
      31App    2.921950    32App    2.944115    60Ap     2.948189  
      61Ap     3.024387    33App    3.032165    62Ap     3.046697  
      63Ap     3.085163    34App    3.105377    64Ap     3.123667  
      35App    3.146318    65Ap     3.184366    66Ap     3.225867  
      36App    3.295707    67Ap     3.299547    68Ap     3.432972  
      37App    3.478541    69Ap     3.569485    38App    3.589695  
      70Ap     3.738788    71Ap     3.764100    39App    3.766955  
      72Ap     3.857196    40App    3.859696    41App    3.919023  
      73Ap     3.960662    74Ap     3.990084    75Ap     4.027412  
      42App    4.069215    76Ap     4.082589    43App    4.165924  
      77Ap     4.177356    44App    4.198168    78Ap     4.296394  
      79Ap     4.357912    80Ap     4.390246    45App    4.442822  
      81Ap     4.471930    46App    4.541687    82Ap     4.715211  
      83Ap     4.729529    84Ap     4.834298    47App    4.859081  
      85Ap     5.153016    48App    5.245465    49App    5.369510  
      86Ap     5.467204    87Ap     5.539122    88Ap     5.583322  
      50App    5.843229    89Ap     6.022252    90Ap     6.543015  
      91Ap     6.649932    51App    6.691528    92Ap     7.186800  
      52App    7.241512    53App    7.268349    93Ap     7.514095  
      94Ap     7.661847    95Ap     8.018257    54App    8.054000  
      55App    8.138178    96Ap     8.185755    97Ap     8.247823  
      56App    8.346744    98Ap     8.383471    57App    8.442989  
      99Ap     8.463115    58App    8.466148   100Ap     8.700655  
      59App    8.821709   101Ap     8.844423    60App    8.944530  
     102Ap     8.992674   103Ap     9.054873   104Ap     9.227988  
      61App    9.240893   105Ap     9.302025    62App    9.387124  
      63App    9.467043   106Ap     9.636384   107Ap     9.694267  
     108Ap     9.853758    64App   10.056811   109Ap    10.223731  
      65App   10.331269   110Ap    10.385967    66App   10.470374  
     111Ap    10.475317   112Ap    10.681004    67App   10.701107  
     113Ap    10.762063   114Ap    10.990127    68App   11.044664  
      69App   11.116136   115Ap    11.194975   116Ap    11.374883  
      70App   11.539197    71App   11.642227   117Ap    11.704855  
      72App   11.731137   118Ap    11.759211   119Ap    11.833588  
     120Ap    11.938498    73App   12.125853   121Ap    12.178233  
     122Ap    12.392136    74App   12.508997    75App   12.663412  
     123Ap    12.749556   124Ap    12.813482   125Ap    13.831613  
      76App   13.982637   126Ap    14.206756   127Ap    14.417493  
     128Ap    15.493268   129Ap    33.614577   130Ap    42.878296  

    Final Occupation by Irrep:
             Ap   App 
    DOCC [     7,    1 ]

  @DF-RKS Final Energy:  -130.17944128715311

   => Energetics <=

    Nuclear Repulsion Energy =             30.4678748706358036
    One-Electron Energy =                -238.0605189075450028
    Two-Electron Energy =                  82.1170838574762314
    DFT Exchange-Correlation Energy =      -4.7032124377201336
    Empirical Dispersion Energy =          -0.0006686700000000
    VV10 Nonlocal Energy =                  0.0000000000000000
    Total Energy =                       -130.1794412871531108

Computation Completed


Properties will be evaluated at   0.000000,   0.000000,   0.000000 [a0]

Properties computed using the SCF density matrix

  Nuclear Dipole Moment: [e a0]
     X:    -1.2180      Y:    -0.3097      Z:     0.0000

  Electronic Dipole Moment: [e a0]
     X:     0.5316      Y:     0.0269      Z:     0.0000

  Dipole Moment: [e a0]
     X:    -0.6864      Y:    -0.2828      Z:     0.0000     Total:     0.7423

  Dipole Moment: [D]
     X:    -1.7445      Y:    -0.7188      Z:     0.0000     Total:     1.8868


*** tstop() called on bp1-compute00143.data.bp.acrc.priv at Mon Apr 19 15:47:40 2021
Module time:
	user time   =      57.42 seconds =       0.96 minutes
	system time =       1.95 seconds =       0.03 minutes
	total time  =          2 seconds =       0.03 minutes
Total time:
	user time   =    2977.39 seconds =      49.62 minutes
	system time =     110.97 seconds =       1.85 minutes
	total time  =        142 seconds =       2.37 minutes

*** tstart() called on bp1-compute00143.data.bp.acrc.priv
*** at Mon Apr 19 15:47:40 2021

   => Loading Basis Set <=

    Name: (AUG-CC-PV(Q+D)Z AUX)
    Role: RIFIT
    Keyword: DF_BASIS_MP2
    atoms 1 entry N          line   258 file /work/zw18965/.conda/envs/p4env/share/psi4/basis/aug-cc-pvqz-ri.gbs 
    atoms 2 entry O          line   332 file /work/zw18965/.conda/envs/p4env/share/psi4/basis/aug-cc-pvqz-ri.gbs 
    atoms 3 entry H          line    30 file /work/zw18965/.conda/envs/p4env/share/psi4/basis/aug-cc-pvqz-ri.gbs 

	 --------------------------------------------------------
	                          DF-MP2                         
	      2nd-Order Density-Fitted Moller-Plesset Theory     
	              RMP2 Wavefunction,  24 Threads             
	                                                         
	        Rob Parrish, Justin Turney, Andy Simmonett,      
	           Ed Hohenstein, and C. David Sherrill          
	 --------------------------------------------------------

   => Auxiliary Basis Set <=

  Basis Set: (AUG-CC-PV(Q+D)Z AUX)
    Blend: AUG-CC-PVQZ-RI
    Number of shells: 92
    Number of basis function: 416
    Number of Cartesian functions: 579
    Spherical Harmonics?: true
    Max angular momentum: 5

	 --------------------------------------------------------
	                 NBF =   206, NAUX =   416
	 --------------------------------------------------------
	   CLASS    FOCC     OCC    AOCC    AVIR     VIR    FVIR
	   PAIRS       0       8       8     198     198       0
	 --------------------------------------------------------

	-----------------------------------------------------------
	 ==================> DF-MP2 Energies <==================== 
	-----------------------------------------------------------
	 Reference Energy          =    -130.1794412871531108 [Eh]
	 Singles Energy            =      -0.0000000000000000 [Eh]
	 Same-Spin Energy          =      -0.1382982176058204 [Eh]
	 Opposite-Spin Energy      =      -0.4518220349878916 [Eh]
	 Correlation Energy        =      -0.5901202525937119 [Eh]
	 Total Energy              =    -130.7695615397468316 [Eh]
	-----------------------------------------------------------
	 ================> DF-SCS-MP2 Energies <================== 
	-----------------------------------------------------------
	 SCS Same-Spin Scale       =       0.4000000000000000 [-]
	 SCS Opposite-Spin Scale   =       0.4700000000000000 [-]
	 SCS Same-Spin Energy      =      -0.0553192870423281 [Eh]
	 SCS Opposite-Spin Energy  =      -0.2123563564443090 [Eh]
	 SCS Correlation Energy    =      -0.2676756434866372 [Eh]
	 SCS Total Energy          =    -130.4471169306397371 [Eh]
	-----------------------------------------------------------



    DSD-BLYP-D3BJ Energy Summary
    ----------------------------
    DFT Reference Energy                  =  -130.1794412871531108
    Scaled MP2 Correlation                =    -0.2676756434866372
    @Final double-hybrid DFT total energy =  -130.4471169306397371


*** tstop() called on bp1-compute00143.data.bp.acrc.priv at Mon Apr 19 15:47:41 2021
Module time:
	user time   =      11.89 seconds =       0.20 minutes
	system time =       0.52 seconds =       0.01 minutes
	total time  =          1 seconds =       0.02 minutes
Total time:
	user time   =    2989.29 seconds =      49.82 minutes
	system time =     111.49 seconds =       1.86 minutes
	total time  =        143 seconds =       2.38 minutes

         ----------------------------------------------------------
                                   FINDIF
                     R. A. King and Jonathon Misiewicz
         ---------------------------------------------------------

  Computing second-derivative from energies using projected, 
  symmetry-adapted, cartesian coordinates.

  13 energies passed in, including the reference geometry.
    Using 3-point formula.
    Energy without displacement: -130.4471251694
    Check energies below for precision!
    0: -1        :      -130.4471237727
    0: 1         :      -130.4471237772
    1: -1        :      -130.4471226921
    1: 1         :      -130.4471226980
    2: -1        :      -130.4471223679
    2: 1         :      -130.4471223816
    0: 1, 1: 1   :      -130.4471202536
    0: -1, 1: -1 :      -130.4471202189
    0: 1, 2: 1   :      -130.4471199553
    0: -1, 2: -1 :      -130.4471199066
    1: 1, 2: 1   :      -130.4471170454
    1: -1, 2: -1 :      -130.4471169306

-------------------------------------------------------------


  ==> Harmonic Vibrational Analysis <==

  non-mass-weighted Hessian:       Symmetric? True   Hermitian? True   Lin Dep Dim?  6 (0)
  projection of translations (True) and rotations (True) removed 6 degrees of freedom (6)
  total projector:                 Symmetric? True   Hermitian? True   Lin Dep Dim?  6 (6)
  mass-weighted Hessian:           Symmetric? True   Hermitian? True   Lin Dep Dim?  6 (0)
  pre-proj  low-frequency mode:    0.0000i [cm^-1]
  pre-proj  low-frequency mode:    0.0000  [cm^-1]
  pre-proj  low-frequency mode:    0.0000  [cm^-1]
  pre-proj  low-frequency mode:    0.0000  [cm^-1]
  pre-proj  low-frequency mode:    0.0000  [cm^-1]
  pre-proj  low-frequency mode:    0.0000  [cm^-1]
  pre-proj  all modes:['0.0000i' '0.0000' '0.0000' '0.0000' '0.0000' '0.0000' '1551.1625'
 '1614.8745' '3012.0076']
  projected mass-weighted Hessian: Symmetric? True   Hermitian? True   Lin Dep Dim?  6 (6)
  post-proj low-frequency mode:    0.0000i [cm^-1] (TR)
  post-proj low-frequency mode:    0.0000i [cm^-1] (TR)
  post-proj low-frequency mode:    0.0000  [cm^-1] (TR)
  post-proj low-frequency mode:    0.0000  [cm^-1] (TR)
  post-proj low-frequency mode:    0.0000  [cm^-1] (TR)
  post-proj low-frequency mode:    0.0000  [cm^-1] (TR)
  post-proj  all modes:['0.0000i' '0.0000i' '0.0000' '0.0000' '0.0000' '0.0000' '1551.1625'
 '1614.8745' '3012.0076']

  Vibration                       7                   8                   9           
  Freq [cm^-1]                1551.1625           1614.8745           3012.0076       
  Irrep                           Ap                  Ap                  Ap          
  Reduced mass [u]              1.8229              2.6260              1.0757        
  Force const [mDyne/A]         2.5842              4.0348              5.7497        
  Turning point v=0 [a0]        0.2063              0.1685              0.1928        
  RMS dev v=0 [a0 u^1/2]        0.1970              0.1931              0.1414        
  Char temp [K]               2231.7775           2323.4449           4333.6084       
  ----------------------------------------------------------------------------------
      1   N               -0.13  0.17 -0.00   -0.22  0.05 -0.00   -0.04 -0.06 -0.00   
      2   O                0.07 -0.10  0.00    0.24 -0.08 -0.00   -0.01  0.01 -0.00   
      3   H                0.70 -0.67  0.00   -0.67  0.66  0.00    0.74  0.67  0.00   

  ==> Thermochemistry Components <==

  Entropy, S
    Electronic S            0.000 [cal/(mol K)]        0.000 [J/(mol K)]       0.00000000 [mEh/K] (multiplicity = 1)
    Translational S        36.227 [cal/(mol K)]      151.576 [J/(mol K)]       0.05773217 [mEh/K] (mol. weight = 31.0058 [u], P = 101325.00 [Pa])
    Rotational S           16.458 [cal/(mol K)]       68.859 [J/(mol K)]       0.02622707 [mEh/K] (symmetry no. = 1)
    Vibrational S           0.017 [cal/(mol K)]        0.070 [J/(mol K)]       0.00002661 [mEh/K]
  Total S                  52.702 [cal/(mol K)]      220.505 [J/(mol K)]       0.08398585 [mEh/K]
  Correction S              0.000 [cal/(mol K)]        0.000 [J/(mol K)]       0.00000000 [mEh/K]

  Constant volume heat capacity, Cv
    Electronic Cv           0.000 [cal/(mol K)]        0.000 [J/(mol K)]       0.00000000 [mEh/K]
    Translational Cv        2.981 [cal/(mol K)]       12.472 [J/(mol K)]       0.00475022 [mEh/K]
    Rotational Cv           2.981 [cal/(mol K)]       12.472 [J/(mol K)]       0.00475022 [mEh/K]
    Vibrational Cv          0.113 [cal/(mol K)]        0.471 [J/(mol K)]       0.00017945 [mEh/K]
  Total Cv                  6.074 [cal/(mol K)]       25.415 [J/(mol K)]       0.00967988 [mEh/K]
  Correction Cv             0.000 [cal/(mol K)]        0.000 [J/(mol K)]       0.00000000 [mEh/K]

  Constant pressure heat capacity, Cp
    Electronic Cp           0.000 [cal/(mol K)]        0.000 [J/(mol K)]       0.00000000 [mEh/K]
    Translational Cp        4.968 [cal/(mol K)]       20.786 [J/(mol K)]       0.00791703 [mEh/K]
    Rotational Cp           2.981 [cal/(mol K)]       12.472 [J/(mol K)]       0.00475022 [mEh/K]
    Vibrational Cp          0.113 [cal/(mol K)]        0.471 [J/(mol K)]       0.00017945 [mEh/K]
  Total Cp                  8.061 [cal/(mol K)]       33.729 [J/(mol K)]       0.01284669 [mEh/K]
  Correction Cp             0.000 [cal/(mol K)]        0.000 [J/(mol K)]       0.00000000 [mEh/K]

  ==> Thermochemistry Energy Analysis <==

  Raw electronic energy, E0
  Total E0, Electronic energy at well bottom at 0 [K]                 -130.44712517 [Eh]

  Zero-point energy, ZPE_vib = Sum_i nu_i / 2
    Electronic ZPE          0.000 [kcal/mol]        0.000 [kJ/mol]       0.00000000 [Eh]
    Translational ZPE       0.000 [kcal/mol]        0.000 [kJ/mol]       0.00000000 [Eh]
    Rotational ZPE          0.000 [kcal/mol]        0.000 [kJ/mol]       0.00000000 [Eh]
    Vibrational ZPE         8.832 [kcal/mol]       36.953 [kJ/mol]       0.01407462 [Eh]        3089.022 [cm^-1]
  Correction ZPE            8.832 [kcal/mol]       36.953 [kJ/mol]       0.01407462 [Eh]        3089.022 [cm^-1]
  Total ZPE, Electronic energy at 0 [K]                               -130.43305055 [Eh]

  Thermal Energy, E (includes ZPE)
    Electronic E            0.000 [kcal/mol]        0.000 [kJ/mol]       0.00000000 [Eh]
    Translational E         0.889 [kcal/mol]        3.718 [kJ/mol]       0.00141628 [Eh]
    Rotational E            0.889 [kcal/mol]        3.718 [kJ/mol]       0.00141628 [Eh]
    Vibrational E           8.836 [kcal/mol]       36.971 [kJ/mol]       0.01408163 [Eh]
  Correction E             10.614 [kcal/mol]       44.408 [kJ/mol]       0.01691419 [Eh]
  Total E, Electronic energy at  298.15 [K]                           -130.43021098 [Eh]

  Enthalpy, H_trans = E_trans + k_B * T
    Electronic H            0.000 [kcal/mol]        0.000 [kJ/mol]       0.00000000 [Eh]
    Translational H         1.481 [kcal/mol]        6.197 [kJ/mol]       0.00236046 [Eh]
    Rotational H            0.889 [kcal/mol]        3.718 [kJ/mol]       0.00141628 [Eh]
    Vibrational H           8.836 [kcal/mol]       36.971 [kJ/mol]       0.01408163 [Eh]
  Correction H             11.206 [kcal/mol]       46.887 [kJ/mol]       0.01785837 [Eh]
  Total H, Enthalpy at  298.15 [K]                                    -130.42926680 [Eh]

  Gibbs free energy, G = H - T * S
    Electronic G            0.000 [kcal/mol]        0.000 [kJ/mol]       0.00000000 [Eh]
    Translational G        -9.320 [kcal/mol]      -38.995 [kJ/mol]      -0.01485238 [Eh]
    Rotational G           -4.018 [kcal/mol]      -16.812 [kJ/mol]      -0.00640333 [Eh]
    Vibrational G           8.831 [kcal/mol]       36.950 [kJ/mol]       0.01407370 [Eh]
  Correction G             -4.507 [kcal/mol]      -18.856 [kJ/mol]      -0.00718201 [Eh]
  Total G, Free enthalpy at  298.15 [K]                               -130.45430718 [Eh]

    Psi4 stopped on: Monday, 19 April 2021 03:47PM
    Psi4 wall time for execution: 0:02:23.82

*** Psi4 exiting successfully. Buy a developer a beer!
