
    -----------------------------------------------------------------------
          Psi4: An Open-Source Ab Initio Electronic Structure Package
                               Psi4 1.3.2 release

                         Git: Rev {HEAD} ecbda83 


    R. M. Parrish, L. A. Burns, D. G. A. Smith, A. C. Simmonett,
    A. E. DePrince III, E. G. Hohenstein, U. Bozkaya, A. Yu. Sokolov,
    R. Di Remigio, R. M. Richard, J. F. Gonthier, A. M. James,
    H. R. McAlexander, A. Kumar, M. Saitow, X. Wang, B. P. Pritchard,
    P. Verma, H. F. Schaefer III, K. Patkowski, R. A. King, E. F. Valeev,
    F. A. Evangelista, J. M. Turney, T. D. Crawford, and C. D. Sherrill,
    J. Chem. Theory Comput. 13(7) pp 3185--3197 (2017).
    (doi: 10.1021/acs.jctc.7b00174)


                         Additional Contributions by
    P. Kraus, H. Kruse, M. H. Lechner, M. C. Schieber, R. A. Shaw,
    A. Alenaizan, R. Galvelis, Z. L. Glick, S. Lehtola, and J. P. Misiewicz

    -----------------------------------------------------------------------


    Psi4 started on: Monday, 19 April 2021 03:45PM

    Process ID: 202506
    Host:       bp1-compute00148.data.bp.acrc.priv
    PSIDATADIR: /work/zw18965/.conda/envs/p4env/share/psi4
    Memory:     500.0 MiB
    Threads:    24
    
  ==> Input File <==

--------------------------------------------------------------------------
memory 144 GB

molecule {
0 1
O    -0.338100400727   0.445851178655   0.000000000000
Cl    1.256954004629  -0.121399274218   0.000000000000
H    -0.918853603902  -0.324451899146   0.000000000000}

set basis aug-cc-pV(Q+d)Z
 
optimize("DSD-BLYP-D3BJ")
frequencies("DSD-BLYP-D3BJ")--------------------------------------------------------------------------

  Memory set to 134.110 GiB by Python driver.
gradient() will perform gradient computation by finite difference of analytic energies.

         ----------------------------------------------------------
                                   FINDIF
                     R. A. King and Jonathon Misiewicz
         ---------------------------------------------------------

  Using finite-differences of energies to determine gradients.
    Generating geometries for use with 3-point formula.
    Displacement size will be 5.00e-03.
    Number of atoms is 3.
    Number of symmetric SALCs is 3.
    Translations projected? 1. Rotations projected? 1.
    Number of geometries (including reference) is 7.

  //>>>>>>>>>>>>>>>>>>>>>>>>>>>>>>>>>>>//
  //    Loading displacement 1 of 7    //
  //<<<<<<<<<<<<<<<<<<<<<<<<<<<<<<<<<<<//

*** tstart() called on bp1-compute00148.data.bp.acrc.priv
*** at Mon Apr 19 15:45:49 2021

   => Loading Basis Set <=

    Name: AUG-CC-PV(Q+D)Z
    Role: ORBITAL
    Keyword: BASIS
    atoms 1 entry O          line   439 file /work/zw18965/.conda/envs/p4env/share/psi4/basis/aug-cc-pv_qpd_z.gbs 
    atoms 2 entry CL         line  1246 file /work/zw18965/.conda/envs/p4env/share/psi4/basis/aug-cc-pv_qpd_z.gbs 
    atoms 3 entry H          line    56 file /work/zw18965/.conda/envs/p4env/share/psi4/basis/aug-cc-pv_qpd_z.gbs 


         ---------------------------------------------------------
                                   SCF
               by Justin Turney, Rob Parrish, Andy Simmonett
                          and Daniel G. A. Smith
                              RKS Reference
                       24 Threads, 137329 MiB Core
         ---------------------------------------------------------

  ==> Geometry <==

    Molecular point group: cs
    Full point group: Cs

    Geometry (in Angstrom), charge = 0, multiplicity = 1:

       Center              X                  Y                   Z               Mass       
    ------------   -----------------  -----------------  -----------------  -----------------
         O           -1.061963323165     0.396609519141     0.000000000000    15.994914619570
         CL           0.533091082191    -0.170640933732     0.000000000000    34.968852682000
         H           -1.642716526340    -0.373693558660     0.000000000000     1.007825032230

  Running in cs symmetry.

  Rotational constants: A =     21.50243  B =      0.50191  C =      0.49046 [cm^-1]
  Rotational constants: A = 644626.65347  B =  15046.95734  C =  14703.74075 [MHz]
  Nuclear repulsion =   51.016284057965429

  Charge       = 0
  Multiplicity = 1
  Electrons    = 26
  Nalpha       = 13
  Nbeta        = 13

  ==> Algorithm <==

  SCF Algorithm Type is DF.
  DIIS enabled.
  MOM disabled.
  Fractional occupation disabled.
  Guess Type is SAD.
  Energy threshold   = 1.00e-08
  Density threshold  = 1.00e-08
  Integral threshold = 0.00e+00

  ==> Primary Basis <==

  Basis Set: AUG-CC-PV(Q+D)Z
    Blend: AUG-CC-PV(Q+D)Z
    Number of shells: 57
    Number of basis function: 215
    Number of Cartesian functions: 275
    Spherical Harmonics?: true
    Max angular momentum: 4

  ==> DFT Potential <==

   => Composite Functional: DSD-BLYP-D3BJ <= 

    DSD-BLYP-D3BJ Dispersion-corrected SCS Double Hybrid XC Functional

    S. Kozuch, J.M.L. Martin, J. Comp. Chem., 34, 2327-2344, 2013


    Deriv               =              1
    GGA                 =           TRUE
    Meta                =          FALSE

    Exchange Hybrid     =           TRUE
    MP2 Hybrid          =           TRUE

   => Exchange Functionals <=

    0.2900     XC_GGA_X_B88

   => Exact (HF) Exchange <=

    0.7100               HF 

   => Correlation Functionals <=

    0.5400     XC_GGA_C_LYP

   => MP2 Correlation <=

    MP2 SCS Hybrid      =           TRUE
    MP2 OS Alpha        =       0.470000
    MP2 SS Alpha        =       0.400000

   => Molecular Quadrature <=

    Radial Scheme          =       TREUTLER
    Pruning Scheme         =           FLAT
    Nuclear Scheme         =       TREUTLER

    BS radius alpha        =              1
    Pruning alpha          =              1
    Radial Points          =             75
    Spherical Points       =            302
    Total Points           =          67950
    Total Blocks           =            576
    Max Points             =            256
    Max Functions          =            215

   => DSD-BLYP-D3BJ: Empirical Dispersion <=

    Grimme's -D3 (BJ-damping) Dispersion Correction
    Grimme S.; Ehrlich S.; Goerigk L. (2011), J. Comput. Chem., 32: 1456
    Parametrisation from:    S. Kozuch, J.M.L. Martin, J. Comp. Chem., 34, 2327-2344, 2013

        s6 =       0.570000
        s8 =       0.000000
        a1 =       0.000000
        a2 =       5.400000

   => Loading Basis Set <=

    Name: (AUG-CC-PV(Q+D)Z AUX)
    Role: JKFIT
    Keyword: DF_BASIS_SCF
    atoms 1 entry O          line   318 file /work/zw18965/.conda/envs/p4env/share/psi4/basis/aug-cc-pvqz-jkfit.gbs 
    atoms 2 entry CL         line   904 file /work/zw18965/.conda/envs/p4env/share/psi4/basis/aug-cc-pvqz-jkfit.gbs 
    atoms 3 entry H          line    70 file /work/zw18965/.conda/envs/p4env/share/psi4/basis/aug-cc-pvqz-jkfit.gbs 

  ==> Pre-Iterations <==

   -------------------------------------------------------
    Irrep   Nso     Nmo     Nalpha   Nbeta   Ndocc  Nsocc
   -------------------------------------------------------
     A'       136     136       0       0       0       0
     A"        79      79       0       0       0       0
   -------------------------------------------------------
    Total     215     215      13      13      13       0
   -------------------------------------------------------

  ==> Integral Setup <==

  DFHelper Memory: AOs need 0.159 GiB; user supplied 100.213 GiB. Using in-core AOs.

  ==> MemDFJK: Density-Fitted J/K Matrices <==

    J tasked:                   Yes
    K tasked:                   Yes
    wK tasked:                   No
    OpenMP threads:              24
    Memory [MiB]:            102617
    Algorithm:                 Core
    Schwarz Cutoff:           1E-12
    Mask sparsity (%):       0.0130
    Fitting Condition:        1E-10

   => Auxiliary Basis Set <=

  Basis Set: (AUG-CC-PV(Q+D)Z AUX)
    Blend: AUG-CC-PVQZ-JKFIT
    Number of shells: 98
    Number of basis function: 402
    Number of Cartesian functions: 546
    Spherical Harmonics?: true
    Max angular momentum: 5

  Cached 100.0% of DFT collocation blocks in 0.370 [GiB].

  Minimum eigenvalue in the overlap matrix is 7.8570818434E-05.
  Using Symmetric Orthogonalization.

  SCF Guess: Superposition of Atomic Densities via on-the-fly atomic UHF.

  ==> Iterations <==

                           Total Energy        Delta E     RMS |[F,P]|

   @DF-RKS iter SAD:  -535.08262515346428   -5.35083e+02   0.00000e+00 
   @DF-RKS iter   1:  -535.44396222207138   -3.61337e-01   2.48674e-03 DIIS
   @DF-RKS iter   2:  -535.45405989466849   -1.00977e-02   2.29532e-03 DIIS
   @DF-RKS iter   3:  -535.49749019832223   -4.34303e-02   3.01324e-04 DIIS
   @DF-RKS iter   4:  -535.49831829938125   -8.28101e-04   5.97784e-05 DIIS
   @DF-RKS iter   5:  -535.49837185628508   -5.35569e-05   1.25292e-05 DIIS
   @DF-RKS iter   6:  -535.49837518748313   -3.33120e-06   3.66172e-06 DIIS
   @DF-RKS iter   7:  -535.49837579318523   -6.05702e-07   1.42388e-06 DIIS
   @DF-RKS iter   8:  -535.49837591051937   -1.17334e-07   5.43999e-07 DIIS
   @DF-RKS iter   9:  -535.49837592671292   -1.61936e-08   1.31853e-07 DIIS
   @DF-RKS iter  10:  -535.49837592739266   -6.79734e-10   2.89434e-08 DIIS
   @DF-RKS iter  11:  -535.49837592740880   -1.61435e-11   8.70306e-09 DIIS
  Energy and wave function converged.


  ==> Post-Iterations <==

    Orbital Energies [Eh]
    ---------------------

    Doubly Occupied:                                                      

       1Ap  -103.718093     2Ap   -20.125753     3Ap   -10.216823  
       4Ap    -7.792966     5Ap    -7.785801     1App   -7.785592  
       6Ap    -1.291846     7Ap    -0.974842     8Ap    -0.658963  
       9Ap    -0.551589     2App   -0.544849    10Ap    -0.419339  
       3App   -0.393117  

    Virtual:                                                              

      11Ap     0.002626    12Ap     0.024104    13Ap     0.075289  
       4App    0.081547    14Ap     0.090041    15Ap     0.111229  
      16Ap     0.118662    17Ap     0.128536     5App    0.139783  
      18Ap     0.174748     6App    0.179327    19Ap     0.230229  
      20Ap     0.240524     7App    0.265763    21Ap     0.286571  
       8App    0.288797    22Ap     0.295898    23Ap     0.317585  
      24Ap     0.319642     9App    0.409411    25Ap     0.422108  
      26Ap     0.469868    27Ap     0.488681    10App    0.488913  
      28Ap     0.496266    11App    0.521525    29Ap     0.526643  
      30Ap     0.588494    12App    0.588880    13App    0.613692  
      31Ap     0.613821    14App    0.629019    32Ap     0.634757  
      33Ap     0.665622    34Ap     0.698471    35Ap     0.702591  
      15App    0.706577    36Ap     0.726576    16App    0.769988  
      37Ap     0.785904    38Ap     0.836444    17App    0.840192  
      39Ap     0.911566    40Ap     0.941379    41Ap     0.973586  
      18App    0.982882    19App    0.998387    42Ap     1.012387  
      20App    1.109055    43Ap     1.145312    44Ap     1.208825  
      45Ap     1.272251    46Ap     1.411119    21App    1.423120  
      47Ap     1.434654    22App    1.446721    48Ap     1.470911  
      23App    1.484459    49Ap     1.519856    50Ap     1.522914  
      51Ap     1.535210    24App    1.547285    25App    1.560260  
      52Ap     1.579230    26App    1.594113    53Ap     1.630966  
      27App    1.643600    54Ap     1.666971    55Ap     1.686923  
      28App    1.710572    56Ap     1.795089    57Ap     1.812488  
      29App    1.825987    58Ap     1.831809    59Ap     1.853619  
      30App    1.898475    31App    1.922953    60Ap     1.923361  
      61Ap     1.971121    32App    1.980114    62Ap     2.001351  
      33App    2.011353    34App    2.070521    63Ap     2.081492  
      64Ap     2.112015    35App    2.129384    65Ap     2.129842  
      36App    2.197833    66Ap     2.210093    67Ap     2.274582  
      68Ap     2.299697    69Ap     2.364510    37App    2.367977  
      38App    2.394366    70Ap     2.492233    71Ap     2.575303  
      72Ap     2.690083    73Ap     2.825579    39App    2.908341  
      40App    3.019857    74Ap     3.027573    41App    3.069017  
      75Ap     3.082828    76Ap     3.285085    77Ap     3.421641  
      78Ap     3.560571    42App    3.581916    79Ap     3.587154  
      43App    3.589088    80Ap     3.680936    44App    3.690194  
      81Ap     3.737165    82Ap     3.863703    45App    3.923430  
      83Ap     3.938445    46App    3.970525    84Ap     3.998274  
      47App    4.051232    85Ap     4.079644    86Ap     4.146993  
      48App    4.156417    49App    4.222807    87Ap     4.233516  
      88Ap     4.338894    89Ap     4.412309    90Ap     4.454261  
      50App    4.504349    51App    4.545883    91Ap     4.551397  
      52App    4.553056    92Ap     4.575565    93Ap     4.585065  
      53App    4.594301    94Ap     4.604200    54App    4.628007  
      95Ap     4.694757    55App    4.735916    96Ap     4.739869  
      56App    4.875727    97Ap     4.880789    57App    4.967698  
      98Ap     4.999939    58App    5.012655    99Ap     5.090833  
     100Ap     5.186611   101Ap     5.225049    59App    5.467629  
     102Ap     5.490095    60App    5.733275   103Ap     5.767917  
     104Ap     5.873089   105Ap     6.094901    61App    6.148835  
     106Ap     6.362906    62App    6.742825   107Ap     6.791566  
     108Ap     7.542048    63App    7.639052    64App    7.720483  
     109Ap     7.721787   110Ap     7.848034   111Ap     8.036609  
     112Ap     8.448345    65App    8.552020    66App    8.650837  
     113Ap     8.721131   114Ap     8.991115   115Ap     9.667944  
      67App    9.729099   116Ap     9.925413   117Ap    10.614219  
      68App   10.651841   118Ap    10.687503    69App   10.738246  
     119Ap    10.748804    70App   10.785881    71App   11.118499  
     120Ap    11.141295   121Ap    11.171331    72App   11.183444  
     122Ap    11.286554    73App   11.333176    74App   11.403132  
     123Ap    11.431530   124Ap    11.549971   125Ap    11.681689  
      75App   11.836378   126Ap    11.894206   127Ap    12.000507  
      76App   12.100285   128Ap    12.118749    77App   12.556661  
     129Ap    12.636000   130Ap    12.739528    78App   13.032194  
     131Ap    13.143258    79App   14.344804   132Ap    14.367461  
     133Ap    14.408024   134Ap    16.753184   135Ap    24.866595  
     136Ap    43.575528  

    Final Occupation by Irrep:
             Ap   App 
    DOCC [    10,    3 ]

  @DF-RKS Final Energy:  -535.49837592740880

   => Energetics <=

    Nuclear Repulsion Energy =             51.0162840579654286
    One-Electron Energy =                -840.6184943154419216
    Two-Electron Energy =                 265.1367202631593614
    DFT Exchange-Correlation Energy =     -11.0317863630916584
    Empirical Dispersion Energy =          -0.0010995700000000
    VV10 Nonlocal Energy =                  0.0000000000000000
    Total Energy =                       -535.4983759274086879

Computation Completed


Properties will be evaluated at   0.000000,   0.000000,   0.000000 [a0]

Properties computed using the SCF density matrix

  Nuclear Dipole Moment: [e a0]
     X:    -2.0331      Y:    -0.1922      Z:     0.0000

  Electronic Dipole Moment: [e a0]
     X:     1.6948      Y:    -0.3347      Z:     0.0000

  Dipole Moment: [e a0]
     X:    -0.3383      Y:    -0.5270      Z:     0.0000     Total:     0.6262

  Dipole Moment: [D]
     X:    -0.8598      Y:    -1.3394      Z:     0.0000     Total:     1.5916


*** tstop() called on bp1-compute00148.data.bp.acrc.priv at Mon Apr 19 15:45:51 2021
Module time:
	user time   =      55.89 seconds =       0.93 minutes
	system time =       3.27 seconds =       0.05 minutes
	total time  =          2 seconds =       0.03 minutes
Total time:
	user time   =      55.89 seconds =       0.93 minutes
	system time =       3.27 seconds =       0.05 minutes
	total time  =          2 seconds =       0.03 minutes

*** tstart() called on bp1-compute00148.data.bp.acrc.priv
*** at Mon Apr 19 15:45:51 2021

   => Loading Basis Set <=

    Name: (AUG-CC-PV(Q+D)Z AUX)
    Role: RIFIT
    Keyword: DF_BASIS_MP2
    atoms 1 entry O          line   332 file /work/zw18965/.conda/envs/p4env/share/psi4/basis/aug-cc-pvqz-ri.gbs 
    atoms 2 entry CL         line   914 file /work/zw18965/.conda/envs/p4env/share/psi4/basis/aug-cc-pvqz-ri.gbs 
    atoms 3 entry H          line    30 file /work/zw18965/.conda/envs/p4env/share/psi4/basis/aug-cc-pvqz-ri.gbs 

	 --------------------------------------------------------
	                          DF-MP2                         
	      2nd-Order Density-Fitted Moller-Plesset Theory     
	              RMP2 Wavefunction,  24 Threads             
	                                                         
	        Rob Parrish, Justin Turney, Andy Simmonett,      
	           Ed Hohenstein, and C. David Sherrill          
	 --------------------------------------------------------

   => Auxiliary Basis Set <=

  Basis Set: (AUG-CC-PV(Q+D)Z AUX)
    Blend: AUG-CC-PVQZ-RI
    Number of shells: 100
    Number of basis function: 442
    Number of Cartesian functions: 610
    Spherical Harmonics?: true
    Max angular momentum: 5

	 --------------------------------------------------------
	                 NBF =   215, NAUX =   442
	 --------------------------------------------------------
	   CLASS    FOCC     OCC    AOCC    AVIR     VIR    FVIR
	   PAIRS       0      13      13     202     202       0
	 --------------------------------------------------------

	-----------------------------------------------------------
	 ==================> DF-MP2 Energies <==================== 
	-----------------------------------------------------------
	 Reference Energy          =    -535.4983759274088015 [Eh]
	 Singles Energy            =      -0.0000000000000000 [Eh]
	 Same-Spin Energy          =      -0.1799322203635992 [Eh]
	 Opposite-Spin Energy      =      -0.5322868698179344 [Eh]
	 Correlation Energy        =      -0.7122190901815336 [Eh]
	 Total Energy              =    -536.2105950175903217 [Eh]
	-----------------------------------------------------------
	 ================> DF-SCS-MP2 Energies <================== 
	-----------------------------------------------------------
	 SCS Same-Spin Scale       =       0.4000000000000000 [-]
	 SCS Opposite-Spin Scale   =       0.4700000000000000 [-]
	 SCS Same-Spin Energy      =      -0.0719728881454397 [Eh]
	 SCS Opposite-Spin Energy  =      -0.2501748288144292 [Eh]
	 SCS Correlation Energy    =      -0.3221477169598688 [Eh]
	 SCS Total Energy          =    -535.8205236443686772 [Eh]
	-----------------------------------------------------------



    DSD-BLYP-D3BJ Energy Summary
    ----------------------------
    DFT Reference Energy                  =  -535.4983759274088015
    Scaled MP2 Correlation                =    -0.3221477169598688
    @Final double-hybrid DFT total energy =  -535.8205236443686772


*** tstop() called on bp1-compute00148.data.bp.acrc.priv at Mon Apr 19 15:45:52 2021
Module time:
	user time   =      12.68 seconds =       0.21 minutes
	system time =       0.56 seconds =       0.01 minutes
	total time  =          1 seconds =       0.02 minutes
Total time:
	user time   =      68.58 seconds =       1.14 minutes
	system time =       3.83 seconds =       0.06 minutes
	total time  =          3 seconds =       0.05 minutes

  //>>>>>>>>>>>>>>>>>>>>>>>>>>>>>>>>>>>//
  //    Loading displacement 2 of 7    //
  //<<<<<<<<<<<<<<<<<<<<<<<<<<<<<<<<<<<//

*** tstart() called on bp1-compute00148.data.bp.acrc.priv
*** at Mon Apr 19 15:45:52 2021

   => Loading Basis Set <=

    Name: AUG-CC-PV(Q+D)Z
    Role: ORBITAL
    Keyword: BASIS
    atoms 1 entry O          line   439 file /work/zw18965/.conda/envs/p4env/share/psi4/basis/aug-cc-pv_qpd_z.gbs 
    atoms 2 entry CL         line  1246 file /work/zw18965/.conda/envs/p4env/share/psi4/basis/aug-cc-pv_qpd_z.gbs 
    atoms 3 entry H          line    56 file /work/zw18965/.conda/envs/p4env/share/psi4/basis/aug-cc-pv_qpd_z.gbs 


         ---------------------------------------------------------
                                   SCF
               by Justin Turney, Rob Parrish, Andy Simmonett
                          and Daniel G. A. Smith
                              RKS Reference
                       24 Threads, 137329 MiB Core
         ---------------------------------------------------------

  ==> Geometry <==

    Molecular point group: cs
    Full point group: Cs

    Geometry (in Angstrom), charge = 0, multiplicity = 1:

       Center              X                  Y                   Z               Mass       
    ------------   -----------------  -----------------  -----------------  -----------------
         O           -1.062483844032     0.396774330606     0.000000000000    15.994914619570
         CL           0.533323383969    -0.170723666835     0.000000000000    34.968852682000
         H           -1.642515737327    -0.373438617165     0.000000000000     1.007825032230

  Running in cs symmetry.

  Rotational constants: A =     21.51634  B =      0.50148  C =      0.49006 [cm^-1]
  Rotational constants: A = 645043.59780  B =  15033.94099  C =  14691.52760 [MHz]
  Nuclear repulsion =   50.998702189720582

  Charge       = 0
  Multiplicity = 1
  Electrons    = 26
  Nalpha       = 13
  Nbeta        = 13

  ==> Algorithm <==

  SCF Algorithm Type is DF.
  DIIS enabled.
  MOM disabled.
  Fractional occupation disabled.
  Guess Type is SAD.
  Energy threshold   = 1.00e-08
  Density threshold  = 1.00e-08
  Integral threshold = 0.00e+00

  ==> Primary Basis <==

  Basis Set: AUG-CC-PV(Q+D)Z
    Blend: AUG-CC-PV(Q+D)Z
    Number of shells: 57
    Number of basis function: 215
    Number of Cartesian functions: 275
    Spherical Harmonics?: true
    Max angular momentum: 4

  ==> DFT Potential <==

   => Composite Functional: DSD-BLYP-D3BJ <= 

    DSD-BLYP-D3BJ Dispersion-corrected SCS Double Hybrid XC Functional

    S. Kozuch, J.M.L. Martin, J. Comp. Chem., 34, 2327-2344, 2013


    Deriv               =              1
    GGA                 =           TRUE
    Meta                =          FALSE

    Exchange Hybrid     =           TRUE
    MP2 Hybrid          =           TRUE

   => Exchange Functionals <=

    0.2900     XC_GGA_X_B88

   => Exact (HF) Exchange <=

    0.7100               HF 

   => Correlation Functionals <=

    0.5400     XC_GGA_C_LYP

   => MP2 Correlation <=

    MP2 SCS Hybrid      =           TRUE
    MP2 OS Alpha        =       0.470000
    MP2 SS Alpha        =       0.400000

   => Molecular Quadrature <=

    Radial Scheme          =       TREUTLER
    Pruning Scheme         =           FLAT
    Nuclear Scheme         =       TREUTLER

    BS radius alpha        =              1
    Pruning alpha          =              1
    Radial Points          =             75
    Spherical Points       =            302
    Total Points           =          67950
    Total Blocks           =            576
    Max Points             =            256
    Max Functions          =            215

   => DSD-BLYP-D3BJ: Empirical Dispersion <=

    Grimme's -D3 (BJ-damping) Dispersion Correction
    Grimme S.; Ehrlich S.; Goerigk L. (2011), J. Comput. Chem., 32: 1456
    Parametrisation from:    S. Kozuch, J.M.L. Martin, J. Comp. Chem., 34, 2327-2344, 2013

        s6 =       0.570000
        s8 =       0.000000
        a1 =       0.000000
        a2 =       5.400000

   => Loading Basis Set <=

    Name: (AUG-CC-PV(Q+D)Z AUX)
    Role: JKFIT
    Keyword: DF_BASIS_SCF
    atoms 1 entry O          line   318 file /work/zw18965/.conda/envs/p4env/share/psi4/basis/aug-cc-pvqz-jkfit.gbs 
    atoms 2 entry CL         line   904 file /work/zw18965/.conda/envs/p4env/share/psi4/basis/aug-cc-pvqz-jkfit.gbs 
    atoms 3 entry H          line    70 file /work/zw18965/.conda/envs/p4env/share/psi4/basis/aug-cc-pvqz-jkfit.gbs 

  ==> Pre-Iterations <==

   -------------------------------------------------------
    Irrep   Nso     Nmo     Nalpha   Nbeta   Ndocc  Nsocc
   -------------------------------------------------------
     A'       136     136       0       0       0       0
     A"        79      79       0       0       0       0
   -------------------------------------------------------
    Total     215     215      13      13      13       0
   -------------------------------------------------------

  ==> Integral Setup <==

  DFHelper Memory: AOs need 0.159 GiB; user supplied 100.213 GiB. Using in-core AOs.

  ==> MemDFJK: Density-Fitted J/K Matrices <==

    J tasked:                   Yes
    K tasked:                   Yes
    wK tasked:                   No
    OpenMP threads:              24
    Memory [MiB]:            102617
    Algorithm:                 Core
    Schwarz Cutoff:           1E-12
    Mask sparsity (%):       0.0130
    Fitting Condition:        1E-10

   => Auxiliary Basis Set <=

  Basis Set: (AUG-CC-PV(Q+D)Z AUX)
    Blend: AUG-CC-PVQZ-JKFIT
    Number of shells: 98
    Number of basis function: 402
    Number of Cartesian functions: 546
    Spherical Harmonics?: true
    Max angular momentum: 5

  Cached 100.0% of DFT collocation blocks in 0.370 [GiB].

  Minimum eigenvalue in the overlap matrix is 7.8522977541E-05.
  Using Symmetric Orthogonalization.

  SCF Guess: Superposition of Atomic Densities via on-the-fly atomic UHF.

  ==> Iterations <==

                           Total Energy        Delta E     RMS |[F,P]|

   @DF-RKS iter SAD:  -535.08171554492810   -5.35082e+02   0.00000e+00 
   @DF-RKS iter   1:  -535.44391813879633   -3.62203e-01   2.48747e-03 DIIS
   @DF-RKS iter   2:  -535.45395040613062   -1.00323e-02   2.29754e-03 DIIS
   @DF-RKS iter   3:  -535.49747836321615   -4.35280e-02   3.01198e-04 DIIS
   @DF-RKS iter   4:  -535.49830612451547   -8.27761e-04   5.98187e-05 DIIS
   @DF-RKS iter   5:  -535.49835970418235   -5.35797e-05   1.25392e-05 DIIS
   @DF-RKS iter   6:  -535.49836304246969   -3.33829e-06   3.66954e-06 DIIS
   @DF-RKS iter   7:  -535.49836365134956   -6.08880e-07   1.42803e-06 DIIS
   @DF-RKS iter   8:  -535.49836376933797   -1.17988e-07   5.44862e-07 DIIS
   @DF-RKS iter   9:  -535.49836378558473   -1.62468e-08   1.31977e-07 DIIS
   @DF-RKS iter  10:  -535.49836378626958   -6.84850e-10   2.90187e-08 DIIS
   @DF-RKS iter  11:  -535.49836378628538   -1.58025e-11   8.76816e-09 DIIS
  Energy and wave function converged.


  ==> Post-Iterations <==

    Orbital Energies [Eh]
    ---------------------

    Doubly Occupied:                                                      

       1Ap  -103.718143     2Ap   -20.125779     3Ap   -10.216865  
       4Ap    -7.793007     5Ap    -7.785843     1App   -7.785634  
       6Ap    -1.291747     7Ap    -0.974943     8Ap    -0.658953  
       9Ap    -0.551482     2App   -0.544745    10Ap    -0.419441  
       3App   -0.393240  

    Virtual:                                                              

      11Ap     0.002552    12Ap     0.024013    13Ap     0.075297  
       4App    0.081552    14Ap     0.089946    15Ap     0.111243  
      16Ap     0.118657    17Ap     0.128538     5App    0.139783  
      18Ap     0.174760     6App    0.179340    19Ap     0.230236  
      20Ap     0.240500     7App    0.265760    21Ap     0.286541  
       8App    0.288742    22Ap     0.295953    23Ap     0.317633  
      24Ap     0.319579     9App    0.409480    25Ap     0.422124  
      26Ap     0.469870    27Ap     0.488694    10App    0.488957  
      28Ap     0.496244    11App    0.521516    29Ap     0.526754  
      30Ap     0.588467    12App    0.588800    13App    0.613652  
      31Ap     0.613833    14App    0.629017    32Ap     0.634725  
      33Ap     0.665600    34Ap     0.698297    35Ap     0.702670  
      15App    0.706512    36Ap     0.726641    16App    0.769932  
      37Ap     0.785876    38Ap     0.836357    17App    0.840140  
      39Ap     0.911491    40Ap     0.941387    41Ap     0.973613  
      18App    0.982838    19App    0.998405    42Ap     1.012351  
      20App    1.109165    43Ap     1.145194    44Ap     1.208803  
      45Ap     1.272170    46Ap     1.411265    21App    1.423129  
      47Ap     1.434755    22App    1.446731    48Ap     1.470966  
      23App    1.484437    49Ap     1.519790    50Ap     1.522865  
      51Ap     1.535355    24App    1.547197    25App    1.560268  
      52Ap     1.579191    26App    1.593951    53Ap     1.630912  
      27App    1.643515    54Ap     1.666963    55Ap     1.686814  
      28App    1.710369    56Ap     1.794922    57Ap     1.812361  
      29App    1.825938    58Ap     1.831640    59Ap     1.853450  
      30App    1.898445    31App    1.922829    60Ap     1.923464  
      61Ap     1.971268    32App    1.980027    62Ap     2.001273  
      33App    2.011132    34App    2.070349    63Ap     2.081373  
      64Ap     2.111935    35App    2.129328    65Ap     2.129661  
      36App    2.197662    66Ap     2.210059    67Ap     2.274337  
      68Ap     2.299546    69Ap     2.364483    37App    2.368529  
      38App    2.394305    70Ap     2.492511    71Ap     2.574148  
      72Ap     2.689958    73Ap     2.825720    39App    2.908279  
      40App    3.019513    74Ap     3.027636    41App    3.069290  
      75Ap     3.083175    76Ap     3.285156    77Ap     3.421717  
      78Ap     3.560628    42App    3.581360    79Ap     3.587145  
      43App    3.589117    80Ap     3.680983    44App    3.690167  
      81Ap     3.737050    82Ap     3.863887    45App    3.923415  
      83Ap     3.937937    46App    3.970546    84Ap     3.998330  
      47App    4.051137    85Ap     4.079476    86Ap     4.147137  
      48App    4.156262    49App    4.222732    87Ap     4.233599  
      88Ap     4.339091    89Ap     4.412227    90Ap     4.453923  
      50App    4.504533    51App    4.545940    91Ap     4.551354  
      52App    4.553216    92Ap     4.575508    93Ap     4.585009  
      53App    4.594231    94Ap     4.603621    54App    4.627884  
      95Ap     4.694424    55App    4.736061    96Ap     4.739632  
      56App    4.875586    97Ap     4.880489    57App    4.966744  
      98Ap     4.999602    58App    5.011975    99Ap     5.090551  
     100Ap     5.185911   101Ap     5.225369    59App    5.468295  
     102Ap     5.489219    60App    5.732740   103Ap     5.768745  
     104Ap     5.872289   105Ap     6.094071    61App    6.147851  
     106Ap     6.362318    62App    6.743255   107Ap     6.791896  
     108Ap     7.540904    63App    7.639262    64App    7.721866  
     109Ap     7.723207   110Ap     7.848494   111Ap     8.037192  
     112Ap     8.449335    65App    8.551919    66App    8.650285  
     113Ap     8.721708   114Ap     8.990754   115Ap     9.669483  
      67App    9.731196   116Ap     9.927427   117Ap    10.612452  
      68App   10.651884   118Ap    10.686540    69App   10.737885  
     119Ap    10.748406    70App   10.785611    71App   11.119299  
     120Ap    11.141516   121Ap    11.171243    72App   11.183481  
     122Ap    11.286286    73App   11.332703    74App   11.402970  
     123Ap    11.430758   124Ap    11.549962   125Ap    11.681503  
      75App   11.836419   126Ap    11.893637   127Ap    12.000793  
      76App   12.099339   128Ap    12.121033    77App   12.558685  
     129Ap    12.634749   130Ap    12.740593    78App   13.032123  
     131Ap    13.143338    79App   14.348982   132Ap    14.370793  
     133Ap    14.411459   134Ap    16.757050   135Ap    24.863051  
     136Ap    43.576250  

    Final Occupation by Irrep:
             Ap   App 
    DOCC [    10,    3 ]

  @DF-RKS Final Energy:  -535.49836378628538

   => Energetics <=

    Nuclear Repulsion Energy =             50.9987021897205821
    One-Electron Energy =                -840.5828289328040910
    Two-Electron Energy =                 265.1186156871274306
    DFT Exchange-Correlation Energy =     -11.0317532403293654
    Empirical Dispersion Energy =          -0.0010994900000000
    VV10 Nonlocal Energy =                  0.0000000000000000
    Total Energy =                       -535.4983637862854948

Computation Completed


Properties will be evaluated at   0.000000,   0.000000,   0.000000 [a0]

Properties computed using the SCF density matrix

  Nuclear Dipole Moment: [e a0]
     X:    -2.0331      Y:    -0.1919      Z:     0.0000

  Electronic Dipole Moment: [e a0]
     X:     1.6956      Y:    -0.3351      Z:     0.0000

  Dipole Moment: [e a0]
     X:    -0.3375      Y:    -0.5270      Z:     0.0000     Total:     0.6258

  Dipole Moment: [D]
     X:    -0.8579      Y:    -1.3394      Z:     0.0000     Total:     1.5906


*** tstop() called on bp1-compute00148.data.bp.acrc.priv at Mon Apr 19 15:45:55 2021
Module time:
	user time   =      55.48 seconds =       0.92 minutes
	system time =       2.36 seconds =       0.04 minutes
	total time  =          3 seconds =       0.05 minutes
Total time:
	user time   =     124.48 seconds =       2.07 minutes
	system time =       6.20 seconds =       0.10 minutes
	total time  =          6 seconds =       0.10 minutes

*** tstart() called on bp1-compute00148.data.bp.acrc.priv
*** at Mon Apr 19 15:45:55 2021

   => Loading Basis Set <=

    Name: (AUG-CC-PV(Q+D)Z AUX)
    Role: RIFIT
    Keyword: DF_BASIS_MP2
    atoms 1 entry O          line   332 file /work/zw18965/.conda/envs/p4env/share/psi4/basis/aug-cc-pvqz-ri.gbs 
    atoms 2 entry CL         line   914 file /work/zw18965/.conda/envs/p4env/share/psi4/basis/aug-cc-pvqz-ri.gbs 
    atoms 3 entry H          line    30 file /work/zw18965/.conda/envs/p4env/share/psi4/basis/aug-cc-pvqz-ri.gbs 

	 --------------------------------------------------------
	                          DF-MP2                         
	      2nd-Order Density-Fitted Moller-Plesset Theory     
	              RMP2 Wavefunction,  24 Threads             
	                                                         
	        Rob Parrish, Justin Turney, Andy Simmonett,      
	           Ed Hohenstein, and C. David Sherrill          
	 --------------------------------------------------------

   => Auxiliary Basis Set <=

  Basis Set: (AUG-CC-PV(Q+D)Z AUX)
    Blend: AUG-CC-PVQZ-RI
    Number of shells: 100
    Number of basis function: 442
    Number of Cartesian functions: 610
    Spherical Harmonics?: true
    Max angular momentum: 5

	 --------------------------------------------------------
	                 NBF =   215, NAUX =   442
	 --------------------------------------------------------
	   CLASS    FOCC     OCC    AOCC    AVIR     VIR    FVIR
	   PAIRS       0      13      13     202     202       0
	 --------------------------------------------------------

	-----------------------------------------------------------
	 ==================> DF-MP2 Energies <==================== 
	-----------------------------------------------------------
	 Reference Energy          =    -535.4983637862853811 [Eh]
	 Singles Energy            =      -0.0000000000000000 [Eh]
	 Same-Spin Energy          =      -0.1799281208313243 [Eh]
	 Opposite-Spin Energy      =      -0.5323082017612049 [Eh]
	 Correlation Energy        =      -0.7122363225925292 [Eh]
	 Total Energy              =    -536.2106001088778839 [Eh]
	-----------------------------------------------------------
	 ================> DF-SCS-MP2 Energies <================== 
	-----------------------------------------------------------
	 SCS Same-Spin Scale       =       0.4000000000000000 [-]
	 SCS Opposite-Spin Scale   =       0.4700000000000000 [-]
	 SCS Same-Spin Energy      =      -0.0719712483325297 [Eh]
	 SCS Opposite-Spin Energy  =      -0.2501848548277663 [Eh]
	 SCS Correlation Energy    =      -0.3221561031602960 [Eh]
	 SCS Total Energy          =    -535.8205198894456771 [Eh]
	-----------------------------------------------------------



    DSD-BLYP-D3BJ Energy Summary
    ----------------------------
    DFT Reference Energy                  =  -535.4983637862853811
    Scaled MP2 Correlation                =    -0.3221561031602960
    @Final double-hybrid DFT total energy =  -535.8205198894456771


*** tstop() called on bp1-compute00148.data.bp.acrc.priv at Mon Apr 19 15:45:56 2021
Module time:
	user time   =      12.31 seconds =       0.21 minutes
	system time =       0.50 seconds =       0.01 minutes
	total time  =          1 seconds =       0.02 minutes
Total time:
	user time   =     136.80 seconds =       2.28 minutes
	system time =       6.70 seconds =       0.11 minutes
	total time  =          7 seconds =       0.12 minutes

  //>>>>>>>>>>>>>>>>>>>>>>>>>>>>>>>>>>>//
  //    Loading displacement 3 of 7    //
  //<<<<<<<<<<<<<<<<<<<<<<<<<<<<<<<<<<<//

*** tstart() called on bp1-compute00148.data.bp.acrc.priv
*** at Mon Apr 19 15:45:56 2021

   => Loading Basis Set <=

    Name: AUG-CC-PV(Q+D)Z
    Role: ORBITAL
    Keyword: BASIS
    atoms 1 entry O          line   439 file /work/zw18965/.conda/envs/p4env/share/psi4/basis/aug-cc-pv_qpd_z.gbs 
    atoms 2 entry CL         line  1246 file /work/zw18965/.conda/envs/p4env/share/psi4/basis/aug-cc-pv_qpd_z.gbs 
    atoms 3 entry H          line    56 file /work/zw18965/.conda/envs/p4env/share/psi4/basis/aug-cc-pv_qpd_z.gbs 


         ---------------------------------------------------------
                                   SCF
               by Justin Turney, Rob Parrish, Andy Simmonett
                          and Daniel G. A. Smith
                              RKS Reference
                       24 Threads, 137329 MiB Core
         ---------------------------------------------------------

  ==> Geometry <==

    Molecular point group: cs
    Full point group: Cs

    Geometry (in Angstrom), charge = 0, multiplicity = 1:

       Center              X                  Y                   Z               Mass       
    ------------   -----------------  -----------------  -----------------  -----------------
         O           -1.061442802297     0.396444707677     0.000000000000    15.994914619570
         CL           0.532858780414    -0.170558200628     0.000000000000    34.968852682000
         H           -1.642917315352    -0.373948500154     0.000000000000     1.007825032230

  Running in cs symmetry.

  Rotational constants: A =     21.48854  B =      0.50235  C =      0.49087 [cm^-1]
  Rotational constants: A = 644210.18608  B =  15059.99000  C =  14715.96823 [MHz]
  Nuclear repulsion =   51.033885575093336

  Charge       = 0
  Multiplicity = 1
  Electrons    = 26
  Nalpha       = 13
  Nbeta        = 13

  ==> Algorithm <==

  SCF Algorithm Type is DF.
  DIIS enabled.
  MOM disabled.
  Fractional occupation disabled.
  Guess Type is SAD.
  Energy threshold   = 1.00e-08
  Density threshold  = 1.00e-08
  Integral threshold = 0.00e+00

  ==> Primary Basis <==

  Basis Set: AUG-CC-PV(Q+D)Z
    Blend: AUG-CC-PV(Q+D)Z
    Number of shells: 57
    Number of basis function: 215
    Number of Cartesian functions: 275
    Spherical Harmonics?: true
    Max angular momentum: 4

  ==> DFT Potential <==

   => Composite Functional: DSD-BLYP-D3BJ <= 

    DSD-BLYP-D3BJ Dispersion-corrected SCS Double Hybrid XC Functional

    S. Kozuch, J.M.L. Martin, J. Comp. Chem., 34, 2327-2344, 2013


    Deriv               =              1
    GGA                 =           TRUE
    Meta                =          FALSE

    Exchange Hybrid     =           TRUE
    MP2 Hybrid          =           TRUE

   => Exchange Functionals <=

    0.2900     XC_GGA_X_B88

   => Exact (HF) Exchange <=

    0.7100               HF 

   => Correlation Functionals <=

    0.5400     XC_GGA_C_LYP

   => MP2 Correlation <=

    MP2 SCS Hybrid      =           TRUE
    MP2 OS Alpha        =       0.470000
    MP2 SS Alpha        =       0.400000

   => Molecular Quadrature <=

    Radial Scheme          =       TREUTLER
    Pruning Scheme         =           FLAT
    Nuclear Scheme         =       TREUTLER

    BS radius alpha        =              1
    Pruning alpha          =              1
    Radial Points          =             75
    Spherical Points       =            302
    Total Points           =          67950
    Total Blocks           =            575
    Max Points             =            256
    Max Functions          =            215

   => DSD-BLYP-D3BJ: Empirical Dispersion <=

    Grimme's -D3 (BJ-damping) Dispersion Correction
    Grimme S.; Ehrlich S.; Goerigk L. (2011), J. Comput. Chem., 32: 1456
    Parametrisation from:    S. Kozuch, J.M.L. Martin, J. Comp. Chem., 34, 2327-2344, 2013

        s6 =       0.570000
        s8 =       0.000000
        a1 =       0.000000
        a2 =       5.400000

   => Loading Basis Set <=

    Name: (AUG-CC-PV(Q+D)Z AUX)
    Role: JKFIT
    Keyword: DF_BASIS_SCF
    atoms 1 entry O          line   318 file /work/zw18965/.conda/envs/p4env/share/psi4/basis/aug-cc-pvqz-jkfit.gbs 
    atoms 2 entry CL         line   904 file /work/zw18965/.conda/envs/p4env/share/psi4/basis/aug-cc-pvqz-jkfit.gbs 
    atoms 3 entry H          line    70 file /work/zw18965/.conda/envs/p4env/share/psi4/basis/aug-cc-pvqz-jkfit.gbs 

  ==> Pre-Iterations <==

   -------------------------------------------------------
    Irrep   Nso     Nmo     Nalpha   Nbeta   Ndocc  Nsocc
   -------------------------------------------------------
     A'       136     136       0       0       0       0
     A"        79      79       0       0       0       0
   -------------------------------------------------------
    Total     215     215      13      13      13       0
   -------------------------------------------------------

  ==> Integral Setup <==

  DFHelper Memory: AOs need 0.159 GiB; user supplied 100.213 GiB. Using in-core AOs.

  ==> MemDFJK: Density-Fitted J/K Matrices <==

    J tasked:                   Yes
    K tasked:                   Yes
    wK tasked:                   No
    OpenMP threads:              24
    Memory [MiB]:            102617
    Algorithm:                 Core
    Schwarz Cutoff:           1E-12
    Mask sparsity (%):       0.0130
    Fitting Condition:        1E-10

   => Auxiliary Basis Set <=

  Basis Set: (AUG-CC-PV(Q+D)Z AUX)
    Blend: AUG-CC-PVQZ-JKFIT
    Number of shells: 98
    Number of basis function: 402
    Number of Cartesian functions: 546
    Spherical Harmonics?: true
    Max angular momentum: 5

  Cached 100.0% of DFT collocation blocks in 0.370 [GiB].

  Minimum eigenvalue in the overlap matrix is 7.8618401935E-05.
  Using Symmetric Orthogonalization.

  SCF Guess: Superposition of Atomic Densities via on-the-fly atomic UHF.

  ==> Iterations <==

                           Total Energy        Delta E     RMS |[F,P]|

   @DF-RKS iter SAD:  -535.08354685987672   -5.35084e+02   0.00000e+00 
   @DF-RKS iter   1:  -535.44400470918958   -3.60458e-01   2.48601e-03 DIIS
   @DF-RKS iter   2:  -535.45416761596960   -1.01629e-02   2.29312e-03 DIIS
   @DF-RKS iter   3:  -535.49750100613846   -4.33334e-02   3.01448e-04 DIIS
   @DF-RKS iter   4:  -535.49832943728245   -8.28431e-04   5.97392e-05 DIIS
   @DF-RKS iter   5:  -535.49838297245049   -5.35352e-05   1.25191e-05 DIIS
   @DF-RKS iter   6:  -535.49838629617864   -3.32373e-06   3.65365e-06 DIIS
   @DF-RKS iter   7:  -535.49838689857597   -6.02397e-07   1.41959e-06 DIIS
   @DF-RKS iter   8:  -535.49838701522287   -1.16647e-07   5.43096e-07 DIIS
   @DF-RKS iter   9:  -535.49838703135947   -1.61366e-08   1.31732e-07 DIIS
   @DF-RKS iter  10:  -535.49838703203773   -6.78256e-10   2.88733e-08 DIIS
   @DF-RKS iter  11:  -535.49838703205364   -1.59162e-11   8.64210e-09 DIIS
  Energy and wave function converged.


  ==> Post-Iterations <==

    Orbital Energies [Eh]
    ---------------------

    Doubly Occupied:                                                      

       1Ap  -103.718042     2Ap   -20.125727     3Ap   -10.216780  
       4Ap    -7.792925     5Ap    -7.785759     1App   -7.785549  
       6Ap    -1.291946     7Ap    -0.974742     8Ap    -0.658973  
       9Ap    -0.551696     2App   -0.544953    10Ap    -0.419238  
       3App   -0.392994  

    Virtual:                                                              

      11Ap     0.002699    12Ap     0.024195    13Ap     0.075281  
       4App    0.081543    14Ap     0.090137    15Ap     0.111214  
      16Ap     0.118667    17Ap     0.128534     5App    0.139783  
      18Ap     0.174737     6App    0.179314    19Ap     0.230223  
      20Ap     0.240548     7App    0.265767    21Ap     0.286602  
       8App    0.288853    22Ap     0.295843    23Ap     0.317538  
      24Ap     0.319706     9App    0.409341    25Ap     0.422091  
      26Ap     0.469866    27Ap     0.488668    10App    0.488870  
      28Ap     0.496288    11App    0.521535    29Ap     0.526531  
      30Ap     0.588521    12App    0.588960    13App    0.613733  
      31Ap     0.613808    14App    0.629021    32Ap     0.634788  
      33Ap     0.665645    34Ap     0.698644    35Ap     0.702511  
      15App    0.706642    36Ap     0.726514    16App    0.770044  
      37Ap     0.785932    38Ap     0.836531    17App    0.840243  
      39Ap     0.911641    40Ap     0.941370    41Ap     0.973561  
      18App    0.982925    19App    0.998370    42Ap     1.012422  
      20App    1.108946    43Ap     1.145430    44Ap     1.208847  
      45Ap     1.272331    46Ap     1.410972    21App    1.423110  
      47Ap     1.434554    22App    1.446711    48Ap     1.470857  
      23App    1.484482    49Ap     1.519921    50Ap     1.522963  
      51Ap     1.535067    24App    1.547373    25App    1.560252  
      52Ap     1.579269    26App    1.594276    53Ap     1.631021  
      27App    1.643686    54Ap     1.666979    55Ap     1.687031  
      28App    1.710776    56Ap     1.795255    57Ap     1.812613  
      29App    1.826036    58Ap     1.831977    59Ap     1.853791  
      30App    1.898502    31App    1.923079    60Ap     1.923257  
      61Ap     1.970975    32App    1.980200    62Ap     2.001429  
      33App    2.011573    34App    2.070694    63Ap     2.081610  
      64Ap     2.112092    35App    2.129440    65Ap     2.130024  
      36App    2.198004    66Ap     2.210126    67Ap     2.274821  
      68Ap     2.299855    69Ap     2.364539    37App    2.367425  
      38App    2.394428    70Ap     2.491955    71Ap     2.576460  
      72Ap     2.690205    73Ap     2.825439    39App    2.908400  
      40App    3.020201    74Ap     3.027508    41App    3.068746  
      75Ap     3.082485    76Ap     3.285013    77Ap     3.421565  
      78Ap     3.560512    42App    3.582474    79Ap     3.587163  
      43App    3.589059    80Ap     3.680889    44App    3.690219  
      81Ap     3.737280    82Ap     3.863520    45App    3.923445  
      83Ap     3.938953    46App    3.970504    84Ap     3.998217  
      47App    4.051327    85Ap     4.079810    86Ap     4.146851  
      48App    4.156572    49App    4.222879    87Ap     4.233427  
      88Ap     4.338700    89Ap     4.412383    90Ap     4.454607  
      50App    4.504166    51App    4.545819    91Ap     4.551440  
      52App    4.552902    92Ap     4.575621    93Ap     4.585119  
      53App    4.594371    94Ap     4.604776    54App    4.628130  
      95Ap     4.695090    55App    4.735771    96Ap     4.740109  
      56App    4.875866    97Ap     4.881085    57App    4.968652  
      98Ap     5.000278    58App    5.013336    99Ap     5.091114  
     100Ap     5.187290   101Ap     5.224760    59App    5.466962  
     102Ap     5.490968    60App    5.733808   103Ap     5.767087  
     104Ap     5.873882   105Ap     6.095744    61App    6.149826  
     106Ap     6.363494    62App    6.742395   107Ap     6.791236  
     108Ap     7.543183    63App    7.638838    64App    7.719104  
     109Ap     7.720374   110Ap     7.847572   111Ap     8.036027  
     112Ap     8.447354    65App    8.552120    66App    8.651391  
     113Ap     8.720555   114Ap     8.991480   115Ap     9.666408  
      67App    9.726997   116Ap     9.923396   117Ap    10.615919  
      68App   10.651798   118Ap    10.688515    69App   10.738603  
     119Ap    10.749207    70App   10.786156    71App   11.117697  
     120Ap    11.141065   121Ap    11.171420    72App   11.183410  
     122Ap    11.286830    73App   11.333650    74App   11.403294  
     123Ap    11.432305   124Ap    11.549982   125Ap    11.681875  
      75App   11.836338   126Ap    11.894767   127Ap    12.000202  
      76App   12.101233   128Ap    12.116491    77App   12.554642  
     129Ap    12.637239   130Ap    12.738486    78App   13.032263  
     131Ap    13.143177    79App   14.340628   132Ap    14.364130  
     133Ap    14.404600   134Ap    16.749305   135Ap    24.870149  
     136Ap    43.574821  

    Final Occupation by Irrep:
             Ap   App 
    DOCC [    10,    3 ]

  @DF-RKS Final Energy:  -535.49838703205364

   => Energetics <=

    Nuclear Repulsion Energy =             51.0338855750933362
    One-Electron Energy =                -840.6541955936114618
    Two-Electron Energy =                 265.1548423244739183
    DFT Exchange-Correlation Energy =     -11.0318196880094312
    Empirical Dispersion Energy =          -0.0010996500000000
    VV10 Nonlocal Energy =                  0.0000000000000000
    Total Energy =                       -535.4983870320537562

Computation Completed


Properties will be evaluated at   0.000000,   0.000000,   0.000000 [a0]

Properties computed using the SCF density matrix

  Nuclear Dipole Moment: [e a0]
     X:    -2.0331      Y:    -0.1925      Z:     0.0000

  Electronic Dipole Moment: [e a0]
     X:     1.6941      Y:    -0.3344      Z:     0.0000

  Dipole Moment: [e a0]
     X:    -0.3390      Y:    -0.5269      Z:     0.0000     Total:     0.6266

  Dipole Moment: [D]
     X:    -0.8617      Y:    -1.3394      Z:     0.0000     Total:     1.5926


*** tstop() called on bp1-compute00148.data.bp.acrc.priv at Mon Apr 19 15:45:58 2021
Module time:
	user time   =      54.37 seconds =       0.91 minutes
	system time =       1.91 seconds =       0.03 minutes
	total time  =          2 seconds =       0.03 minutes
Total time:
	user time   =     191.30 seconds =       3.19 minutes
	system time =       8.62 seconds =       0.14 minutes
	total time  =          9 seconds =       0.15 minutes

*** tstart() called on bp1-compute00148.data.bp.acrc.priv
*** at Mon Apr 19 15:45:58 2021

   => Loading Basis Set <=

    Name: (AUG-CC-PV(Q+D)Z AUX)
    Role: RIFIT
    Keyword: DF_BASIS_MP2
    atoms 1 entry O          line   332 file /work/zw18965/.conda/envs/p4env/share/psi4/basis/aug-cc-pvqz-ri.gbs 
    atoms 2 entry CL         line   914 file /work/zw18965/.conda/envs/p4env/share/psi4/basis/aug-cc-pvqz-ri.gbs 
    atoms 3 entry H          line    30 file /work/zw18965/.conda/envs/p4env/share/psi4/basis/aug-cc-pvqz-ri.gbs 

	 --------------------------------------------------------
	                          DF-MP2                         
	      2nd-Order Density-Fitted Moller-Plesset Theory     
	              RMP2 Wavefunction,  24 Threads             
	                                                         
	        Rob Parrish, Justin Turney, Andy Simmonett,      
	           Ed Hohenstein, and C. David Sherrill          
	 --------------------------------------------------------

   => Auxiliary Basis Set <=

  Basis Set: (AUG-CC-PV(Q+D)Z AUX)
    Blend: AUG-CC-PVQZ-RI
    Number of shells: 100
    Number of basis function: 442
    Number of Cartesian functions: 610
    Spherical Harmonics?: true
    Max angular momentum: 5

	 --------------------------------------------------------
	                 NBF =   215, NAUX =   442
	 --------------------------------------------------------
	   CLASS    FOCC     OCC    AOCC    AVIR     VIR    FVIR
	   PAIRS       0      13      13     202     202       0
	 --------------------------------------------------------

	-----------------------------------------------------------
	 ==================> DF-MP2 Energies <==================== 
	-----------------------------------------------------------
	 Reference Energy          =    -535.4983870320536425 [Eh]
	 Singles Energy            =      -0.0000000000000000 [Eh]
	 Same-Spin Energy          =      -0.1799363193815959 [Eh]
	 Opposite-Spin Energy      =      -0.5322655812428227 [Eh]
	 Correlation Energy        =      -0.7122019006244187 [Eh]
	 Total Energy              =    -536.2105889326780925 [Eh]
	-----------------------------------------------------------
	 ================> DF-SCS-MP2 Energies <================== 
	-----------------------------------------------------------
	 SCS Same-Spin Scale       =       0.4000000000000000 [-]
	 SCS Opposite-Spin Scale   =       0.4700000000000000 [-]
	 SCS Same-Spin Energy      =      -0.0719745277526384 [Eh]
	 SCS Opposite-Spin Energy  =      -0.2501648231841267 [Eh]
	 SCS Correlation Energy    =      -0.3221393509367650 [Eh]
	 SCS Total Energy          =    -535.8205263829903515 [Eh]
	-----------------------------------------------------------



    DSD-BLYP-D3BJ Energy Summary
    ----------------------------
    DFT Reference Energy                  =  -535.4983870320536425
    Scaled MP2 Correlation                =    -0.3221393509367650
    @Final double-hybrid DFT total energy =  -535.8205263829903515


*** tstop() called on bp1-compute00148.data.bp.acrc.priv at Mon Apr 19 15:45:59 2021
Module time:
	user time   =      12.47 seconds =       0.21 minutes
	system time =       0.49 seconds =       0.01 minutes
	total time  =          1 seconds =       0.02 minutes
Total time:
	user time   =     203.78 seconds =       3.40 minutes
	system time =       9.11 seconds =       0.15 minutes
	total time  =         10 seconds =       0.17 minutes

  //>>>>>>>>>>>>>>>>>>>>>>>>>>>>>>>>>>>//
  //    Loading displacement 4 of 7    //
  //<<<<<<<<<<<<<<<<<<<<<<<<<<<<<<<<<<<//

*** tstart() called on bp1-compute00148.data.bp.acrc.priv
*** at Mon Apr 19 15:45:59 2021

   => Loading Basis Set <=

    Name: AUG-CC-PV(Q+D)Z
    Role: ORBITAL
    Keyword: BASIS
    atoms 1 entry O          line   439 file /work/zw18965/.conda/envs/p4env/share/psi4/basis/aug-cc-pv_qpd_z.gbs 
    atoms 2 entry CL         line  1246 file /work/zw18965/.conda/envs/p4env/share/psi4/basis/aug-cc-pv_qpd_z.gbs 
    atoms 3 entry H          line    56 file /work/zw18965/.conda/envs/p4env/share/psi4/basis/aug-cc-pv_qpd_z.gbs 


         ---------------------------------------------------------
                                   SCF
               by Justin Turney, Rob Parrish, Andy Simmonett
                          and Daniel G. A. Smith
                              RKS Reference
                       24 Threads, 137329 MiB Core
         ---------------------------------------------------------

  ==> Geometry <==

    Molecular point group: cs
    Full point group: Cs

    Geometry (in Angstrom), charge = 0, multiplicity = 1:

       Center              X                  Y                   Z               Mass       
    ------------   -----------------  -----------------  -----------------  -----------------
         O           -1.061963323165     0.396394781212     0.000000000000    15.994914619570
         CL           0.533097489350    -0.170614118952     0.000000000000    34.968852682000
         H           -1.642938837719    -0.371215913532     0.000000000000     1.007825032230

  Running in cs symmetry.

  Rotational constants: A =     21.62197  B =      0.50191  C =      0.49052 [cm^-1]
  Rotational constants: A = 648210.47213  B =  15046.77557  C =  14705.42166 [MHz]
  Nuclear repulsion =   51.027344221056104

  Charge       = 0
  Multiplicity = 1
  Electrons    = 26
  Nalpha       = 13
  Nbeta        = 13

  ==> Algorithm <==

  SCF Algorithm Type is DF.
  DIIS enabled.
  MOM disabled.
  Fractional occupation disabled.
  Guess Type is SAD.
  Energy threshold   = 1.00e-08
  Density threshold  = 1.00e-08
  Integral threshold = 0.00e+00

  ==> Primary Basis <==

  Basis Set: AUG-CC-PV(Q+D)Z
    Blend: AUG-CC-PV(Q+D)Z
    Number of shells: 57
    Number of basis function: 215
    Number of Cartesian functions: 275
    Spherical Harmonics?: true
    Max angular momentum: 4

  ==> DFT Potential <==

   => Composite Functional: DSD-BLYP-D3BJ <= 

    DSD-BLYP-D3BJ Dispersion-corrected SCS Double Hybrid XC Functional

    S. Kozuch, J.M.L. Martin, J. Comp. Chem., 34, 2327-2344, 2013


    Deriv               =              1
    GGA                 =           TRUE
    Meta                =          FALSE

    Exchange Hybrid     =           TRUE
    MP2 Hybrid          =           TRUE

   => Exchange Functionals <=

    0.2900     XC_GGA_X_B88

   => Exact (HF) Exchange <=

    0.7100               HF 

   => Correlation Functionals <=

    0.5400     XC_GGA_C_LYP

   => MP2 Correlation <=

    MP2 SCS Hybrid      =           TRUE
    MP2 OS Alpha        =       0.470000
    MP2 SS Alpha        =       0.400000

   => Molecular Quadrature <=

    Radial Scheme          =       TREUTLER
    Pruning Scheme         =           FLAT
    Nuclear Scheme         =       TREUTLER

    BS radius alpha        =              1
    Pruning alpha          =              1
    Radial Points          =             75
    Spherical Points       =            302
    Total Points           =          67950
    Total Blocks           =            575
    Max Points             =            256
    Max Functions          =            215

   => DSD-BLYP-D3BJ: Empirical Dispersion <=

    Grimme's -D3 (BJ-damping) Dispersion Correction
    Grimme S.; Ehrlich S.; Goerigk L. (2011), J. Comput. Chem., 32: 1456
    Parametrisation from:    S. Kozuch, J.M.L. Martin, J. Comp. Chem., 34, 2327-2344, 2013

        s6 =       0.570000
        s8 =       0.000000
        a1 =       0.000000
        a2 =       5.400000

   => Loading Basis Set <=

    Name: (AUG-CC-PV(Q+D)Z AUX)
    Role: JKFIT
    Keyword: DF_BASIS_SCF
    atoms 1 entry O          line   318 file /work/zw18965/.conda/envs/p4env/share/psi4/basis/aug-cc-pvqz-jkfit.gbs 
    atoms 2 entry CL         line   904 file /work/zw18965/.conda/envs/p4env/share/psi4/basis/aug-cc-pvqz-jkfit.gbs 
    atoms 3 entry H          line    70 file /work/zw18965/.conda/envs/p4env/share/psi4/basis/aug-cc-pvqz-jkfit.gbs 

  ==> Pre-Iterations <==

   -------------------------------------------------------
    Irrep   Nso     Nmo     Nalpha   Nbeta   Ndocc  Nsocc
   -------------------------------------------------------
     A'       136     136       0       0       0       0
     A"        79      79       0       0       0       0
   -------------------------------------------------------
    Total     215     215      13      13      13       0
   -------------------------------------------------------

  ==> Integral Setup <==

  DFHelper Memory: AOs need 0.159 GiB; user supplied 100.213 GiB. Using in-core AOs.

  ==> MemDFJK: Density-Fitted J/K Matrices <==

    J tasked:                   Yes
    K tasked:                   Yes
    wK tasked:                   No
    OpenMP threads:              24
    Memory [MiB]:            102617
    Algorithm:                 Core
    Schwarz Cutoff:           1E-12
    Mask sparsity (%):       0.0130
    Fitting Condition:        1E-10

   => Auxiliary Basis Set <=

  Basis Set: (AUG-CC-PV(Q+D)Z AUX)
    Blend: AUG-CC-PVQZ-JKFIT
    Number of shells: 98
    Number of basis function: 402
    Number of Cartesian functions: 546
    Spherical Harmonics?: true
    Max angular momentum: 5

  Cached 100.0% of DFT collocation blocks in 0.370 [GiB].

  Minimum eigenvalue in the overlap matrix is 7.8050823633E-05.
  Using Symmetric Orthogonalization.

  SCF Guess: Superposition of Atomic Densities via on-the-fly atomic UHF.

  ==> Iterations <==

                           Total Energy        Delta E     RMS |[F,P]|

   @DF-RKS iter SAD:  -535.08357022130065   -5.35084e+02   0.00000e+00 
   @DF-RKS iter   1:  -535.44393213001899   -3.60362e-01   2.48948e-03 DIIS
   @DF-RKS iter   2:  -535.45405918587358   -1.01271e-02   2.29662e-03 DIIS
   @DF-RKS iter   3:  -535.49752964369816   -4.34705e-02   3.01051e-04 DIIS
   @DF-RKS iter   4:  -535.49835637578303   -8.26732e-04   5.97430e-05 DIIS
   @DF-RKS iter   5:  -535.49840989253801   -5.35168e-05   1.25433e-05 DIIS
   @DF-RKS iter   6:  -535.49841324437023   -3.35183e-06   3.68346e-06 DIIS
   @DF-RKS iter   7:  -535.49841385897867   -6.14608e-07   1.43436e-06 DIIS
   @DF-RKS iter   8:  -535.49841397801936   -1.19041e-07   5.45077e-07 DIIS
   @DF-RKS iter   9:  -535.49841399423337   -1.62140e-08   1.31504e-07 DIIS
   @DF-RKS iter  10:  -535.49841399490924   -6.75868e-10   2.89383e-08 DIIS
   @DF-RKS iter  11:  -535.49841399492584   -1.65983e-11   8.74933e-09 DIIS
  Energy and wave function converged.


  ==> Post-Iterations <==

    Orbital Energies [Eh]
    ---------------------

    Doubly Occupied:                                                      

       1Ap  -103.718172     2Ap   -20.125525     3Ap   -10.216895  
       4Ap    -7.793040     5Ap    -7.785872     1App   -7.785663  
       6Ap    -1.292217     7Ap    -0.975105     8Ap    -0.659408  
       9Ap    -0.551605     2App   -0.544895    10Ap    -0.419389  
       3App   -0.393158  

    Virtual:                                                              

      11Ap     0.002673    12Ap     0.024096    13Ap     0.075301  
       4App    0.081545    14Ap     0.090023    15Ap     0.111281  
      16Ap     0.118753    17Ap     0.128530     5App    0.139748  
      18Ap     0.174837     6App    0.179408    19Ap     0.230272  
      20Ap     0.240491     7App    0.265737    21Ap     0.286573  
       8App    0.288818    22Ap     0.296125    23Ap     0.317790  
      24Ap     0.319632     9App    0.409373    25Ap     0.422264  
      26Ap     0.469760    27Ap     0.488713    10App    0.489069  
      28Ap     0.496333    11App    0.521475    29Ap     0.526621  
      30Ap     0.588524    12App    0.588783    13App    0.613740  
      31Ap     0.613904    14App    0.628919    32Ap     0.634861  
      33Ap     0.665505    34Ap     0.698453    35Ap     0.702964  
      15App    0.706522    36Ap     0.727002    16App    0.769865  
      37Ap     0.785875    38Ap     0.836489    17App    0.840296  
      39Ap     0.911617    40Ap     0.941434    41Ap     0.973632  
      18App    0.982867    19App    0.998332    42Ap     1.012475  
      20App    1.109681    43Ap     1.145473    44Ap     1.208644  
      45Ap     1.272366    46Ap     1.411591    21App    1.422955  
      47Ap     1.435025    22App    1.446707    48Ap     1.470881  
      23App    1.484395    49Ap     1.519987    50Ap     1.522890  
      51Ap     1.535811    24App    1.547319    25App    1.560248  
      52Ap     1.579142    26App    1.594195    53Ap     1.631142  
      27App    1.643277    54Ap     1.666561    55Ap     1.686955  
      28App    1.710757    56Ap     1.795488    57Ap     1.812317  
      29App    1.826124    58Ap     1.831514    59Ap     1.853616  
      30App    1.897920    31App    1.922806    60Ap     1.923493  
      61Ap     1.971356    32App    1.980101    62Ap     2.001355  
      33App    2.010961    34App    2.070310    63Ap     2.081595  
      64Ap     2.111998    35App    2.129360    65Ap     2.129830  
      36App    2.197992    66Ap     2.210145    67Ap     2.275010  
      68Ap     2.300366    69Ap     2.365109    37App    2.369435  
      38App    2.394656    70Ap     2.493199    71Ap     2.575369  
      72Ap     2.691537    73Ap     2.825493    39App    2.908754  
      40App    3.021311    74Ap     3.028513    41App    3.072277  
      75Ap     3.084756    76Ap     3.284551    77Ap     3.422297  
      78Ap     3.560985    42App    3.582123    79Ap     3.587265  
      43App    3.589016    80Ap     3.681524    44App    3.690154  
      81Ap     3.737342    82Ap     3.864194    45App    3.923285  
      83Ap     3.938556    46App    3.970459    84Ap     3.998819  
      47App    4.050852    85Ap     4.079420    86Ap     4.148141  
      48App    4.155489    49App    4.222327    87Ap     4.233583  
      88Ap     4.339378    89Ap     4.413244    90Ap     4.455157  
      50App    4.505799    51App    4.545971    91Ap     4.551342  
      52App    4.553517    92Ap     4.575252    93Ap     4.584883  
      53App    4.594378    94Ap     4.604309    54App    4.628119  
      95Ap     4.694890    55App    4.737319    96Ap     4.739743  
      56App    4.876469    97Ap     4.881107    57App    4.968414  
      98Ap     5.001474    58App    5.012860    99Ap     5.092375  
     100Ap     5.185935   101Ap     5.226727    59App    5.471887  
     102Ap     5.489224    60App    5.733763   103Ap     5.771822  
     104Ap     5.875734   105Ap     6.096898    61App    6.148924  
     106Ap     6.363702    62App    6.745058   107Ap     6.793858  
     108Ap     7.542002    63App    7.640027    64App    7.727397  
     109Ap     7.728465   110Ap     7.850644   111Ap     8.041130  
     112Ap     8.453330    65App    8.553211    66App    8.649845  
     113Ap     8.724131   114Ap     8.991243   115Ap     9.674595  
      67App    9.737996   116Ap     9.934908   117Ap    10.607942  
      68App   10.651718   118Ap    10.684200    69App   10.737474  
     119Ap    10.748824    70App   10.786117    71App   11.121939  
     120Ap    11.143543   121Ap    11.171383    72App   11.184022  
     122Ap    11.286252    73App   11.333240    74App   11.402713  
     123Ap    11.431779   124Ap    11.551772   125Ap    11.681053  
      75App   11.836552   126Ap    11.893577   127Ap    12.001702  
      76App   12.100869   128Ap    12.127508    77App   12.565081  
     129Ap    12.638887   130Ap    12.746178    78App   13.032782  
     131Ap    13.143542    79App   14.361579   132Ap    14.383164  
     133Ap    14.423585   134Ap    16.769255   135Ap    24.867259  
     136Ap    43.589132  

    Final Occupation by Irrep:
             Ap   App 
    DOCC [    10,    3 ]

  @DF-RKS Final Energy:  -535.49841399492584

   => Energetics <=

    Nuclear Repulsion Energy =             51.0273442210561043
    One-Electron Energy =                -840.6377574654679847
    Two-Electron Energy =                 265.1451642384576530
    DFT Exchange-Correlation Energy =     -11.0320654189716052
    Empirical Dispersion Energy =          -0.0010995700000000
    VV10 Nonlocal Energy =                  0.0000000000000000
    Total Energy =                       -535.4984139949258406

Computation Completed


Properties will be evaluated at   0.000000,   0.000000,   0.000000 [a0]

Properties computed using the SCF density matrix

  Nuclear Dipole Moment: [e a0]
     X:    -2.0333      Y:    -0.1899      Z:     0.0000

  Electronic Dipole Moment: [e a0]
     X:     1.6955      Y:    -0.3360      Z:     0.0000

  Dipole Moment: [e a0]
     X:    -0.3378      Y:    -0.5259      Z:     0.0000     Total:     0.6251

  Dipole Moment: [D]
     X:    -0.8586      Y:    -1.3368      Z:     0.0000     Total:     1.5888


*** tstop() called on bp1-compute00148.data.bp.acrc.priv at Mon Apr 19 15:46:01 2021
Module time:
	user time   =      54.76 seconds =       0.91 minutes
	system time =       2.05 seconds =       0.03 minutes
	total time  =          2 seconds =       0.03 minutes
Total time:
	user time   =     258.69 seconds =       4.31 minutes
	system time =      11.17 seconds =       0.19 minutes
	total time  =         12 seconds =       0.20 minutes

*** tstart() called on bp1-compute00148.data.bp.acrc.priv
*** at Mon Apr 19 15:46:01 2021

   => Loading Basis Set <=

    Name: (AUG-CC-PV(Q+D)Z AUX)
    Role: RIFIT
    Keyword: DF_BASIS_MP2
    atoms 1 entry O          line   332 file /work/zw18965/.conda/envs/p4env/share/psi4/basis/aug-cc-pvqz-ri.gbs 
    atoms 2 entry CL         line   914 file /work/zw18965/.conda/envs/p4env/share/psi4/basis/aug-cc-pvqz-ri.gbs 
    atoms 3 entry H          line    30 file /work/zw18965/.conda/envs/p4env/share/psi4/basis/aug-cc-pvqz-ri.gbs 

	 --------------------------------------------------------
	                          DF-MP2                         
	      2nd-Order Density-Fitted Moller-Plesset Theory     
	              RMP2 Wavefunction,  24 Threads             
	                                                         
	        Rob Parrish, Justin Turney, Andy Simmonett,      
	           Ed Hohenstein, and C. David Sherrill          
	 --------------------------------------------------------

   => Auxiliary Basis Set <=

  Basis Set: (AUG-CC-PV(Q+D)Z AUX)
    Blend: AUG-CC-PVQZ-RI
    Number of shells: 100
    Number of basis function: 442
    Number of Cartesian functions: 610
    Spherical Harmonics?: true
    Max angular momentum: 5

	 --------------------------------------------------------
	                 NBF =   215, NAUX =   442
	 --------------------------------------------------------
	   CLASS    FOCC     OCC    AOCC    AVIR     VIR    FVIR
	   PAIRS       0      13      13     202     202       0
	 --------------------------------------------------------

	-----------------------------------------------------------
	 ==================> DF-MP2 Energies <==================== 
	-----------------------------------------------------------
	 Reference Energy          =    -535.4984139949258406 [Eh]
	 Singles Energy            =      -0.0000000000000000 [Eh]
	 Same-Spin Energy          =      -0.1798951646297891 [Eh]
	 Opposite-Spin Energy      =      -0.5321884216277573 [Eh]
	 Correlation Energy        =      -0.7120835862575463 [Eh]
	 Total Energy              =    -536.2104975811834038 [Eh]
	-----------------------------------------------------------
	 ================> DF-SCS-MP2 Energies <================== 
	-----------------------------------------------------------
	 SCS Same-Spin Scale       =       0.4000000000000000 [-]
	 SCS Opposite-Spin Scale   =       0.4700000000000000 [-]
	 SCS Same-Spin Energy      =      -0.0719580658519157 [Eh]
	 SCS Opposite-Spin Energy  =      -0.2501285581650459 [Eh]
	 SCS Correlation Energy    =      -0.3220866240169616 [Eh]
	 SCS Total Energy          =    -535.8205006189427877 [Eh]
	-----------------------------------------------------------



    DSD-BLYP-D3BJ Energy Summary
    ----------------------------
    DFT Reference Energy                  =  -535.4984139949258406
    Scaled MP2 Correlation                =    -0.3220866240169616
    @Final double-hybrid DFT total energy =  -535.8205006189427877


*** tstop() called on bp1-compute00148.data.bp.acrc.priv at Mon Apr 19 15:46:02 2021
Module time:
	user time   =      12.40 seconds =       0.21 minutes
	system time =       0.49 seconds =       0.01 minutes
	total time  =          1 seconds =       0.02 minutes
Total time:
	user time   =     271.10 seconds =       4.52 minutes
	system time =      11.66 seconds =       0.19 minutes
	total time  =         13 seconds =       0.22 minutes

  //>>>>>>>>>>>>>>>>>>>>>>>>>>>>>>>>>>>//
  //    Loading displacement 5 of 7    //
  //<<<<<<<<<<<<<<<<<<<<<<<<<<<<<<<<<<<//

*** tstart() called on bp1-compute00148.data.bp.acrc.priv
*** at Mon Apr 19 15:46:02 2021

   => Loading Basis Set <=

    Name: AUG-CC-PV(Q+D)Z
    Role: ORBITAL
    Keyword: BASIS
    atoms 1 entry O          line   439 file /work/zw18965/.conda/envs/p4env/share/psi4/basis/aug-cc-pv_qpd_z.gbs 
    atoms 2 entry CL         line  1246 file /work/zw18965/.conda/envs/p4env/share/psi4/basis/aug-cc-pv_qpd_z.gbs 
    atoms 3 entry H          line    56 file /work/zw18965/.conda/envs/p4env/share/psi4/basis/aug-cc-pv_qpd_z.gbs 


         ---------------------------------------------------------
                                   SCF
               by Justin Turney, Rob Parrish, Andy Simmonett
                          and Daniel G. A. Smith
                              RKS Reference
                       24 Threads, 137329 MiB Core
         ---------------------------------------------------------

  ==> Geometry <==

    Molecular point group: cs
    Full point group: Cs

    Geometry (in Angstrom), charge = 0, multiplicity = 1:

       Center              X                  Y                   Z               Mass       
    ------------   -----------------  -----------------  -----------------  -----------------
         O           -1.061963323165     0.396824257071     0.000000000000    15.994914619570
         CL           0.533084675033    -0.170667748511     0.000000000000    34.968852682000
         H           -1.642494214960    -0.376171203787     0.000000000000     1.007825032230

  Running in cs symmetry.

  Rotational constants: A =     21.38388  B =      0.50192  C =      0.49041 [cm^-1]
  Rotational constants: A = 641072.58836  B =  15047.13816  C =  14702.05424 [MHz]
  Nuclear repulsion =   51.005241134969047

  Charge       = 0
  Multiplicity = 1
  Electrons    = 26
  Nalpha       = 13
  Nbeta        = 13

  ==> Algorithm <==

  SCF Algorithm Type is DF.
  DIIS enabled.
  MOM disabled.
  Fractional occupation disabled.
  Guess Type is SAD.
  Energy threshold   = 1.00e-08
  Density threshold  = 1.00e-08
  Integral threshold = 0.00e+00

  ==> Primary Basis <==

  Basis Set: AUG-CC-PV(Q+D)Z
    Blend: AUG-CC-PV(Q+D)Z
    Number of shells: 57
    Number of basis function: 215
    Number of Cartesian functions: 275
    Spherical Harmonics?: true
    Max angular momentum: 4

  ==> DFT Potential <==

   => Composite Functional: DSD-BLYP-D3BJ <= 

    DSD-BLYP-D3BJ Dispersion-corrected SCS Double Hybrid XC Functional

    S. Kozuch, J.M.L. Martin, J. Comp. Chem., 34, 2327-2344, 2013


    Deriv               =              1
    GGA                 =           TRUE
    Meta                =          FALSE

    Exchange Hybrid     =           TRUE
    MP2 Hybrid          =           TRUE

   => Exchange Functionals <=

    0.2900     XC_GGA_X_B88

   => Exact (HF) Exchange <=

    0.7100               HF 

   => Correlation Functionals <=

    0.5400     XC_GGA_C_LYP

   => MP2 Correlation <=

    MP2 SCS Hybrid      =           TRUE
    MP2 OS Alpha        =       0.470000
    MP2 SS Alpha        =       0.400000

   => Molecular Quadrature <=

    Radial Scheme          =       TREUTLER
    Pruning Scheme         =           FLAT
    Nuclear Scheme         =       TREUTLER

    BS radius alpha        =              1
    Pruning alpha          =              1
    Radial Points          =             75
    Spherical Points       =            302
    Total Points           =          67950
    Total Blocks           =            576
    Max Points             =            256
    Max Functions          =            215

   => DSD-BLYP-D3BJ: Empirical Dispersion <=

    Grimme's -D3 (BJ-damping) Dispersion Correction
    Grimme S.; Ehrlich S.; Goerigk L. (2011), J. Comput. Chem., 32: 1456
    Parametrisation from:    S. Kozuch, J.M.L. Martin, J. Comp. Chem., 34, 2327-2344, 2013

        s6 =       0.570000
        s8 =       0.000000
        a1 =       0.000000
        a2 =       5.400000

   => Loading Basis Set <=

    Name: (AUG-CC-PV(Q+D)Z AUX)
    Role: JKFIT
    Keyword: DF_BASIS_SCF
    atoms 1 entry O          line   318 file /work/zw18965/.conda/envs/p4env/share/psi4/basis/aug-cc-pvqz-jkfit.gbs 
    atoms 2 entry CL         line   904 file /work/zw18965/.conda/envs/p4env/share/psi4/basis/aug-cc-pvqz-jkfit.gbs 
    atoms 3 entry H          line    70 file /work/zw18965/.conda/envs/p4env/share/psi4/basis/aug-cc-pvqz-jkfit.gbs 

  ==> Pre-Iterations <==

   -------------------------------------------------------
    Irrep   Nso     Nmo     Nalpha   Nbeta   Ndocc  Nsocc
   -------------------------------------------------------
     A'       136     136       0       0       0       0
     A"        79      79       0       0       0       0
   -------------------------------------------------------
    Total     215     215      13      13      13       0
   -------------------------------------------------------

  ==> Integral Setup <==

  DFHelper Memory: AOs need 0.159 GiB; user supplied 100.213 GiB. Using in-core AOs.

  ==> MemDFJK: Density-Fitted J/K Matrices <==

    J tasked:                   Yes
    K tasked:                   Yes
    wK tasked:                   No
    OpenMP threads:              24
    Memory [MiB]:            102617
    Algorithm:                 Core
    Schwarz Cutoff:           1E-12
    Mask sparsity (%):       0.0130
    Fitting Condition:        1E-10

   => Auxiliary Basis Set <=

  Basis Set: (AUG-CC-PV(Q+D)Z AUX)
    Blend: AUG-CC-PVQZ-JKFIT
    Number of shells: 98
    Number of basis function: 402
    Number of Cartesian functions: 546
    Spherical Harmonics?: true
    Max angular momentum: 5

  Cached 100.0% of DFT collocation blocks in 0.370 [GiB].

  Minimum eigenvalue in the overlap matrix is 7.9092440995E-05.
  Using Symmetric Orthogonalization.

  SCF Guess: Superposition of Atomic Densities via on-the-fly atomic UHF.

  ==> Iterations <==

                           Total Energy        Delta E     RMS |[F,P]|

   @DF-RKS iter SAD:  -535.08167732054267   -5.35082e+02   0.00000e+00 
   @DF-RKS iter   1:  -535.44398173650541   -3.62304e-01   2.48404e-03 DIIS
   @DF-RKS iter   2:  -535.45404982809293   -1.00681e-02   2.29407e-03 DIIS
   @DF-RKS iter   3:  -535.49744224855795   -4.33924e-02   3.01599e-04 DIIS
   @DF-RKS iter   4:  -535.49827173592985   -8.29487e-04   5.98155e-05 DIIS
   @DF-RKS iter   5:  -535.49832533629854   -5.36004e-05   1.25156e-05 DIIS
   @DF-RKS iter   6:  -535.49832864689847   -3.31060e-06   3.63980e-06 DIIS
   @DF-RKS iter   7:  -535.49832924364159   -5.96743e-07   1.41319e-06 DIIS
   @DF-RKS iter   8:  -535.49832935923109   -1.15590e-07   5.42834e-07 DIIS
   @DF-RKS iter   9:  -535.49832937539895   -1.61679e-08   1.32214e-07 DIIS
   @DF-RKS iter  10:  -535.49832937608448   -6.85532e-10   2.89546e-08 DIIS
   @DF-RKS iter  11:  -535.49832937609972   -1.52340e-11   8.66176e-09 DIIS
  Energy and wave function converged.


  ==> Post-Iterations <==

    Orbital Energies [Eh]
    ---------------------

    Doubly Occupied:                                                      

       1Ap  -103.718014     2Ap   -20.125980     3Ap   -10.216751  
       4Ap    -7.792893     5Ap    -7.785730     1App   -7.785521  
       6Ap    -1.291476     7Ap    -0.974581     8Ap    -0.658517  
       9Ap    -0.551573     2App   -0.544803    10Ap    -0.419289  
       3App   -0.393077  

    Virtual:                                                              

      11Ap     0.002578    12Ap     0.024111    13Ap     0.075277  
       4App    0.081549    14Ap     0.090060    15Ap     0.111175  
      16Ap     0.118571    17Ap     0.128542     5App    0.139818  
      18Ap     0.174660     6App    0.179246    19Ap     0.230187  
      20Ap     0.240557     7App    0.265790    21Ap     0.286569  
       8App    0.288777    22Ap     0.295665    23Ap     0.317378  
      24Ap     0.319659     9App    0.409448    25Ap     0.421954  
      26Ap     0.469975    27Ap     0.488651    10App    0.488759  
      28Ap     0.496198    11App    0.521575    29Ap     0.526664  
      30Ap     0.588464    12App    0.588977    13App    0.613646  
      31Ap     0.613735    14App    0.629118    32Ap     0.634652  
      33Ap     0.665738    34Ap     0.698488    35Ap     0.702201  
      15App    0.706631    36Ap     0.726175    16App    0.770111  
      37Ap     0.785932    38Ap     0.836400    17App    0.840085  
      39Ap     0.911513    40Ap     0.941321    41Ap     0.973545  
      18App    0.982894    19App    0.998443    42Ap     1.012299  
      20App    1.108433    43Ap     1.145150    44Ap     1.209005  
[...]

  Basis Set: (AUG-CC-PV(Q+D)Z AUX)
    Blend: AUG-CC-PVQZ-JKFIT
    Number of shells: 98
    Number of basis function: 402
    Number of Cartesian functions: 546
    Spherical Harmonics?: true
    Max angular momentum: 5

  Cached 100.0% of DFT collocation blocks in 0.371 [GiB].

  Minimum eigenvalue in the overlap matrix is 7.8211182729E-05.
  Using Symmetric Orthogonalization.

  SCF Guess: Superposition of Atomic Densities via on-the-fly atomic UHF.

  ==> Iterations <==

                           Total Energy        Delta E     RMS |[F,P]|

   @DF-RKS iter SAD:  -535.10827525921457   -5.35108e+02   0.00000e+00 
   @DF-RKS iter   1:  -535.44487200189928   -3.36597e-01   2.48454e-03 DIIS
   @DF-RKS iter   2:  -535.45547466910045   -1.06027e-02   2.28076e-03 DIIS
   @DF-RKS iter   3:  -535.49825716540761   -4.27825e-02   2.99907e-04 DIIS
   @DF-RKS iter   4:  -535.49906713192911   -8.09967e-04   5.85883e-05 DIIS
   @DF-RKS iter   5:  -535.49911765174659   -5.05198e-05   1.20058e-05 DIIS
   @DF-RKS iter   6:  -535.49912030774715   -2.65600e-06   3.13687e-06 DIIS
   @DF-RKS iter   7:  -535.49912070464461   -3.96897e-07   1.18965e-06 DIIS
   @DF-RKS iter   8:  -535.49912077980173   -7.51571e-08   4.81180e-07 DIIS
   @DF-RKS iter   9:  -535.49912079341607   -1.36143e-08   1.27213e-07 DIIS
   @DF-RKS iter  10:  -535.49912079408375   -6.67683e-10   2.71134e-08 DIIS
   @DF-RKS iter  11:  -535.49912079409648   -1.27329e-11   7.34515e-09 DIIS
   @DF-RKS iter  12:  -535.49912079409899   -2.50111e-12   1.04387e-09 DIIS
   @DF-RKS iter  13:  -535.49912079409785    1.13687e-12   4.23232e-10 DIIS
   @DF-RKS iter  14:  -535.49912079409853   -6.82121e-13   7.11104e-11 DIIS
  Energy and wave function converged.


  ==> Post-Iterations <==

    Orbital Energies [Eh]
    ---------------------

    Doubly Occupied:                                                      

       1Ap  -103.717006     2Ap   -20.126910     3Ap   -10.216074  
       4Ap    -7.792202     5Ap    -7.785066     1App   -7.784851  
       6Ap    -1.299180     7Ap    -0.973374     8Ap    -0.661361  
       9Ap    -0.556403     2App   -0.548086    10Ap    -0.419664  
       3App   -0.392413  

    Virtual:                                                              

      11Ap     0.004402    12Ap     0.025108    13Ap     0.074863  
       4App    0.081275    14Ap     0.091027    15Ap     0.112293  
      16Ap     0.118315    17Ap     0.128680     5App    0.140069  
      18Ap     0.173551     6App    0.178223    19Ap     0.232325  
      20Ap     0.241320     7App    0.267792    21Ap     0.286146  
       8App    0.288328    22Ap     0.294769    23Ap     0.319088  
      24Ap     0.321179     9App    0.409229    25Ap     0.417832  
      26Ap     0.469638    10App    0.485922    27Ap     0.489028  
      28Ap     0.497792    11App    0.522799    29Ap     0.529960  
      12App    0.586774    30Ap     0.587801    31Ap     0.612601  
      13App    0.614107    14App    0.632374    32Ap     0.635627  
      33Ap     0.669902    34Ap     0.701015    35Ap     0.706053  
      15App    0.708192    36Ap     0.727317    16App    0.771277  
      37Ap     0.789400    38Ap     0.834912    17App    0.840383  
      39Ap     0.909909    40Ap     0.949660    41Ap     0.969875  
      18App    0.985468    19App    0.998308    42Ap     1.008011  
      20App    1.107958    43Ap     1.147343    44Ap     1.215019  
      45Ap     1.272058    46Ap     1.409954    21App    1.425807  
      47Ap     1.436328    22App    1.447098    48Ap     1.471605  
      23App    1.491794    49Ap     1.514918    50Ap     1.525050  
      51Ap     1.535043    24App    1.550611    25App    1.559915  
      52Ap     1.578077    26App    1.590094    53Ap     1.632729  
      27App    1.643223    54Ap     1.672273    55Ap     1.695366  
      28App    1.701963    56Ap     1.785766    57Ap     1.813137  
      29App    1.829973    58Ap     1.833166    59Ap     1.855150  
      30App    1.920758    31App    1.929373    60Ap     1.941083  
      32App    1.988491    61Ap     1.988593    62Ap     2.006263  
      33App    2.019475    34App    2.067180    63Ap     2.079275  
      64Ap     2.113431    65Ap     2.133675    35App    2.138069  
      36App    2.196246    66Ap     2.205990    67Ap     2.263854  
      68Ap     2.299283    37App    2.361528    69Ap     2.376227  
      38App    2.406569    70Ap     2.521027    71Ap     2.583917  
      72Ap     2.682487    73Ap     2.824186    39App    2.929513  
      40App    3.014502    74Ap     3.033203    41App    3.055130  
      75Ap     3.083128    76Ap     3.330862    77Ap     3.430294  
      78Ap     3.559560    42App    3.582446    79Ap     3.584103  
      43App    3.592299    80Ap     3.673144    44App    3.690907  
      81Ap     3.747007    82Ap     3.871351    45App    3.926201  
      83Ap     3.942663    46App    3.973655    84Ap     3.995926  
      47App    4.049403    85Ap     4.076761    86Ap     4.147963  
      48App    4.166728    49App    4.240933    87Ap     4.247140  
      88Ap     4.345703    89Ap     4.423924    90Ap     4.436630  
      50App    4.501940    51App    4.547715    91Ap     4.551838  
      52App    4.561706    92Ap     4.579185    93Ap     4.593223  
      53App    4.596790    94Ap     4.614046    54App    4.627077  
      95Ap     4.696206    55App    4.741204    96Ap     4.768046  
      56App    4.872133    97Ap     4.902944    57App    4.965784  
      98Ap     4.989240    58App    5.035575    99Ap     5.102497  
     100Ap     5.180015   101Ap     5.200695    59App    5.464084  
     102Ap     5.515959    60App    5.754425   103Ap     5.804240  
     104Ap     5.874092   105Ap     6.117040    61App    6.164661  
     106Ap     6.377503    62App    6.757182   107Ap     6.801818  
     108Ap     7.615348    63App    7.643602    64App    7.729930  
     109Ap     7.735483   110Ap     7.864051   111Ap     8.017987  
     112Ap     8.455898    65App    8.537667    66App    8.639527  
     113Ap     8.743658   114Ap     9.008440   115Ap     9.682947  
      67App    9.750178   116Ap     9.940000   117Ap    10.588020  
      68App   10.663440   118Ap    10.688467    69App   10.743745  
     119Ap    10.746314    70App   10.778773    71App   11.132359  
     120Ap    11.148965   121Ap    11.172915    72App   11.184606  
     122Ap    11.308832    73App   11.337052    74App   11.402633  
     123Ap    11.427814   124Ap    11.545284   125Ap    11.698390  
      75App   11.847053   126Ap    11.892214   127Ap    12.028504  
      76App   12.102532   128Ap    12.180114    77App   12.578409  
     129Ap    12.621467   130Ap    12.778740    78App   13.048311  
     131Ap    13.174815    79App   14.391173   132Ap    14.415097  
     133Ap    14.442218   134Ap    16.794024   135Ap    24.886477  
     136Ap    43.633291  

    Final Occupation by Irrep:
             Ap   App 
    DOCC [    10,    3 ]

  @DF-RKS Final Energy:  -535.49912079409853

   => Energetics <=

    Nuclear Repulsion Energy =             51.4080332822073984
    One-Electron Energy =                -841.3756876163650986
    Two-Electron Energy =                 265.5039920916527194
    DFT Exchange-Correlation Energy =     -11.0343497315935810
    Empirical Dispersion Energy =          -0.0011088200000000
    VV10 Nonlocal Energy =                  0.0000000000000000
    Total Energy =                       -535.4991207940986442

Computation Completed


Properties will be evaluated at   0.000000,   0.000000,   0.000000 [a0]

Properties computed using the SCF density matrix

  Nuclear Dipole Moment: [e a0]
     X:    -1.9742      Y:    -0.1884      Z:     0.0000

  Electronic Dipole Moment: [e a0]
     X:     1.6485      Y:    -0.3425      Z:     0.0000

  Dipole Moment: [e a0]
     X:    -0.3257      Y:    -0.5310      Z:     0.0000     Total:     0.6229

  Dipole Moment: [D]
     X:    -0.8278      Y:    -1.3496      Z:     0.0000     Total:     1.5833


*** tstop() called on bp1-compute00148.data.bp.acrc.priv at Mon Apr 19 15:47:51 2021
Module time:
	user time   =      59.58 seconds =       0.99 minutes
	system time =       1.98 seconds =       0.03 minutes
	total time  =          3 seconds =       0.05 minutes
Total time:
	user time   =    2482.83 seconds =      41.38 minutes
	system time =      96.85 seconds =       1.61 minutes
	total time  =        122 seconds =       2.03 minutes

*** tstart() called on bp1-compute00148.data.bp.acrc.priv
*** at Mon Apr 19 15:47:51 2021

   => Loading Basis Set <=

    Name: (AUG-CC-PV(Q+D)Z AUX)
    Role: RIFIT
    Keyword: DF_BASIS_MP2
    atoms 1 entry O          line   332 file /work/zw18965/.conda/envs/p4env/share/psi4/basis/aug-cc-pvqz-ri.gbs 
    atoms 2 entry CL         line   914 file /work/zw18965/.conda/envs/p4env/share/psi4/basis/aug-cc-pvqz-ri.gbs 
    atoms 3 entry H          line    30 file /work/zw18965/.conda/envs/p4env/share/psi4/basis/aug-cc-pvqz-ri.gbs 

	 --------------------------------------------------------
	                          DF-MP2                         
	      2nd-Order Density-Fitted Moller-Plesset Theory     
	              RMP2 Wavefunction,  24 Threads             
	                                                         
	        Rob Parrish, Justin Turney, Andy Simmonett,      
	           Ed Hohenstein, and C. David Sherrill          
	 --------------------------------------------------------

   => Auxiliary Basis Set <=

  Basis Set: (AUG-CC-PV(Q+D)Z AUX)
    Blend: AUG-CC-PVQZ-RI
    Number of shells: 100
    Number of basis function: 442
    Number of Cartesian functions: 610
    Spherical Harmonics?: true
    Max angular momentum: 5

	 --------------------------------------------------------
	                 NBF =   215, NAUX =   442
	 --------------------------------------------------------
	   CLASS    FOCC     OCC    AOCC    AVIR     VIR    FVIR
	   PAIRS       0      13      13     202     202       0
	 --------------------------------------------------------

	-----------------------------------------------------------
	 ==================> DF-MP2 Energies <==================== 
	-----------------------------------------------------------
	 Reference Energy          =    -535.4991207940985305 [Eh]
	 Singles Energy            =      -0.0000000000000000 [Eh]
	 Same-Spin Energy          =      -0.1800018956419409 [Eh]
	 Opposite-Spin Energy      =      -0.5318599194111273 [Eh]
	 Correlation Energy        =      -0.7118618150530682 [Eh]
	 Total Energy              =    -536.2109826091516425 [Eh]
	-----------------------------------------------------------
	 ================> DF-SCS-MP2 Energies <================== 
	-----------------------------------------------------------
	 SCS Same-Spin Scale       =       0.4000000000000000 [-]
	 SCS Opposite-Spin Scale   =       0.4700000000000000 [-]
	 SCS Same-Spin Energy      =      -0.0720007582567763 [Eh]
	 SCS Opposite-Spin Energy  =      -0.2499741621232298 [Eh]
	 SCS Correlation Energy    =      -0.3219749203800062 [Eh]
	 SCS Total Energy          =    -535.8210957144785880 [Eh]
	-----------------------------------------------------------



    DSD-BLYP-D3BJ Energy Summary
    ----------------------------
    DFT Reference Energy                  =  -535.4991207940985305
    Scaled MP2 Correlation                =    -0.3219749203800062
    @Final double-hybrid DFT total energy =  -535.8210957144785880


*** tstop() called on bp1-compute00148.data.bp.acrc.priv at Mon Apr 19 15:47:52 2021
Module time:
	user time   =      12.35 seconds =       0.21 minutes
	system time =       0.54 seconds =       0.01 minutes
	total time  =          1 seconds =       0.02 minutes
Total time:
	user time   =    2495.20 seconds =      41.59 minutes
	system time =      97.39 seconds =       1.62 minutes
	total time  =        123 seconds =       2.05 minutes

         ----------------------------------------------------------
                                   FINDIF
                     R. A. King and Jonathon Misiewicz
         ---------------------------------------------------------

  Computing second-derivative from energies using projected, 
  symmetry-adapted, cartesian coordinates.

  13 energies passed in, including the reference geometry.
    Using 3-point formula.
    Energy without displacement: -535.8211087267
    Check energies below for precision!
    0: -1        :      -535.8211081902
    0: 1         :      -535.8211082496
    1: -1        :      -535.8211041616
    1: 1         :      -535.8211044653
    2: -1        :      -535.8211061131
    2: 1         :      -535.8211052688
    0: 1, 1: 1   :      -535.8211021676
    0: -1, 1: -1 :      -535.8211017659
    0: 1, 2: 1   :      -535.8211032928
    0: -1, 2: -1 :      -535.8211040672
    1: 1, 2: 1   :      -535.8210953616
    1: -1, 2: -1 :      -535.8210957145

-------------------------------------------------------------


  ==> Harmonic Vibrational Analysis <==

  non-mass-weighted Hessian:       Symmetric? True   Hermitian? True   Lin Dep Dim?  6 (0)
  projection of translations (True) and rotations (True) removed 6 degrees of freedom (6)
  total projector:                 Symmetric? True   Hermitian? True   Lin Dep Dim?  6 (6)
  mass-weighted Hessian:           Symmetric? True   Hermitian? True   Lin Dep Dim?  6 (0)
  pre-proj  low-frequency mode:    0.0000i [cm^-1]
  pre-proj  low-frequency mode:    0.0000i [cm^-1]
  pre-proj  low-frequency mode:    0.0000  [cm^-1]
  pre-proj  low-frequency mode:    0.0000  [cm^-1]
  pre-proj  low-frequency mode:    0.0000  [cm^-1]
  pre-proj  low-frequency mode:    0.0000  [cm^-1]
  pre-proj  all modes:['0.0000i' '0.0000i' '0.0000' '0.0000' '0.0000' '0.0000' '776.2309'
 '1279.2089' '3818.3079']
  projected mass-weighted Hessian: Symmetric? True   Hermitian? True   Lin Dep Dim?  6 (6)
  post-proj low-frequency mode:    0.0000i [cm^-1] (TR)
  post-proj low-frequency mode:    0.0000i [cm^-1] (TR)
  post-proj low-frequency mode:    0.0000i [cm^-1] (TR)
  post-proj low-frequency mode:    0.0000  [cm^-1] (TR)
  post-proj low-frequency mode:    0.0000  [cm^-1] (TR)
  post-proj low-frequency mode:    0.0000  [cm^-1] (TR)
  post-proj  all modes:['0.0000i' '0.0000i' '0.0000i' '0.0000' '0.0000' '0.0000' '776.2309'
 '1279.2089' '3818.3079']

  Vibration                       7                   8                   9           
  Freq [cm^-1]                 776.2309           1279.2089           3818.3079       
  Irrep                           Ap                  Ap                  Ap          
  Reduced mass [u]             17.9662              1.0713              1.0678        
  Force const [mDyne/A]         6.3781              1.0329              9.1727        
  Turning point v=0 [a0]        0.0929              0.2964              0.1718        
  RMS dev v=0 [a0 u^1/2]        0.2785              0.2169              0.1256        
  Char temp [K]               1116.8235           1840.4968           5493.6949       
  ----------------------------------------------------------------------------------
      1   O                0.81 -0.31  0.00   -0.01  0.05 -0.00   -0.04 -0.05  0.00   
      2   CL              -0.38  0.14  0.00   -0.02 -0.01 -0.00    0.00 -0.00 -0.00   
      3   H                0.25  0.11 -0.00    0.85 -0.53 -0.00    0.56  0.83 -0.00   

  ==> Thermochemistry Components <==

  Entropy, S
    Electronic S            0.000 [cal/(mol K)]        0.000 [J/(mol K)]       0.00000000 [mEh/K] (multiplicity = 1)
    Translational S        37.767 [cal/(mol K)]      158.018 [J/(mol K)]       0.06018576 [mEh/K] (mol. weight = 51.9716 [u], P = 101325.00 [Pa])
    Rotational S           18.369 [cal/(mol K)]       76.856 [J/(mol K)]       0.02927299 [mEh/K] (symmetry no. = 1)
    Vibrational S           0.257 [cal/(mol K)]        1.077 [J/(mol K)]       0.00041005 [mEh/K]
  Total S                  56.394 [cal/(mol K)]      235.951 [J/(mol K)]       0.08986880 [mEh/K]
  Correction S              0.000 [cal/(mol K)]        0.000 [J/(mol K)]       0.00000000 [mEh/K]

  Constant volume heat capacity, Cv
    Electronic Cv           0.000 [cal/(mol K)]        0.000 [J/(mol K)]       0.00000000 [mEh/K]
    Translational Cv        2.981 [cal/(mol K)]       12.472 [J/(mol K)]       0.00475022 [mEh/K]
    Rotational Cv           2.981 [cal/(mol K)]       12.472 [J/(mol K)]       0.00475022 [mEh/K]
    Vibrational Cv          0.849 [cal/(mol K)]        3.553 [J/(mol K)]       0.00135338 [mEh/K]
  Total Cv                  6.811 [cal/(mol K)]       28.497 [J/(mol K)]       0.01085382 [mEh/K]
  Correction Cv             0.000 [cal/(mol K)]        0.000 [J/(mol K)]       0.00000000 [mEh/K]

  Constant pressure heat capacity, Cp
    Electronic Cp           0.000 [cal/(mol K)]        0.000 [J/(mol K)]       0.00000000 [mEh/K]
    Translational Cp        4.968 [cal/(mol K)]       20.786 [J/(mol K)]       0.00791703 [mEh/K]
    Rotational Cp           2.981 [cal/(mol K)]       12.472 [J/(mol K)]       0.00475022 [mEh/K]
    Vibrational Cp          0.849 [cal/(mol K)]        3.553 [J/(mol K)]       0.00135338 [mEh/K]
  Total Cp                  8.798 [cal/(mol K)]       36.811 [J/(mol K)]       0.01402063 [mEh/K]
  Correction Cp             0.000 [cal/(mol K)]        0.000 [J/(mol K)]       0.00000000 [mEh/K]

  ==> Thermochemistry Energy Analysis <==

  Raw electronic energy, E0
  Total E0, Electronic energy at well bottom at 0 [K]                 -535.82110873 [Eh]

  Zero-point energy, ZPE_vib = Sum_i nu_i / 2
    Electronic ZPE          0.000 [kcal/mol]        0.000 [kJ/mol]       0.00000000 [Eh]
    Translational ZPE       0.000 [kcal/mol]        0.000 [kJ/mol]       0.00000000 [Eh]
    Rotational ZPE          0.000 [kcal/mol]        0.000 [kJ/mol]       0.00000000 [Eh]
    Vibrational ZPE         8.397 [kcal/mol]       35.133 [kJ/mol]       0.01338138 [Eh]        2936.874 [cm^-1]
  Correction ZPE            8.397 [kcal/mol]       35.133 [kJ/mol]       0.01338138 [Eh]        2936.874 [cm^-1]
  Total ZPE, Electronic energy at 0 [K]                               -535.80772734 [Eh]

  Thermal Energy, E (includes ZPE)
    Electronic E            0.000 [kcal/mol]        0.000 [kJ/mol]       0.00000000 [Eh]
    Translational E         0.889 [kcal/mol]        3.718 [kJ/mol]       0.00141628 [Eh]
    Rotational E            0.889 [kcal/mol]        3.718 [kJ/mol]       0.00141628 [Eh]
    Vibrational E           8.458 [kcal/mol]       35.389 [kJ/mol]       0.01347910 [Eh]
  Correction E             10.236 [kcal/mol]       42.826 [kJ/mol]       0.01631166 [Eh]
  Total E, Electronic energy at  298.15 [K]                           -535.80479707 [Eh]

  Enthalpy, H_trans = E_trans + k_B * T
    Electronic H            0.000 [kcal/mol]        0.000 [kJ/mol]       0.00000000 [Eh]
    Translational H         1.481 [kcal/mol]        6.197 [kJ/mol]       0.00236046 [Eh]
    Rotational H            0.889 [kcal/mol]        3.718 [kJ/mol]       0.00141628 [Eh]
    Vibrational H           8.458 [kcal/mol]       35.389 [kJ/mol]       0.01347910 [Eh]
  Correction H             10.828 [kcal/mol]       45.305 [kJ/mol]       0.01725584 [Eh]
  Total H, Enthalpy at  298.15 [K]                                    -535.80385289 [Eh]

  Gibbs free energy, G = H - T * S
    Electronic G            0.000 [kcal/mol]        0.000 [kJ/mol]       0.00000000 [Eh]
    Translational G        -9.779 [kcal/mol]      -40.916 [kJ/mol]      -0.01558392 [Eh]
    Rotational G           -4.588 [kcal/mol]      -19.196 [kJ/mol]      -0.00731147 [Eh]
    Vibrational G           8.382 [kcal/mol]       35.068 [kJ/mol]       0.01335685 [Eh]
  Correction G             -5.986 [kcal/mol]      -25.043 [kJ/mol]      -0.00953854 [Eh]
  Total G, Free enthalpy at  298.15 [K]                               -535.83064727 [Eh]

    Psi4 stopped on: Monday, 19 April 2021 03:47PM
    Psi4 wall time for execution: 0:02:03.61

*** Psi4 exiting successfully. Buy a developer a beer!
