
    -----------------------------------------------------------------------
          Psi4: An Open-Source Ab Initio Electronic Structure Package
                               Psi4 1.3.2 release

                         Git: Rev {HEAD} ecbda83 


    R. M. Parrish, L. A. Burns, D. G. A. Smith, A. C. Simmonett,
    A. E. DePrince III, E. G. Hohenstein, U. Bozkaya, A. Yu. Sokolov,
    R. Di Remigio, R. M. Richard, J. F. Gonthier, A. M. James,
    H. R. McAlexander, A. Kumar, M. Saitow, X. Wang, B. P. Pritchard,
    P. Verma, H. F. Schaefer III, K. Patkowski, R. A. King, E. F. Valeev,
    F. A. Evangelista, J. M. Turney, T. D. Crawford, and C. D. Sherrill,
    J. Chem. Theory Comput. 13(7) pp 3185--3197 (2017).
    (doi: 10.1021/acs.jctc.7b00174)


                         Additional Contributions by
    P. Kraus, H. Kruse, M. H. Lechner, M. C. Schieber, R. A. Shaw,
    A. Alenaizan, R. Galvelis, Z. L. Glick, S. Lehtola, and J. P. Misiewicz

    -----------------------------------------------------------------------


    Psi4 started on: Monday, 19 April 2021 03:45PM

    Process ID: 15435
    Host:       bp1-compute00149.data.bp.acrc.priv
    PSIDATADIR: /work/zw18965/.conda/envs/p4env/share/psi4
    Memory:     500.0 MiB
    Threads:    24
    
  ==> Input File <==

--------------------------------------------------------------------------
memory 144 GB

molecule {
0 1
N     0.549269328753   0.000000000000   0.000000000000
N    -0.549269328753   0.000000000000   0.000000000000}

set basis aug-cc-pV(Q+d)Z
 
optimize("DSD-BLYP-D3BJ")
frequencies("DSD-BLYP-D3BJ")--------------------------------------------------------------------------

  Memory set to 134.110 GiB by Python driver.
gradient() will perform gradient computation by finite difference of analytic energies.

         ----------------------------------------------------------
                                   FINDIF
                     R. A. King and Jonathon Misiewicz
         ---------------------------------------------------------

  Using finite-differences of energies to determine gradients.
    Generating geometries for use with 3-point formula.
    Displacement size will be 5.00e-03.
    Number of atoms is 2.
    Number of symmetric SALCs is 1.
    Translations projected? 1. Rotations projected? 1.
    Number of geometries (including reference) is 3.

  //>>>>>>>>>>>>>>>>>>>>>>>>>>>>>>>>>>>//
  //    Loading displacement 1 of 3    //
  //<<<<<<<<<<<<<<<<<<<<<<<<<<<<<<<<<<<//

*** tstart() called on bp1-compute00149.data.bp.acrc.priv
*** at Mon Apr 19 15:45:56 2021

   => Loading Basis Set <=

    Name: AUG-CC-PV(Q+D)Z
    Role: ORBITAL
    Keyword: BASIS
    atoms 1-2 entry N          line   379 file /work/zw18965/.conda/envs/p4env/share/psi4/basis/aug-cc-pv_qpd_z.gbs 


         ---------------------------------------------------------
                                   SCF
               by Justin Turney, Rob Parrish, Andy Simmonett
                          and Daniel G. A. Smith
                              RKS Reference
                       24 Threads, 137329 MiB Core
         ---------------------------------------------------------

  ==> Geometry <==

    Molecular point group: d2h
    Full point group: D_inf_h

    Geometry (in Angstrom), charge = 0, multiplicity = 1:

       Center              X                  Y                   Z               Mass       
    ------------   -----------------  -----------------  -----------------  -----------------
         N            0.549269328753     0.000000000000     0.000000000000    14.003074004430
         N           -0.549269328753    -0.000000000000     0.000000000000    14.003074004430

  Running in d2h symmetry.

  Rotational constants: A = ************  B =      1.99514  C =      1.99514 [cm^-1]
  Rotational constants: A = ************  B =  59812.66075  C =  59812.66075 [MHz]
  Nuclear repulsion =   23.603796867465611

  Charge       = 0
  Multiplicity = 1
  Electrons    = 14
  Nalpha       = 7
  Nbeta        = 7

  ==> Algorithm <==

  SCF Algorithm Type is DF.
  DIIS enabled.
  MOM disabled.
  Fractional occupation disabled.
  Guess Type is SAD.
  Energy threshold   = 1.00e-08
  Density threshold  = 1.00e-08
  Integral threshold = 0.00e+00

  ==> Primary Basis <==

  Basis Set: AUG-CC-PV(Q+D)Z
    Blend: AUG-CC-PV(Q+D)Z
    Number of shells: 40
    Number of basis function: 160
    Number of Cartesian functions: 210
    Spherical Harmonics?: true
    Max angular momentum: 4

  ==> DFT Potential <==

   => Composite Functional: DSD-BLYP-D3BJ <= 

    DSD-BLYP-D3BJ Dispersion-corrected SCS Double Hybrid XC Functional

    S. Kozuch, J.M.L. Martin, J. Comp. Chem., 34, 2327-2344, 2013


    Deriv               =              1
    GGA                 =           TRUE
    Meta                =          FALSE

    Exchange Hybrid     =           TRUE
    MP2 Hybrid          =           TRUE

   => Exchange Functionals <=

    0.2900     XC_GGA_X_B88

   => Exact (HF) Exchange <=

    0.7100               HF 

   => Correlation Functionals <=

    0.5400     XC_GGA_C_LYP

   => MP2 Correlation <=

    MP2 SCS Hybrid      =           TRUE
    MP2 OS Alpha        =       0.470000
    MP2 SS Alpha        =       0.400000

   => Molecular Quadrature <=

    Radial Scheme          =       TREUTLER
    Pruning Scheme         =           FLAT
    Nuclear Scheme         =       TREUTLER

    BS radius alpha        =              1
    Pruning alpha          =              1
    Radial Points          =             75
    Spherical Points       =            302
    Total Points           =          45300
    Total Blocks           =            426
    Max Points             =            256
    Max Functions          =            160

   => DSD-BLYP-D3BJ: Empirical Dispersion <=

    Grimme's -D3 (BJ-damping) Dispersion Correction
    Grimme S.; Ehrlich S.; Goerigk L. (2011), J. Comput. Chem., 32: 1456
    Parametrisation from:    S. Kozuch, J.M.L. Martin, J. Comp. Chem., 34, 2327-2344, 2013

        s6 =       0.570000
        s8 =       0.000000
        a1 =       0.000000
        a2 =       5.400000

   => Loading Basis Set <=

    Name: (AUG-CC-PV(Q+D)Z AUX)
    Role: JKFIT
    Keyword: DF_BASIS_SCF
    atoms 1-2 entry N          line   248 file /work/zw18965/.conda/envs/p4env/share/psi4/basis/aug-cc-pvqz-jkfit.gbs 

  ==> Pre-Iterations <==

   -------------------------------------------------------
    Irrep   Nso     Nmo     Nalpha   Nbeta   Ndocc  Nsocc
   -------------------------------------------------------
     Ag        31      31       0       0       0       0
     B1g       19      19       0       0       0       0
     B2g       19      19       0       0       0       0
     B3g       11      11       0       0       0       0
     Au        11      11       0       0       0       0
     B1u       19      19       0       0       0       0
     B2u       19      19       0       0       0       0
     B3u       31      31       0       0       0       0
   -------------------------------------------------------
    Total     160     160       7       7       7       0
   -------------------------------------------------------

  ==> Integral Setup <==

  DFHelper Memory: AOs need 0.066 GiB; user supplied 100.392 GiB. Using in-core AOs.

  ==> MemDFJK: Density-Fitted J/K Matrices <==

    J tasked:                   Yes
    K tasked:                   Yes
    wK tasked:                   No
    OpenMP threads:              24
    Memory [MiB]:            102801
    Algorithm:                 Core
    Schwarz Cutoff:           1E-12
    Mask sparsity (%):       0.0000
    Fitting Condition:        1E-10

   => Auxiliary Basis Set <=

  Basis Set: (AUG-CC-PV(Q+D)Z AUX)
    Blend: AUG-CC-PVQZ-JKFIT
    Number of shells: 68
    Number of basis function: 284
    Number of Cartesian functions: 396
    Spherical Harmonics?: true
    Max angular momentum: 5

  Cached 100.0% of DFT collocation blocks in 0.191 [GiB].

  Minimum eigenvalue in the overlap matrix is 3.2207725221E-05.
  Using Symmetric Orthogonalization.

  SCF Guess: Superposition of Atomic Densities via on-the-fly atomic UHF.

  ==> Iterations <==

                           Total Energy        Delta E     RMS |[F,P]|

   @DF-RKS iter SAD:  -108.48868491009631   -1.08489e+02   0.00000e+00 
   @DF-RKS iter   1:  -109.26409311320148   -7.75408e-01   2.89823e-03 DIIS
   @DF-RKS iter   2:  -109.27375168027778   -9.65857e-03   9.95947e-04 DIIS
   @DF-RKS iter   3:  -109.27501869256081   -1.26701e-03   1.08181e-04 DIIS
   @DF-RKS iter   4:  -109.27503786049667   -1.91679e-05   1.51915e-05 DIIS
   @DF-RKS iter   5:  -109.27503825730483   -3.96808e-07   2.35508e-06 DIIS
   @DF-RKS iter   6:  -109.27503827902558   -2.17208e-08   2.35030e-07 DIIS
   @DF-RKS iter   7:  -109.27503827924954   -2.23963e-10   1.52540e-08 DIIS
   @DF-RKS iter   8:  -109.27503827925035   -8.10019e-13   1.59151e-09 DIIS
  Energy and wave function converged.


  ==> Post-Iterations <==

    Orbital Energies [Eh]
    ---------------------

    Doubly Occupied:                                                      

       1Ag   -15.235034     1B3u  -15.232106     2Ag    -1.351668  
       2B3u   -0.703673     1B1u   -0.566870     1B2u   -0.566870  
       3Ag    -0.566859  

    Virtual:                                                              

       3B3u    0.060512     1B1g    0.067657     1B2g    0.067657  
       4Ag     0.080336     2B2u    0.089536     2B1u    0.089536  
       5Ag     0.119503     2B1g    0.139859     2B2g    0.139859  
       4B3u    0.221695     6Ag     0.279424     1B3g    0.279424  
       7Ag     0.326670     5B3u    0.376173     3B1g    0.387022  
       3B2g    0.387022     6B3u    0.391958     1Au     0.391958  
       3B2u    0.392032     3B1u    0.392032     4B1u    0.503836  
       4B2u    0.503836     7B3u    0.573064     8Ag     0.587037  
       9Ag     0.732044     4B1g    0.797811     4B2g    0.797811  
       8B3u    0.837576     5B2u    0.887197     5B1u    0.887197  
       2B3g    0.922107    10Ag     0.922107     6B2u    0.982313  
       6B1u    0.982313     9B3u    1.002190     2Au     1.002190  
      10B3u    1.112756    11Ag     1.116193     5B1g    1.127801  
       5B2g    1.127801     6B1g    1.128306     6B2g    1.128306  
      12Ag     1.135868     3B3g    1.135868    11B3u    1.338433  
       7B1u    1.502766     7B2u    1.502766    13Ag     1.513502  
      12B3u    1.623022     3Au     1.623022     7B1g    1.675821  
       7B2g    1.675821    13B3u    1.737102     8B1u    1.980963  
       8B2u    1.980963     4B3g    2.571922    14Ag     2.571922  
      15Ag     2.599425     9B1u    2.711863     9B2u    2.711863  
      16Ag     2.727753     5B3g    2.727753    17Ag     2.755856  
       8B1g    2.822502     8B2g    2.822502    14B3u    2.847493  
      10B2u    2.936590    10B1u    2.936590    15B3u    2.995190  
       4Au     2.995191    16B3u    3.008398     5Au     3.016061  
      17B3u    3.016061    11B1u    3.026402    11B2u    3.026402  
       9B2g    3.043331     9B1g    3.043331    12B1u    3.053462  
      12B2u    3.053462    18Ag     3.056740     6B3g    3.056740  
      10B1g    3.244393    10B2g    3.244393    19Ag     3.245529  
      18B3u    3.319342     6Au     3.319342    19B3u    3.426677  
      20Ag     3.440116    11B1g    3.460723    11B2g    3.460723  
      21Ag     3.742108     7B3g    3.742108    12B2g    3.803202  
      12B1g    3.803202    13B2u    4.662224    13B1u    4.662224  
       7Au     5.011298    20B3u    5.011298    21B3u    5.105094  
      22Ag     5.407592    22B3u    5.593353    13B1g    5.617928  
      13B2g    5.617928    14B1u    7.595735    14B2u    7.595735  
       8B3g    7.659953    23Ag     7.659953    15B1u    7.818169  
      15B2u    7.818169     9B3g    7.882117    24Ag     7.882126  
      25Ag     7.931989    14B1g    8.155977    14B2g    8.155977  
       8Au     8.206360    23B3u    8.206370    16B1u    8.320575  
      16B2u    8.320575    26Ag     8.606488    24B3u    8.684253  
       9Au     8.684259    15B1g    8.687945    15B2g    8.687945  
      16B2g    8.735231    16B1g    8.735231    17B1u    8.891894  
      17B2u    8.891894    25B3u    8.972657    27Ag     9.123369  
      10B3g    9.123372    26B3u    9.159514    17B2g    9.188097  
      17B1g    9.188097    28Ag     9.280528    29Ag     9.373226  
      11B3g    9.373233    18B2u    9.526249    18B1u    9.526249  
      27B3u   10.138253    10Au    10.138259    11Au    10.396789  
      28B3u   10.396790    19B2u   10.571458    19B1u   10.571458  
      18B1g   10.951657    18B2g   10.951657    29B3u   11.115273  
      30Ag    12.724917    19B1g   12.975372    19B2g   12.975372  
      30B3u   13.836754    31B3u   32.692290    31Ag    33.083511  

    Final Occupation by Irrep:
             Ag   B1g   B2g   B3g    Au   B1u   B2u   B3u 
    DOCC [     3,    0,    0,    0,    0,    1,    1,    2 ]

  @DF-RKS Final Energy:  -109.27503827925035

   => Energetics <=

    Nuclear Repulsion Energy =             23.6037968674656113
    One-Electron Energy =                -194.3660328229430831
    Two-Electron Energy =                  65.5731366659185824
    DFT Exchange-Correlation Energy =      -4.0854317196914547
    Empirical Dispersion Energy =          -0.0005072700000000
    VV10 Nonlocal Energy =                  0.0000000000000000
    Total Energy =                       -109.2750382792503530

Computation Completed


Properties will be evaluated at   0.000000,   0.000000,   0.000000 [a0]

Properties computed using the SCF density matrix

  Nuclear Dipole Moment: [e a0]
     X:    -0.0000      Y:     0.0000      Z:     0.0000

  Electronic Dipole Moment: [e a0]
     X:     0.0000      Y:     0.0000      Z:     0.0000

  Dipole Moment: [e a0]
     X:    -0.0000      Y:     0.0000      Z:     0.0000     Total:     0.0000

  Dipole Moment: [D]
     X:    -0.0000      Y:     0.0000      Z:     0.0000     Total:     0.0000


*** tstop() called on bp1-compute00149.data.bp.acrc.priv at Mon Apr 19 15:45:58 2021
Module time:
	user time   =      33.35 seconds =       0.56 minutes
	system time =       1.49 seconds =       0.02 minutes
	total time  =          2 seconds =       0.03 minutes
Total time:
	user time   =      33.35 seconds =       0.56 minutes
	system time =       1.49 seconds =       0.02 minutes
	total time  =          2 seconds =       0.03 minutes

*** tstart() called on bp1-compute00149.data.bp.acrc.priv
*** at Mon Apr 19 15:45:58 2021

   => Loading Basis Set <=

    Name: (AUG-CC-PV(Q+D)Z AUX)
    Role: RIFIT
    Keyword: DF_BASIS_MP2
    atoms 1-2 entry N          line   258 file /work/zw18965/.conda/envs/p4env/share/psi4/basis/aug-cc-pvqz-ri.gbs 

	 --------------------------------------------------------
	                          DF-MP2                         
	      2nd-Order Density-Fitted Moller-Plesset Theory     
	              RMP2 Wavefunction,  24 Threads             
	                                                         
	        Rob Parrish, Justin Turney, Andy Simmonett,      
	           Ed Hohenstein, and C. David Sherrill          
	 --------------------------------------------------------

   => Auxiliary Basis Set <=

  Basis Set: (AUG-CC-PV(Q+D)Z AUX)
    Blend: AUG-CC-PVQZ-RI
    Number of shells: 72
    Number of basis function: 336
    Number of Cartesian functions: 474
    Spherical Harmonics?: true
    Max angular momentum: 5

	 --------------------------------------------------------
	                 NBF =   160, NAUX =   336
	 --------------------------------------------------------
	   CLASS    FOCC     OCC    AOCC    AVIR     VIR    FVIR
	   PAIRS       0       7       7     153     153       0
	 --------------------------------------------------------

	-----------------------------------------------------------
	 ==================> DF-MP2 Energies <==================== 
	-----------------------------------------------------------
	 Reference Energy          =    -109.2750382792503530 [Eh]
	 Singles Energy            =      -0.0000000000000000 [Eh]
	 Same-Spin Energy          =      -0.1230987980420839 [Eh]
	 Opposite-Spin Energy      =      -0.3912427551673600 [Eh]
	 Correlation Energy        =      -0.5143415532094440 [Eh]
	 Total Energy              =    -109.7893798324598009 [Eh]
	-----------------------------------------------------------
	 ================> DF-SCS-MP2 Energies <================== 
	-----------------------------------------------------------
	 SCS Same-Spin Scale       =       0.4000000000000000 [-]
	 SCS Opposite-Spin Scale   =       0.4700000000000000 [-]
	 SCS Same-Spin Energy      =      -0.0492395192168336 [Eh]
	 SCS Opposite-Spin Energy  =      -0.1838840949286592 [Eh]
	 SCS Correlation Energy    =      -0.2331236141454928 [Eh]
	 SCS Total Energy          =    -109.5081618933958509 [Eh]
	-----------------------------------------------------------



    DSD-BLYP-D3BJ Energy Summary
    ----------------------------
    DFT Reference Energy                  =  -109.2750382792503530
    Scaled MP2 Correlation                =    -0.2331236141454928
    @Final double-hybrid DFT total energy =  -109.5081618933958509


*** tstop() called on bp1-compute00149.data.bp.acrc.priv at Mon Apr 19 15:45:59 2021
Module time:
	user time   =       8.64 seconds =       0.14 minutes
	system time =       0.37 seconds =       0.01 minutes
	total time  =          1 seconds =       0.02 minutes
Total time:
	user time   =      42.00 seconds =       0.70 minutes
	system time =       1.86 seconds =       0.03 minutes
	total time  =          3 seconds =       0.05 minutes

  //>>>>>>>>>>>>>>>>>>>>>>>>>>>>>>>>>>>//
  //    Loading displacement 2 of 3    //
  //<<<<<<<<<<<<<<<<<<<<<<<<<<<<<<<<<<<//

*** tstart() called on bp1-compute00149.data.bp.acrc.priv
*** at Mon Apr 19 15:45:59 2021

   => Loading Basis Set <=

    Name: AUG-CC-PV(Q+D)Z
    Role: ORBITAL
    Keyword: BASIS
    atoms 1-2 entry N          line   379 file /work/zw18965/.conda/envs/p4env/share/psi4/basis/aug-cc-pv_qpd_z.gbs 


         ---------------------------------------------------------
                                   SCF
               by Justin Turney, Rob Parrish, Andy Simmonett
                          and Daniel G. A. Smith
                              RKS Reference
                       24 Threads, 137329 MiB Core
         ---------------------------------------------------------

  ==> Geometry <==

    Molecular point group: d2h
    Full point group: D_inf_h

    Geometry (in Angstrom), charge = 0, multiplicity = 1:

       Center              X                  Y                   Z               Mass       
    ------------   -----------------  -----------------  -----------------  -----------------
         N            0.548769358176     0.000000000000     0.000000000000    14.003074004430
         N           -0.548769358176    -0.000000000000     0.000000000000    14.003074004430

  Running in d2h symmetry.

  Rotational constants: A = ************  B =      1.99877  C =      1.99877 [cm^-1]
  Rotational constants: A = ************  B =  59921.69816  C =  59921.69816 [MHz]
  Nuclear repulsion =   23.625301719673992

  Charge       = 0
  Multiplicity = 1
  Electrons    = 14
  Nalpha       = 7
  Nbeta        = 7

  ==> Algorithm <==

  SCF Algorithm Type is DF.
  DIIS enabled.
  MOM disabled.
  Fractional occupation disabled.
  Guess Type is SAD.
  Energy threshold   = 1.00e-08
  Density threshold  = 1.00e-08
  Integral threshold = 0.00e+00

  ==> Primary Basis <==

  Basis Set: AUG-CC-PV(Q+D)Z
    Blend: AUG-CC-PV(Q+D)Z
    Number of shells: 40
    Number of basis function: 160
    Number of Cartesian functions: 210
    Spherical Harmonics?: true
    Max angular momentum: 4

  ==> DFT Potential <==

   => Composite Functional: DSD-BLYP-D3BJ <= 

    DSD-BLYP-D3BJ Dispersion-corrected SCS Double Hybrid XC Functional

    S. Kozuch, J.M.L. Martin, J. Comp. Chem., 34, 2327-2344, 2013


    Deriv               =              1
    GGA                 =           TRUE
    Meta                =          FALSE

    Exchange Hybrid     =           TRUE
    MP2 Hybrid          =           TRUE

   => Exchange Functionals <=

    0.2900     XC_GGA_X_B88

   => Exact (HF) Exchange <=

    0.7100               HF 

   => Correlation Functionals <=

    0.5400     XC_GGA_C_LYP

   => MP2 Correlation <=

    MP2 SCS Hybrid      =           TRUE
    MP2 OS Alpha        =       0.470000
    MP2 SS Alpha        =       0.400000

   => Molecular Quadrature <=

    Radial Scheme          =       TREUTLER
    Pruning Scheme         =           FLAT
    Nuclear Scheme         =       TREUTLER

    BS radius alpha        =              1
    Pruning alpha          =              1
    Radial Points          =             75
    Spherical Points       =            302
    Total Points           =          45300
    Total Blocks           =            426
    Max Points             =            256
    Max Functions          =            160

   => DSD-BLYP-D3BJ: Empirical Dispersion <=

    Grimme's -D3 (BJ-damping) Dispersion Correction
    Grimme S.; Ehrlich S.; Goerigk L. (2011), J. Comput. Chem., 32: 1456
    Parametrisation from:    S. Kozuch, J.M.L. Martin, J. Comp. Chem., 34, 2327-2344, 2013

        s6 =       0.570000
        s8 =       0.000000
        a1 =       0.000000
        a2 =       5.400000

   => Loading Basis Set <=

    Name: (AUG-CC-PV(Q+D)Z AUX)
    Role: JKFIT
    Keyword: DF_BASIS_SCF
    atoms 1-2 entry N          line   248 file /work/zw18965/.conda/envs/p4env/share/psi4/basis/aug-cc-pvqz-jkfit.gbs 

  ==> Pre-Iterations <==

   -------------------------------------------------------
    Irrep   Nso     Nmo     Nalpha   Nbeta   Ndocc  Nsocc
   -------------------------------------------------------
     Ag        31      31       0       0       0       0
     B1g       19      19       0       0       0       0
     B2g       19      19       0       0       0       0
     B3g       11      11       0       0       0       0
     Au        11      11       0       0       0       0
     B1u       19      19       0       0       0       0
     B2u       19      19       0       0       0       0
     B3u       31      31       0       0       0       0
   -------------------------------------------------------
    Total     160     160       7       7       7       0
   -------------------------------------------------------

  ==> Integral Setup <==

  DFHelper Memory: AOs need 0.066 GiB; user supplied 100.392 GiB. Using in-core AOs.

  ==> MemDFJK: Density-Fitted J/K Matrices <==

    J tasked:                   Yes
    K tasked:                   Yes
    wK tasked:                   No
    OpenMP threads:              24
    Memory [MiB]:            102801
    Algorithm:                 Core
    Schwarz Cutoff:           1E-12
    Mask sparsity (%):       0.0000
    Fitting Condition:        1E-10

   => Auxiliary Basis Set <=

  Basis Set: (AUG-CC-PV(Q+D)Z AUX)
    Blend: AUG-CC-PVQZ-JKFIT
    Number of shells: 68
    Number of basis function: 284
    Number of Cartesian functions: 396
    Spherical Harmonics?: true
    Max angular momentum: 5

  Cached 100.0% of DFT collocation blocks in 0.191 [GiB].

  Minimum eigenvalue in the overlap matrix is 3.2103333973E-05.
  Using Symmetric Orthogonalization.

  SCF Guess: Superposition of Atomic Densities via on-the-fly atomic UHF.

  ==> Iterations <==

                           Total Energy        Delta E     RMS |[F,P]|

   @DF-RKS iter SAD:  -108.49089620384409   -1.08491e+02   0.00000e+00 
   @DF-RKS iter   1:  -109.26418168625145   -7.73285e-01   2.90995e-03 DIIS
   @DF-RKS iter   2:  -109.27389688456266   -9.71520e-03   1.00108e-03 DIIS
   @DF-RKS iter   3:  -109.27517678240037   -1.27990e-03   1.08280e-04 DIIS
   @DF-RKS iter   4:  -109.27519593698345   -1.91546e-05   1.51315e-05 DIIS
   @DF-RKS iter   5:  -109.27519633096577   -3.93982e-07   2.34947e-06 DIIS
   @DF-RKS iter   6:  -109.27519635256532   -2.15995e-08   2.34746e-07 DIIS
   @DF-RKS iter   7:  -109.27519635278880   -2.23480e-10   1.52521e-08 DIIS
   @DF-RKS iter   8:  -109.27519635278971   -9.09495e-13   1.59084e-09 DIIS
  Energy and wave function converged.


  ==> Post-Iterations <==

    Orbital Energies [Eh]
    ---------------------

    Doubly Occupied:                                                      

       1Ag   -15.234700     1B3u  -15.231753     2Ag    -1.352341  
       2B3u   -0.703365     1B1u   -0.567256     1B2u   -0.567256  
       3Ag    -0.566934  

    Virtual:                                                              

       3B3u    0.060521     1B1g    0.067985     1B2g    0.067985  
       4Ag     0.080348     2B2u    0.089522     2B1u    0.089522  
       5Ag     0.119509     2B1g    0.140006     2B2g    0.140006  
       4B3u    0.221717     6Ag     0.279442     1B3g    0.279442  
       7Ag     0.326644     5B3u    0.376246     3B1g    0.387095  
       3B2g    0.387095     6B3u    0.391941     1Au     0.391941  
       3B1u    0.392022     3B2u    0.392022     4B1u    0.503730  
       4B2u    0.503730     7B3u    0.573189     8Ag     0.587023  
       9Ag     0.732077     4B1g    0.798028     4B2g    0.798028  
       8B3u    0.838557     5B2u    0.887232     5B1u    0.887232  
       2B3g    0.922120    10Ag     0.922120     6B2u    0.982276  
       6B1u    0.982276     9B3u    1.002045     2Au     1.002045  
      10B3u    1.113468    11Ag     1.116397     5B2g    1.127873  
       5B1g    1.127873     6B1g    1.128455     6B2g    1.128455  
      12Ag     1.135959     3B3g    1.135959    11B3u    1.338533  
       7B2u    1.503328     7B1u    1.503328    13Ag     1.513044  
      12B3u    1.623501     3Au     1.623501     7B1g    1.675851  
       7B2g    1.675851    13B3u    1.738231     8B1u    1.980644  
       8B2u    1.980644     4B3g    2.571896    14Ag     2.571897  
      15Ag     2.599927     9B1u    2.712153     9B2u    2.712153  
      16Ag     2.727721     5B3g    2.727721    17Ag     2.756592  
       8B1g    2.823256     8B2g    2.823256    14B3u    2.847602  
      10B1u    2.937444    10B2u    2.937444    15B3u    2.995359  
       4Au     2.995360    16B3u    3.008230     5Au     3.016449  
      17B3u    3.016449    11B2u    3.026638    11B1u    3.026638  
       9B1g    3.043100     9B2g    3.043100    12B1u    3.053600  
      12B2u    3.053600    18Ag     3.056563     6B3g    3.056564  
      10B1g    3.244350    10B2g    3.244350    19Ag     3.244555  
      18B3u    3.319246     6Au     3.319246    19B3u    3.427803  
      20Ag     3.441162    11B1g    3.461704    11B2g    3.461704  
      21Ag     3.743642     7B3g    3.743642    12B1g    3.804644  
      12B2g    3.804644    13B1u    4.663123    13B2u    4.663123  
       7Au     5.013459    20B3u    5.013459    21B3u    5.108548  
      22Ag     5.412208    22B3u    5.592727    13B1g    5.619669  
      13B2g    5.619669    14B1u    7.594947    14B2u    7.594947  
       8B3g    7.660854    23Ag     7.660854    15B1u    7.818438  
      15B2u    7.818438     9B3g    7.881609    24Ag     7.881618  
      25Ag     7.931925    14B1g    8.154729    14B2g    8.154729  
       8Au     8.207060    23B3u    8.207070    16B2u    8.321851  
      16B1u    8.321851    26Ag     8.606138    24B3u    8.682589  
       9Au     8.682595    15B1g    8.688892    15B2g    8.688892  
      16B1g    8.735961    16B2g    8.735961    17B2u    8.892059  
      17B1u    8.892059    25B3u    8.974274    27Ag     9.123774  
      10B3g    9.123777    26B3u    9.162540    17B1g    9.190216  
      17B2g    9.190216    28Ag     9.280193    29Ag     9.374286  
      11B3g    9.374293    18B1u    9.526250    18B2u    9.526250  
      27B3u   10.141486    10Au    10.141491    11Au    10.401882  
      28B3u   10.401883    19B1u   10.576864    19B2u   10.576864  
      18B1g   10.955452    18B2g   10.955452    29B3u   11.118761  
      30Ag    12.732244    19B1g   12.982618    19B2g   12.982618  
      30B3u   13.839523    31B3u   32.711539    31Ag    33.088009  

    Final Occupation by Irrep:
             Ag   B1g   B2g   B3g    Au   B1u   B2u   B3u 
    DOCC [     3,    0,    0,    0,    0,    1,    1,    2 ]

  @DF-RKS Final Energy:  -109.27519635278971

   => Energetics <=

    Nuclear Repulsion Energy =             23.6253017196739918
    One-Electron Energy =                -194.4080315507877970
    Two-Electron Energy =                  65.5938686005219438
    DFT Exchange-Correlation Energy =      -4.0858278421978369
    Empirical Dispersion Energy =          -0.0005072800000000
    VV10 Nonlocal Energy =                  0.0000000000000000
    Total Energy =                       -109.2751963527896919

Computation Completed


Properties will be evaluated at   0.000000,   0.000000,   0.000000 [a0]

Properties computed using the SCF density matrix

  Nuclear Dipole Moment: [e a0]
     X:     0.0000      Y:     0.0000      Z:     0.0000

  Electronic Dipole Moment: [e a0]
     X:     0.0000      Y:     0.0000      Z:     0.0000

  Dipole Moment: [e a0]
     X:     0.0000      Y:     0.0000      Z:     0.0000     Total:     0.0000

  Dipole Moment: [D]
     X:     0.0000      Y:     0.0000      Z:     0.0000     Total:     0.0000


*** tstop() called on bp1-compute00149.data.bp.acrc.priv at Mon Apr 19 15:46:00 2021
Module time:
	user time   =      33.28 seconds =       0.55 minutes
	system time =       1.46 seconds =       0.02 minutes
	total time  =          1 seconds =       0.02 minutes
Total time:
	user time   =      75.44 seconds =       1.26 minutes
	system time =       3.33 seconds =       0.06 minutes
	total time  =          4 seconds =       0.07 minutes

*** tstart() called on bp1-compute00149.data.bp.acrc.priv
*** at Mon Apr 19 15:46:00 2021

   => Loading Basis Set <=

    Name: (AUG-CC-PV(Q+D)Z AUX)
    Role: RIFIT
    Keyword: DF_BASIS_MP2
    atoms 1-2 entry N          line   258 file /work/zw18965/.conda/envs/p4env/share/psi4/basis/aug-cc-pvqz-ri.gbs 

	 --------------------------------------------------------
	                          DF-MP2                         
	      2nd-Order Density-Fitted Moller-Plesset Theory     
	              RMP2 Wavefunction,  24 Threads             
	                                                         
	        Rob Parrish, Justin Turney, Andy Simmonett,      
	           Ed Hohenstein, and C. David Sherrill          
	 --------------------------------------------------------

   => Auxiliary Basis Set <=

  Basis Set: (AUG-CC-PV(Q+D)Z AUX)
    Blend: AUG-CC-PVQZ-RI
    Number of shells: 72
    Number of basis function: 336
    Number of Cartesian functions: 474
    Spherical Harmonics?: true
    Max angular momentum: 5

	 --------------------------------------------------------
	                 NBF =   160, NAUX =   336
	 --------------------------------------------------------
	   CLASS    FOCC     OCC    AOCC    AVIR     VIR    FVIR
	   PAIRS       0       7       7     153     153       0
	 --------------------------------------------------------

	-----------------------------------------------------------
	 ==================> DF-MP2 Energies <==================== 
	-----------------------------------------------------------
	 Reference Energy          =    -109.2751963527897061 [Eh]
	 Singles Energy            =      -0.0000000000000000 [Eh]
	 Same-Spin Energy          =      -0.1229946928577629 [Eh]
	 Opposite-Spin Energy      =      -0.3910019405929618 [Eh]
	 Correlation Energy        =      -0.5139966334507248 [Eh]
	 Total Energy              =    -109.7891929862404368 [Eh]
	-----------------------------------------------------------
	 ================> DF-SCS-MP2 Energies <================== 
	-----------------------------------------------------------
	 SCS Same-Spin Scale       =       0.4000000000000000 [-]
	 SCS Opposite-Spin Scale   =       0.4700000000000000 [-]
	 SCS Same-Spin Energy      =      -0.0491978771431052 [Eh]
	 SCS Opposite-Spin Energy  =      -0.1837709120786920 [Eh]
	 SCS Correlation Energy    =      -0.2329687892217972 [Eh]
	 SCS Total Energy          =    -109.5081651420115065 [Eh]
	-----------------------------------------------------------



    DSD-BLYP-D3BJ Energy Summary
    ----------------------------
    DFT Reference Energy                  =  -109.2751963527897061
    Scaled MP2 Correlation                =    -0.2329687892217972
    @Final double-hybrid DFT total energy =  -109.5081651420115065


*** tstop() called on bp1-compute00149.data.bp.acrc.priv at Mon Apr 19 15:46:01 2021
Module time:
	user time   =       9.18 seconds =       0.15 minutes
	system time =       0.40 seconds =       0.01 minutes
	total time  =          1 seconds =       0.02 minutes
Total time:
	user time   =      84.64 seconds =       1.41 minutes
	system time =       3.73 seconds =       0.06 minutes
	total time  =          5 seconds =       0.08 minutes

  //>>>>>>>>>>>>>>>>>>>>>>>>>>>>>>>>>>>//
  //    Loading displacement 3 of 3    //
  //<<<<<<<<<<<<<<<<<<<<<<<<<<<<<<<<<<<//

*** tstart() called on bp1-compute00149.data.bp.acrc.priv
*** at Mon Apr 19 15:46:01 2021

   => Loading Basis Set <=

    Name: AUG-CC-PV(Q+D)Z
    Role: ORBITAL
    Keyword: BASIS
    atoms 1-2 entry N          line   379 file /work/zw18965/.conda/envs/p4env/share/psi4/basis/aug-cc-pv_qpd_z.gbs 


         ---------------------------------------------------------
                                   SCF
               by Justin Turney, Rob Parrish, Andy Simmonett
                          and Daniel G. A. Smith
                              RKS Reference
                       24 Threads, 137329 MiB Core
         ---------------------------------------------------------

  ==> Geometry <==

    Molecular point group: d2h
    Full point group: D_inf_h

    Geometry (in Angstrom), charge = 0, multiplicity = 1:

       Center              X                  Y                   Z               Mass       
    ------------   -----------------  -----------------  -----------------  -----------------
         N            0.549769299330     0.000000000000     0.000000000000    14.003074004430
         N           -0.549769299330    -0.000000000000     0.000000000000    14.003074004430

  Running in d2h symmetry.

  Rotational constants: A = ************  B =      1.99151  C =      1.99151 [cm^-1]
  Rotational constants: A = ************  B =  59703.92070  C =  59703.92070 [MHz]
  Nuclear repulsion =   23.582331129094193

  Charge       = 0
  Multiplicity = 1
  Electrons    = 14
  Nalpha       = 7
  Nbeta        = 7

  ==> Algorithm <==

  SCF Algorithm Type is DF.
  DIIS enabled.
  MOM disabled.
  Fractional occupation disabled.
  Guess Type is SAD.
  Energy threshold   = 1.00e-08
  Density threshold  = 1.00e-08
  Integral threshold = 0.00e+00

  ==> Primary Basis <==

  Basis Set: AUG-CC-PV(Q+D)Z
    Blend: AUG-CC-PV(Q+D)Z
    Number of shells: 40
    Number of basis function: 160
    Number of Cartesian functions: 210
    Spherical Harmonics?: true
    Max angular momentum: 4

  ==> DFT Potential <==

   => Composite Functional: DSD-BLYP-D3BJ <= 

    DSD-BLYP-D3BJ Dispersion-corrected SCS Double Hybrid XC Functional

    S. Kozuch, J.M.L. Martin, J. Comp. Chem., 34, 2327-2344, 2013


    Deriv               =              1
    GGA                 =           TRUE
    Meta                =          FALSE

    Exchange Hybrid     =           TRUE
    MP2 Hybrid          =           TRUE

   => Exchange Functionals <=

    0.2900     XC_GGA_X_B88

   => Exact (HF) Exchange <=

    0.7100               HF 

   => Correlation Functionals <=

    0.5400     XC_GGA_C_LYP

   => MP2 Correlation <=

    MP2 SCS Hybrid      =           TRUE
    MP2 OS Alpha        =       0.470000
    MP2 SS Alpha        =       0.400000

   => Molecular Quadrature <=

    Radial Scheme          =       TREUTLER
    Pruning Scheme         =           FLAT
    Nuclear Scheme         =       TREUTLER

    BS radius alpha        =              1
    Pruning alpha          =              1
    Radial Points          =             75
    Spherical Points       =            302
    Total Points           =          45300
    Total Blocks           =            428
    Max Points             =            255
    Max Functions          =            160

   => DSD-BLYP-D3BJ: Empirical Dispersion <=

    Grimme's -D3 (BJ-damping) Dispersion Correction
    Grimme S.; Ehrlich S.; Goerigk L. (2011), J. Comput. Chem., 32: 1456
    Parametrisation from:    S. Kozuch, J.M.L. Martin, J. Comp. Chem., 34, 2327-2344, 2013

        s6 =       0.570000
        s8 =       0.000000
        a1 =       0.000000
        a2 =       5.400000

   => Loading Basis Set <=

    Name: (AUG-CC-PV(Q+D)Z AUX)
    Role: JKFIT
    Keyword: DF_BASIS_SCF
    atoms 1-2 entry N          line   248 file /work/zw18965/.conda/envs/p4env/share/psi4/basis/aug-cc-pvqz-jkfit.gbs 

  ==> Pre-Iterations <==

   -------------------------------------------------------
    Irrep   Nso     Nmo     Nalpha   Nbeta   Ndocc  Nsocc
   -------------------------------------------------------
     Ag        31      31       0       0       0       0
     B1g       19      19       0       0       0       0
     B2g       19      19       0       0       0       0
     B3g       11      11       0       0       0       0
     Au        11      11       0       0       0       0
     B1u       19      19       0       0       0       0
     B2u       19      19       0       0       0       0
     B3u       31      31       0       0       0       0
   -------------------------------------------------------
    Total     160     160       7       7       7       0
   -------------------------------------------------------

  ==> Integral Setup <==

  DFHelper Memory: AOs need 0.066 GiB; user supplied 100.392 GiB. Using in-core AOs.

  ==> MemDFJK: Density-Fitted J/K Matrices <==

    J tasked:                   Yes
    K tasked:                   Yes
    wK tasked:                   No
    OpenMP threads:              24
    Memory [MiB]:            102801
    Algorithm:                 Core
    Schwarz Cutoff:           1E-12
    Mask sparsity (%):       0.0000
    Fitting Condition:        1E-10

   => Auxiliary Basis Set <=

  Basis Set: (AUG-CC-PV(Q+D)Z AUX)
    Blend: AUG-CC-PVQZ-JKFIT
    Number of shells: 68
    Number of basis function: 284
    Number of Cartesian functions: 396
    Spherical Harmonics?: true
    Max angular momentum: 5

  Cached 100.0% of DFT collocation blocks in 0.191 [GiB].

  Minimum eigenvalue in the overlap matrix is 3.2312376888E-05.
  Using Symmetric Orthogonalization.

  SCF Guess: Superposition of Atomic Densities via on-the-fly atomic UHF.

  ==> Iterations <==

                           Total Energy        Delta E     RMS |[F,P]|

   @DF-RKS iter SAD:  -108.48647471224777   -1.08486e+02   0.00000e+00 
   @DF-RKS iter   1:  -109.26399836304473   -7.77524e-01   2.88658e-03 DIIS
   @DF-RKS iter   2:  -109.27360083361597   -9.60247e-03   9.90845e-04 DIIS
   @DF-RKS iter   3:  -109.27485508638057   -1.25425e-03   1.08083e-04 DIIS
   @DF-RKS iter   4:  -109.27487426774861   -1.91814e-05   1.52515e-05 DIIS
   @DF-RKS iter   5:  -109.27487466739403   -3.99645e-07   2.36066e-06 DIIS
   @DF-RKS iter   6:  -109.27487468923520   -2.18412e-08   2.35310e-07 DIIS
   @DF-RKS iter   7:  -109.27487468945965   -2.24446e-10   1.52557e-08 DIIS
   @DF-RKS iter   8:  -109.27487468946055   -8.95284e-13   1.59216e-09 DIIS
  Energy and wave function converged.


  ==> Post-Iterations <==

    Orbital Energies [Eh]
    ---------------------

    Doubly Occupied:                                                      

       1Ag   -15.235367     1B3u  -15.232458     2Ag    -1.350995  
       2B3u   -0.703981     3Ag    -0.566784     1B2u   -0.566485  
       1B1u   -0.566485  

    Virtual:                                                              

       3B3u    0.060503     1B2g    0.067328     1B1g    0.067328  
       4Ag     0.080324     2B2u    0.089549     2B1u    0.089549  
       5Ag     0.119498     2B2g    0.139713     2B1g    0.139713  
       4B3u    0.221673     6Ag     0.279407     1B3g    0.279407  
       7Ag     0.326696     5B3u    0.376099     3B1g    0.386949  
       3B2g    0.386949     6B3u    0.391976     1Au     0.391976  
       3B2u    0.392041     3B1u    0.392041     4B2u    0.503941  
       4B1u    0.503941     7B3u    0.572937     8Ag     0.587050  
       9Ag     0.732011     4B1g    0.797594     4B2g    0.797594  
       8B3u    0.836591     5B2u    0.887161     5B1u    0.887161  
       2B3g    0.922093    10Ag     0.922093     6B2u    0.982351  
       6B1u    0.982351     9B3u    1.002334     2Au     1.002334  
      10B3u    1.112048    11Ag     1.115989     5B2g    1.127730  
       5B1g    1.127730     6B1g    1.128156     6B2g    1.128156  
      12Ag     1.135776     3B3g    1.135776    11B3u    1.338334  
       7B2u    1.502203     7B1u    1.502203    13Ag     1.513961  
      12B3u    1.622543     3Au     1.622543     7B2g    1.675793  
       7B1g    1.675793    13B3u    1.735980     8B2u    1.981282  
       8B1u    1.981282     4B3g    2.571948    14Ag     2.571948  
      15Ag     2.598921     9B1u    2.711573     9B2u    2.711573  
      16Ag     2.727785     5B3g    2.727785    17Ag     2.755120  
       8B2g    2.821745     8B1g    2.821745    14B3u    2.847384  
      10B1u    2.935736    10B2u    2.935736    15B3u    2.995024  
       4Au     2.995024    16B3u    3.008567     5Au     3.015673  
      17B3u    3.015673    11B1u    3.026166    11B2u    3.026166  
       9B2g    3.043561     9B1g    3.043561    12B2u    3.053325  
      12B1u    3.053325    18Ag     3.056916     6B3g    3.056916  
      10B2g    3.244432    10B1g    3.244432    19Ag     3.246500  
      18B3u    3.319436     6Au     3.319436    19B3u    3.425556  
      20Ag     3.439074    11B2g    3.459753    11B1g    3.459753  
      21Ag     3.740576     7B3g    3.740576    12B2g    3.801762  
      12B1g    3.801762    13B1u    4.661323    13B2u    4.661323  
       7Au     5.009137    20B3u    5.009137    21B3u    5.101639  
      22Ag     5.402978    22B3u    5.593988    13B2g    5.616183  
      13B1g    5.616183    14B2u    7.596528    14B1u    7.596528  
       8B3g    7.659058    23Ag     7.659058    15B2u    7.817896  
      15B1u    7.817896     9B3g    7.882623    24Ag     7.882633  
      25Ag     7.932030    14B2g    8.157241    14B1g    8.157241  
       8Au     8.205662    23B3u    8.205672    16B1u    8.319296  
      16B2u    8.319296    26Ag     8.606845    24B3u    8.685908  
       9Au     8.685914    15B2g    8.687001    15B1g    8.687001  
      16B2g    8.734492    16B1g    8.734492    17B1u    8.891729  
      17B2u    8.891729    25B3u    8.970939    27Ag     9.122959  
      10B3g    9.122962    26B3u    9.156595    17B2g    9.185992  
      17B1g    9.185992    28Ag     9.280879    29Ag     9.372177  
      11B3g    9.372184    18B1u    9.526254    18B2u    9.526254  
      27B3u   10.135029    10Au    10.135034    11Au    10.391707  
      28B3u   10.391708    19B2u   10.566064    19B1u   10.566064  
      18B2g   10.947857    18B1g   10.947857    29B3u   11.111777  
      30Ag    12.717602    19B2g   12.968135    19B1g   12.968135  
      30B3u   13.833990    31B3u   32.673163    31Ag    33.078917  

    Final Occupation by Irrep:
             Ag   B1g   B2g   B3g    Au   B1u   B2u   B3u 
    DOCC [     3,    0,    0,    0,    0,    1,    1,    2 ]

  @DF-RKS Final Energy:  -109.27487468946055

   => Energetics <=

    Nuclear Repulsion Energy =             23.5823311290941930
    One-Electron Energy =                -194.3240999072628483
    Two-Electron Energy =                  65.5524378331802495
    DFT Exchange-Correlation Energy =      -4.0850364844721501
    Empirical Dispersion Energy =          -0.0005072600000000
    VV10 Nonlocal Energy =                  0.0000000000000000
    Total Energy =                       -109.2748746894605603

Computation Completed


Properties will be evaluated at   0.000000,   0.000000,   0.000000 [a0]

Properties computed using the SCF density matrix

  Nuclear Dipole Moment: [e a0]
     X:     0.0000      Y:     0.0000      Z:     0.0000

  Electronic Dipole Moment: [e a0]
     X:     0.0000      Y:     0.0000      Z:     0.0000

  Dipole Moment: [e a0]
     X:     0.0000      Y:     0.0000      Z:     0.0000     Total:     0.0000

  Dipole Moment: [D]
     X:     0.0000      Y:     0.0000      Z:     0.0000     Total:     0.0000


*** tstop() called on bp1-compute00149.data.bp.acrc.priv at Mon Apr 19 15:46:02 2021
Module time:
	user time   =      32.26 seconds =       0.54 minutes
	system time =       1.26 seconds =       0.02 minutes
	total time  =          1 seconds =       0.02 minutes
Total time:
	user time   =     117.14 seconds =       1.95 minutes
	system time =       5.00 seconds =       0.08 minutes
	total time  =          6 seconds =       0.10 minutes

*** tstart() called on bp1-compute00149.data.bp.acrc.priv
*** at Mon Apr 19 15:46:02 2021

   => Loading Basis Set <=

    Name: (AUG-CC-PV(Q+D)Z AUX)
    Role: RIFIT
    Keyword: DF_BASIS_MP2
    atoms 1-2 entry N          line   258 file /work/zw18965/.conda/envs/p4env/share/psi4/basis/aug-cc-pvqz-ri.gbs 

	 --------------------------------------------------------
	                          DF-MP2                         
	      2nd-Order Density-Fitted Moller-Plesset Theory     
	              RMP2 Wavefunction,  24 Threads             
	                                                         
	        Rob Parrish, Justin Turney, Andy Simmonett,      
	           Ed Hohenstein, and C. David Sherrill          
	 --------------------------------------------------------

   => Auxiliary Basis Set <=

  Basis Set: (AUG-CC-PV(Q+D)Z AUX)
    Blend: AUG-CC-PVQZ-RI
    Number of shells: 72
    Number of basis function: 336
    Number of Cartesian functions: 474
    Spherical Harmonics?: true
    Max angular momentum: 5

	 --------------------------------------------------------
	                 NBF =   160, NAUX =   336
	 --------------------------------------------------------
	   CLASS    FOCC     OCC    AOCC    AVIR     VIR    FVIR
	   PAIRS       0       7       7     153     153       0
	 --------------------------------------------------------

	-----------------------------------------------------------
	 ==================> DF-MP2 Energies <==================== 
	-----------------------------------------------------------
	 Reference Energy          =    -109.2748746894605461 [Eh]
	 Singles Energy            =      -0.0000000000000000 [Eh]
	 Same-Spin Energy          =      -0.1232031975644474 [Eh]
	 Opposite-Spin Energy      =      -0.3914841135459866 [Eh]
	 Correlation Energy        =      -0.5146873111104341 [Eh]
	 Total Energy              =    -109.7895620005709816 [Eh]
	-----------------------------------------------------------
	 ================> DF-SCS-MP2 Energies <================== 
	-----------------------------------------------------------
	 SCS Same-Spin Scale       =       0.4000000000000000 [-]
	 SCS Opposite-Spin Scale   =       0.4700000000000000 [-]
	 SCS Same-Spin Energy      =      -0.0492812790257790 [Eh]
	 SCS Opposite-Spin Energy  =      -0.1839975333666137 [Eh]
	 SCS Correlation Energy    =      -0.2332788123923927 [Eh]
	 SCS Total Energy          =    -109.5081535018529451 [Eh]
	-----------------------------------------------------------



    DSD-BLYP-D3BJ Energy Summary
    ----------------------------
    DFT Reference Energy                  =  -109.2748746894605461
    Scaled MP2 Correlation                =    -0.2332788123923927
    @Final double-hybrid DFT total energy =  -109.5081535018529451


*** tstop() called on bp1-compute00149.data.bp.acrc.priv at Mon Apr 19 15:46:03 2021
Module time:
	user time   =       9.91 seconds =       0.17 minutes
	system time =       0.40 seconds =       0.01 minutes
	total time  =          1 seconds =       0.02 minutes
Total time:
	user time   =     127.07 seconds =       2.12 minutes
	system time =       5.40 seconds =       0.09 minutes
	total time  =          7 seconds =       0.12 minutes

         ----------------------------------------------------------
                                   FINDIF
                     R. A. King and Jonathon Misiewicz
         ---------------------------------------------------------

  Computing gradient from energies.
    Using 3-point formula.
    Energy without displacement: -109.5081618934
    Check energies below for precision!
    Forces are for mass-weighted, symmetry-adapted cartesians (in au).

     Coord      Energy(-1)        Energy(+1)            Force
        0   -109.5081651420   -109.5081535019      0.0011640159


-------------------------------------------------------------
  ## New Matrix (Symmetry 0) ##
  Irrep: 1 Size: 2 x 3

                 1                   2                   3

    1     0.00308003456611     0.00000000000000     0.00000000000000
    2    -0.00308003456611     0.00000000000000     0.00000000000000




			-----------------------------------------
			 OPTKING 2.0: for geometry optimizations 
			  - R.A. King,  Bethel University        
			-----------------------------------------

	Internal coordinates to be generated automatically.
	Detected frag 1 with atoms:  1 2
	---Fragment 1 Bond Connectivity---
	 1 : 2
	 2 : 1

	---Fragment 1 Geometry and Gradient---
	 N           1.0379686005        0.0000000000        0.0000000000
	 N          -1.0379686005       -0.0000000000        0.0000000000
	             0.0030800346        0.0000000000        0.0000000000
	            -0.0030800346        0.0000000000        0.0000000000

	Previous optimization step data not found.  Starting new optimization.

	---Fragment 1 Intrafragment Coordinates---
	 - Coordinate -           - BOHR/RAD -       - ANG/DEG -
	 R(1,2)           =         2.075937	       1.098539

	Current energy   :      -109.5081618934

	Generating empirical Hessian (Schlegel '84) for each fragment.
	Taking RFO optimization step.
	Going to follow RFO solution 1.
	Using RFO vector 1.
	Norm of target step-size    0.00173
	Projected energy change by RFO approximation:        -0.0000038298

	Back-transformation to cartesian coordinates...
	Successfully converged to displaced geometry.

	--- Internal Coordinate Step in ANG or DEG, aJ/ANG or AJ/DEG ---
	 ---------------------------------------------------------------------------
	   Coordinate                Previous        Force       Change         New 
	   ----------                --------       ------       ------       ------
	    1 R(1,2)          =      1.098539    -0.025376    -0.000915     1.097624
	 ---------------------------------------------------------------------------
	Successfully symmetrized geometry.

  ==> Convergence Check <==

  Measures of convergence in internal coordinates in au.
  Criteria marked as inactive (o), active & met (*), and active & unmet ( ).
  --------------------------------------------------------------------------------------------- ~
   Step     Total Energy     Delta E     MAX Force     RMS Force      MAX Disp      RMS Disp    ~
  --------------------------------------------------------------------------------------------- ~
    Convergence Criteria    1.00e-06 *    3.00e-04 *             o    1.20e-03 *             o  ~
  --------------------------------------------------------------------------------------------- ~
      1    -109.50816189   -1.10e+02      3.08e-03      3.08e-03 o    1.73e-03      1.73e-03 o  ~
  ---------------------------------------------------------------------------------------------

	Writing optimization data to binary file.
	Structure for next step:
	Cartesian Geometry (in Angstrom)
	    N     0.5488120123   0.0000000000   0.0000000000
	    N    -0.5488120123  -0.0000000000   0.0000000000
			--------------------------
			 OPTKING Finished Execution 
			--------------------------

    Structure for next step:
    Molecular point group: d2h
    Full point group: D_inf_h

    Geometry (in Angstrom), charge = 0, multiplicity = 1:

    N            0.548812014502     0.000000000000     0.000000000000
    N           -0.548812014502    -0.000000000000     0.000000000000

gradient() will perform gradient computation by finite difference of analytic energies.

         ----------------------------------------------------------
                                   FINDIF
                     R. A. King and Jonathon Misiewicz
         ---------------------------------------------------------

  Using finite-differences of energies to determine gradients.
    Generating geometries for use with 3-point formula.
    Displacement size will be 5.00e-03.
    Number of atoms is 2.
    Number of symmetric SALCs is 1.
    Translations projected? 1. Rotations projected? 1.
    Number of geometries (including reference) is 3.

  //>>>>>>>>>>>>>>>>>>>>>>>>>>>>>>>>>>>//
  //    Loading displacement 1 of 3    //
  //<<<<<<<<<<<<<<<<<<<<<<<<<<<<<<<<<<<//

*** tstart() called on bp1-compute00149.data.bp.acrc.priv
*** at Mon Apr 19 15:46:03 2021

   => Loading Basis Set <=

    Name: AUG-CC-PV(Q+D)Z
    Role: ORBITAL
    Keyword: BASIS
    atoms 1-2 entry N          line   379 file /work/zw18965/.conda/envs/p4env/share/psi4/basis/aug-cc-pv_qpd_z.gbs 


         ---------------------------------------------------------
                                   SCF
               by Justin Turney, Rob Parrish, Andy Simmonett
                          and Daniel G. A. Smith
                              RKS Reference
                       24 Threads, 137329 MiB Core
         ---------------------------------------------------------

  ==> Geometry <==

    Molecular point group: d2h
    Full point group: D_inf_h

    Geometry (in Angstrom), charge = 0, multiplicity = 1:

       Center              X                  Y                   Z               Mass       
    ------------   -----------------  -----------------  -----------------  -----------------
         N            0.548812014502     0.000000000000     0.000000000000    14.003074004430
         N           -0.548812014502    -0.000000000000     0.000000000000    14.003074004430

  Running in d2h symmetry.

  Rotational constants: A = ************  B =      1.99846  C =      1.99846 [cm^-1]
  Rotational constants: A = ************  B =  59912.38371  C =  59912.38371 [MHz]
  Nuclear repulsion =   23.623465446854862

  Charge       = 0
  Multiplicity = 1
  Electrons    = 14
  Nalpha       = 7
  Nbeta        = 7

  ==> Algorithm <==

  SCF Algorithm Type is DF.
  DIIS enabled.
  MOM disabled.
  Fractional occupation disabled.
  Guess Type is READ.
  Energy threshold   = 1.00e-08
  Density threshold  = 1.00e-08
  Integral threshold = 0.00e+00

  ==> Primary Basis <==

  Basis Set: AUG-CC-PV(Q+D)Z
    Blend: AUG-CC-PV(Q+D)Z
    Number of shells: 40
    Number of basis function: 160
    Number of Cartesian functions: 210
    Spherical Harmonics?: true
    Max angular momentum: 4

  ==> DFT Potential <==

   => Composite Functional: DSD-BLYP-D3BJ <= 

    DSD-BLYP-D3BJ Dispersion-corrected SCS Double Hybrid XC Functional

    S. Kozuch, J.M.L. Martin, J. Comp. Chem., 34, 2327-2344, 2013


    Deriv               =              1
    GGA                 =           TRUE
    Meta                =          FALSE

    Exchange Hybrid     =           TRUE
    MP2 Hybrid          =           TRUE

   => Exchange Functionals <=

    0.2900     XC_GGA_X_B88

   => Exact (HF) Exchange <=

    0.7100               HF 

   => Correlation Functionals <=

    0.5400     XC_GGA_C_LYP

   => MP2 Correlation <=

    MP2 SCS Hybrid      =           TRUE
    MP2 OS Alpha        =       0.470000
    MP2 SS Alpha        =       0.400000

   => Molecular Quadrature <=

    Radial Scheme          =       TREUTLER
    Pruning Scheme         =           FLAT
    Nuclear Scheme         =       TREUTLER

    BS radius alpha        =              1
    Pruning alpha          =              1
    Radial Points          =             75
    Spherical Points       =            302
    Total Points           =          45300
    Total Blocks           =            426
    Max Points             =            256
    Max Functions          =            160

   => DSD-BLYP-D3BJ: Empirical Dispersion <=

    Grimme's -D3 (BJ-damping) Dispersion Correction
    Grimme S.; Ehrlich S.; Goerigk L. (2011), J. Comput. Chem., 32: 1456
    Parametrisation from:    S. Kozuch, J.M.L. Martin, J. Comp. Chem., 34, 2327-2344, 2013

        s6 =       0.570000
        s8 =       0.000000
        a1 =       0.000000
        a2 =       5.400000

   => Loading Basis Set <=

    Name: (AUG-CC-PV(Q+D)Z AUX)
    Role: JKFIT
    Keyword: DF_BASIS_SCF
    atoms 1-2 entry N          line   248 file /work/zw18965/.conda/envs/p4env/share/psi4/basis/aug-cc-pvqz-jkfit.gbs 

   => Loading Basis Set <=

    Name: AUG-CC-PV(Q+D)Z
    Role: ORBITAL
    Keyword: BASIS
    atoms 1-2 entry N          line   379 file /work/zw18965/.conda/envs/p4env/share/psi4/basis/aug-cc-pv_qpd_z.gbs 

  Reading orbitals from file 180, no projection.

  ==> Pre-Iterations <==

   -------------------------------------------------------
    Irrep   Nso     Nmo     Nalpha   Nbeta   Ndocc  Nsocc
   -------------------------------------------------------
     Ag        31      31       0       0       0       0
     B1g       19      19       0       0       0       0
     B2g       19      19       0       0       0       0
     B3g       11      11       0       0       0       0
     Au        11      11       0       0       0       0
     B1u       19      19       0       0       0       0
     B2u       19      19       0       0       0       0
     B3u       31      31       0       0       0       0
   -------------------------------------------------------
    Total     160     160       7       7       7       0
   -------------------------------------------------------

  ==> Integral Setup <==

  DFHelper Memory: AOs need 0.066 GiB; user supplied 100.392 GiB. Using in-core AOs.

  ==> MemDFJK: Density-Fitted J/K Matrices <==

    J tasked:                   Yes
    K tasked:                   Yes
    wK tasked:                   No
    OpenMP threads:              24
    Memory [MiB]:            102801
    Algorithm:                 Core
    Schwarz Cutoff:           1E-12
    Mask sparsity (%):       0.0000
    Fitting Condition:        1E-10

   => Auxiliary Basis Set <=

  Basis Set: (AUG-CC-PV(Q+D)Z AUX)
    Blend: AUG-CC-PVQZ-JKFIT
    Number of shells: 68
    Number of basis function: 284
    Number of Cartesian functions: 396
    Spherical Harmonics?: true
    Max angular momentum: 5

  Cached 100.0% of DFT collocation blocks in 0.191 [GiB].

  Minimum eigenvalue in the overlap matrix is 3.2112230261E-05.
  Using Symmetric Orthogonalization.

  SCF Guess: Orbitals guess was supplied from a previous computation.

  ==> Iterations <==

                           Total Energy        Delta E     RMS |[F,P]|

   @DF-RKS iter   0:  -109.27606793180550   -1.09276e+02   7.67947e-05 
   @DF-RKS iter   1:  -109.27518304044899    8.84891e-04   4.40058e-06 DIIS
   @DF-RKS iter   2:  -109.27518307101491   -3.05659e-08   1.47414e-06 DIIS
   @DF-RKS iter   3:  -109.27518307328262   -2.26771e-09   2.27909e-07 DIIS
   @DF-RKS iter   4:  -109.27518307339044   -1.07818e-10   4.90846e-08 DIIS
   @DF-RKS iter   5:  -109.27518307339507   -4.63274e-12   5.39109e-09 DIIS
  Energy and wave function converged.


  ==> Post-Iterations <==

    Orbital Energies [Eh]
    ---------------------

    Doubly Occupied:                                                      

       1Ag   -15.234728     1B3u  -15.231783     2Ag    -1.352283  
       2B3u   -0.703391     1B1u   -0.567223     1B2u   -0.567223  
       3Ag    -0.566928  

    Virtual:                                                              

       3B3u    0.060520     1B1g    0.067957     1B2g    0.067957  
       4Ag     0.080347     2B2u    0.089523     2B1u    0.089523  
       5Ag     0.119508     2B1g    0.139993     2B2g    0.139993  
       4B3u    0.221715     6Ag     0.279440     1B3g    0.279440  
       7Ag     0.326646     5B3u    0.376240     3B1g    0.387089  
       3B2g    0.387089     6B3u    0.391942     1Au     0.391942  
       3B2u    0.392023     3B1u    0.392023     4B2u    0.503739  
       4B1u    0.503739     7B3u    0.573178     8Ag     0.587024  
       9Ag     0.732074     4B2g    0.798009     4B1g    0.798009  
       8B3u    0.838474     5B2u    0.887229     5B1u    0.887229  
       2B3g    0.922119    10Ag     0.922119     6B1u    0.982279  
       6B2u    0.982279     9B3u    1.002057     2Au     1.002057  
      10B3u    1.113407    11Ag     1.116380     5B2g    1.127867  
       5B1g    1.127867     6B2g    1.128442     6B1g    1.128442  
      12Ag     1.135952     3B3g    1.135952    11B3u    1.338524  
       7B1u    1.503280     7B2u    1.503280    13Ag     1.513083  
      12B3u    1.623460     3Au     1.623460     7B1g    1.675848  
       7B2g    1.675848    13B3u    1.738134     8B2u    1.980671  
       8B1u    1.980671     4B3g    2.571898    14Ag     2.571899  
      15Ag     2.599884     9B2u    2.712128     9B1u    2.712128  
      16Ag     2.727724     5B3g    2.727724    17Ag     2.756529  
       8B1g    2.823192     8B2g    2.823192    14B3u    2.847593  
      10B2u    2.937371    10B1u    2.937371    15B3u    2.995345  
       4Au     2.995345    16B3u    3.008244     5Au     3.016416  
      17B3u    3.016416    11B2u    3.026618    11B1u    3.026618  
       9B2g    3.043120     9B1g    3.043120    12B2u    3.053588  
      12B1u    3.053588    18Ag     3.056578     6B3g    3.056579  
      10B1g    3.244353    10B2g    3.244353    19Ag     3.244638  
      18B3u    3.319254     6Au     3.319255    19B3u    3.427707  
      20Ag     3.441072    11B1g    3.461620    11B2g    3.461620  
      21Ag     3.743511     7B3g    3.743511    12B1g    3.804521  
      12B2g    3.804521    13B2u    4.663047    13B1u    4.663047  
       7Au     5.013275    20B3u    5.013275    21B3u    5.108253  
      22Ag     5.411814    22B3u    5.592780    13B1g    5.619520  
      13B2g    5.619520    14B2u    7.595014    14B1u    7.595014  
       8B3g    7.660777    23Ag     7.660777    15B1u    7.818415  
      15B2u    7.818415     9B3g    7.881652    24Ag     7.881661  
      25Ag     7.931931    14B1g    8.154835    14B2g    8.154835  
       8Au     8.207000    23B3u    8.207010    16B2u    8.321743  
      16B1u    8.321743    26Ag     8.606167    24B3u    8.682732  
       9Au     8.682737    15B1g    8.688811    15B2g    8.688811  
      16B1g    8.735899    16B2g    8.735899    17B1u    8.892045  
      17B2u    8.892045    25B3u    8.974140    27Ag     9.123739  
      10B3g    9.123742    26B3u    9.162277    17B1g    9.190035  
      17B2g    9.190035    28Ag     9.280221    29Ag     9.374195  
      11B3g    9.374202    18B2u    9.526250    18B1u    9.526250  
      27B3u   10.141210    10Au    10.141215    11Au    10.401447  
      28B3u   10.401448    19B1u   10.576402    19B2u   10.576402  
      18B1g   10.955128    18B2g   10.955128    29B3u   11.118464  
      30Ag    12.731618    19B1g   12.981999    19B2g   12.981999  
      30B3u   13.839286    31B3u   32.709892    31Ag    33.087629  

    Final Occupation by Irrep:
             Ag   B1g   B2g   B3g    Au   B1u   B2u   B3u 
    DOCC [     3,    0,    0,    0,    0,    1,    1,    2 ]

  @DF-RKS Final Energy:  -109.27518307339507

   => Energetics <=

    Nuclear Repulsion Energy =             23.6234654468548619
    One-Electron Energy =                -194.4044448260390823
    Two-Electron Energy =                  65.5920975564545898
    DFT Exchange-Correlation Energy =      -4.0857939806654251
    Empirical Dispersion Energy =          -0.0005072700000000
    VV10 Nonlocal Energy =                  0.0000000000000000
    Total Energy =                       -109.2751830733950698

Computation Completed


Properties will be evaluated at   0.000000,   0.000000,   0.000000 [a0]

Properties computed using the SCF density matrix

  Nuclear Dipole Moment: [e a0]
     X:     0.0000      Y:     0.0000      Z:     0.0000

  Electronic Dipole Moment: [e a0]
     X:     0.0000      Y:     0.0000      Z:     0.0000

  Dipole Moment: [e a0]
     X:     0.0000      Y:     0.0000      Z:     0.0000     Total:     0.0000

  Dipole Moment: [D]
     X:     0.0000      Y:     0.0000      Z:     0.0000     Total:     0.0000


*** tstop() called on bp1-compute00149.data.bp.acrc.priv at Mon Apr 19 15:46:04 2021
Module time:
	user time   =      22.75 seconds =       0.38 minutes
	system time =       1.22 seconds =       0.02 minutes
	total time  =          1 seconds =       0.02 minutes
Total time:
	user time   =     150.44 seconds =       2.51 minutes
	system time =       6.66 seconds =       0.11 minutes
	total time  =          8 seconds =       0.13 minutes

*** tstart() called on bp1-compute00149.data.bp.acrc.priv
*** at Mon Apr 19 15:46:04 2021

   => Loading Basis Set <=

    Name: (AUG-CC-PV(Q+D)Z AUX)
    Role: RIFIT
    Keyword: DF_BASIS_MP2
    atoms 1-2 entry N          line   258 file /work/zw18965/.conda/envs/p4env/share/psi4/basis/aug-cc-pvqz-ri.gbs 

	 --------------------------------------------------------
	                          DF-MP2                         
	      2nd-Order Density-Fitted Moller-Plesset Theory     
	              RMP2 Wavefunction,  24 Threads             
	                                                         
	        Rob Parrish, Justin Turney, Andy Simmonett,      
	           Ed Hohenstein, and C. David Sherrill          
	 --------------------------------------------------------

   => Auxiliary Basis Set <=

  Basis Set: (AUG-CC-PV(Q+D)Z AUX)
    Blend: AUG-CC-PVQZ-RI
    Number of shells: 72
    Number of basis function: 336
    Number of Cartesian functions: 474
    Spherical Harmonics?: true
    Max angular momentum: 5

	 --------------------------------------------------------
	                 NBF =   160, NAUX =   336
	 --------------------------------------------------------
	   CLASS    FOCC     OCC    AOCC    AVIR     VIR    FVIR
	   PAIRS       0       7       7     153     153       0
	 --------------------------------------------------------

	-----------------------------------------------------------
	 ==================> DF-MP2 Energies <==================== 
	-----------------------------------------------------------
	 Reference Energy          =    -109.2751830733950698 [Eh]
	 Singles Energy            =      -0.0000000000000000 [Eh]
	 Same-Spin Energy          =      -0.1230035625478345 [Eh]
	 Opposite-Spin Energy      =      -0.3910224629864839 [Eh]
	 Correlation Energy        =      -0.5140260255343183 [Eh]
	 Total Energy              =    -109.7892090989293905 [Eh]
	-----------------------------------------------------------
	 ================> DF-SCS-MP2 Energies <================== 
	-----------------------------------------------------------
	 SCS Same-Spin Scale       =       0.4000000000000000 [-]
	 SCS Opposite-Spin Scale   =       0.4700000000000000 [-]
	 SCS Same-Spin Energy      =      -0.0492014250191338 [Eh]
	 SCS Opposite-Spin Energy  =      -0.1837805576036474 [Eh]
	 SCS Correlation Energy    =      -0.2329819826227812 [Eh]
	 SCS Total Energy          =    -109.5081650560178446 [Eh]
	-----------------------------------------------------------



    DSD-BLYP-D3BJ Energy Summary
    ----------------------------
    DFT Reference Energy                  =  -109.2751830733950698
    Scaled MP2 Correlation                =    -0.2329819826227812
    @Final double-hybrid DFT total energy =  -109.5081650560178446


*** tstop() called on bp1-compute00149.data.bp.acrc.priv at Mon Apr 19 15:46:05 2021
Module time:
	user time   =       9.21 seconds =       0.15 minutes
	system time =       0.38 seconds =       0.01 minutes
	total time  =          1 seconds =       0.02 minutes
Total time:
	user time   =     159.68 seconds =       2.66 minutes
	system time =       7.04 seconds =       0.12 minutes
	total time  =          9 seconds =       0.15 minutes

  //>>>>>>>>>>>>>>>>>>>>>>>>>>>>>>>>>>>//
  //    Loading displacement 2 of 3    //
  //<<<<<<<<<<<<<<<<<<<<<<<<<<<<<<<<<<<//

*** tstart() called on bp1-compute00149.data.bp.acrc.priv
*** at Mon Apr 19 15:46:05 2021

   => Loading Basis Set <=

    Name: AUG-CC-PV(Q+D)Z
    Role: ORBITAL
    Keyword: BASIS
    atoms 1-2 entry N          line   379 file /work/zw18965/.conda/envs/p4env/share/psi4/basis/aug-cc-pv_qpd_z.gbs 


         ---------------------------------------------------------
                                   SCF
               by Justin Turney, Rob Parrish, Andy Simmonett
                          and Daniel G. A. Smith
                              RKS Reference
                       24 Threads, 137329 MiB Core
         ---------------------------------------------------------

  ==> Geometry <==

    Molecular point group: d2h
    Full point group: D_inf_h

    Geometry (in Angstrom), charge = 0, multiplicity = 1:

       Center              X                  Y                   Z               Mass       
    ------------   -----------------  -----------------  -----------------  -----------------
         N            0.548312043925     0.000000000000     0.000000000000    14.003074004430
         N           -0.548312043925    -0.000000000000     0.000000000000    14.003074004430

  Running in d2h symmetry.

  Rotational constants: A = ************  B =      2.00211  C =      2.00211 [cm^-1]
  Rotational constants: A = ************  B =  60021.69404  C =  60021.69404 [MHz]
  Nuclear repulsion =   23.645006169488820

  Charge       = 0
  Multiplicity = 1
  Electrons    = 14
  Nalpha       = 7
  Nbeta        = 7

  ==> Algorithm <==

  SCF Algorithm Type is DF.
  DIIS enabled.
  MOM disabled.
  Fractional occupation disabled.
  Guess Type is READ.
  Energy threshold   = 1.00e-08
  Density threshold  = 1.00e-08
  Integral threshold = 0.00e+00

  ==> Primary Basis <==

  Basis Set: AUG-CC-PV(Q+D)Z
    Blend: AUG-CC-PV(Q+D)Z
    Number of shells: 40
    Number of basis function: 160
    Number of Cartesian functions: 210
    Spherical Harmonics?: true
    Max angular momentum: 4

  ==> DFT Potential <==

   => Composite Functional: DSD-BLYP-D3BJ <= 

    DSD-BLYP-D3BJ Dispersion-corrected SCS Double Hybrid XC Functional

    S. Kozuch, J.M.L. Martin, J. Comp. Chem., 34, 2327-2344, 2013


    Deriv               =              1
    GGA                 =           TRUE
    Meta                =          FALSE

    Exchange Hybrid     =           TRUE
    MP2 Hybrid          =           TRUE

   => Exchange Functionals <=

    0.2900     XC_GGA_X_B88

   => Exact (HF) Exchange <=

    0.7100               HF 

   => Correlation Functionals <=

    0.5400     XC_GGA_C_LYP

   => MP2 Correlation <=

    MP2 SCS Hybrid      =           TRUE
    MP2 OS Alpha        =       0.470000
    MP2 SS Alpha        =       0.400000

   => Molecular Quadrature <=

    Radial Scheme          =       TREUTLER
    Pruning Scheme         =           FLAT
    Nuclear Scheme         =       TREUTLER

    BS radius alpha        =              1
    Pruning alpha          =              1
    Radial Points          =             75
    Spherical Points       =            302
    Total Points           =          45300
    Total Blocks           =            426
    Max Points             =            256
    Max Functions          =            160

   => DSD-BLYP-D3BJ: Empirical Dispersion <=

    Grimme's -D3 (BJ-damping) Dispersion Correction
    Grimme S.; Ehrlich S.; Goerigk L. (2011), J. Comput. Chem., 32: 1456
    Parametrisation from:    S. Kozuch, J.M.L. Martin, J. Comp. Chem., 34, 2327-2344, 2013

        s6 =       0.570000
        s8 =       0.000000
        a1 =       0.000000
        a2 =       5.400000

   => Loading Basis Set <=

    Name: (AUG-CC-PV(Q+D)Z AUX)
    Role: JKFIT
    Keyword: DF_BASIS_SCF
    atoms 1-2 entry N          line   248 file /work/zw18965/.conda/envs/p4env/share/psi4/basis/aug-cc-pvqz-jkfit.gbs 

   => Loading Basis Set <=

    Name: AUG-CC-PV(Q+D)Z
    Role: ORBITAL
    Keyword: BASIS
    atoms 1-2 entry N          line   379 file /work/zw18965/.conda/envs/p4env/share/psi4/basis/aug-cc-pv_qpd_z.gbs 

  Reading orbitals from file 180, no projection.

  ==> Pre-Iterations <==

   -------------------------------------------------------
    Irrep   Nso     Nmo     Nalpha   Nbeta   Ndocc  Nsocc
   -------------------------------------------------------
     Ag        31      31       0       0       0       0
     B1g       19      19       0       0       0       0
     B2g       19      19       0       0       0       0
     B3g       11      11       0       0       0       0
     Au        11      11       0       0       0       0
     B1u       19      19       0       0       0       0
     B2u       19      19       0       0       0       0
     B3u       31      31       0       0       0       0
   -------------------------------------------------------
    Total     160     160       7       7       7       0
   -------------------------------------------------------

  ==> Integral Setup <==

  DFHelper Memory: AOs need 0.066 GiB; user supplied 100.392 GiB. Using in-core AOs.

  ==> MemDFJK: Density-Fitted J/K Matrices <==

    J tasked:                   Yes
    K tasked:                   Yes
    wK tasked:                   No
    OpenMP threads:              24
    Memory [MiB]:            102801
    Algorithm:                 Core
    Schwarz Cutoff:           1E-12
    Mask sparsity (%):       0.0000
    Fitting Condition:        1E-10

   => Auxiliary Basis Set <=

  Basis Set: (AUG-CC-PV(Q+D)Z AUX)
    Blend: AUG-CC-PVQZ-JKFIT
    Number of shells: 68
    Number of basis function: 284
    Number of Cartesian functions: 396
    Spherical Harmonics?: true
    Max angular momentum: 5

  Cached 100.0% of DFT collocation blocks in 0.191 [GiB].

  Minimum eigenvalue in the overlap matrix is 3.2008076118E-05.
  Using Symmetric Orthogonalization.

  SCF Guess: Orbitals guess was supplied from a previous computation.

  ==> Iterations <==

                           Total Energy        Delta E     RMS |[F,P]|

   @DF-RKS iter   0:  -109.27630146334900   -1.09276e+02   8.41572e-05 
   @DF-RKS iter   1:  -109.27533602838879    9.65435e-04   4.79997e-06 DIIS
   @DF-RKS iter   2:  -109.27533606469355   -3.63048e-08   1.60103e-06 DIIS
   @DF-RKS iter   3:  -109.27533606736182   -2.66827e-09   2.49104e-07 DIIS
   @DF-RKS iter   4:  -109.27533606749044   -1.28622e-10   5.37466e-08 DIIS
   @DF-RKS iter   5:  -109.27533606749567   -5.22959e-12   5.88596e-09 DIIS
  Energy and wave function converged.


  ==> Post-Iterations <==

    Orbital Energies [Eh]
    ---------------------

    Doubly Occupied:                                                      

       1Ag   -15.234394     1B3u  -15.231430     2Ag    -1.352957  
       2B3u   -0.703083     1B1u   -0.567610     1B2u   -0.567610  
       3Ag    -0.567003  

    Virtual:                                                              

       3B3u    0.060529     1B1g    0.068284     1B2g    0.068284  
       4Ag     0.080359     2B2u    0.089510     2B1u    0.089510  
       5Ag     0.119514     2B2g    0.140142     2B1g    0.140142  
       4B3u    0.221736     6Ag     0.279458     1B3g    0.279458  
       7Ag     0.326620     5B3u    0.376313     3B2g    0.387162  
       3B1g    0.387162     6B3u    0.391925     1Au     0.391925  
       3B1u    0.392013     3B2u    0.392013     4B2u    0.503634  
       4B1u    0.503634     7B3u    0.573301     8Ag     0.587011  
       9Ag     0.732108     4B2g    0.798227     4B1g    0.798227  
       8B3u    0.839452     5B1u    0.887265     5B2u    0.887265  
       2B3g    0.922133    10Ag     0.922133     6B1u    0.982242  
       6B2u    0.982242     9B3u    1.001913     2Au     1.001913  
      10B3u    1.114123    11Ag     1.116584     5B2g    1.127938  
       5B1g    1.127938     6B2g    1.128591     6B1g    1.128591  
      12Ag     1.136043     3B3g    1.136043    11B3u    1.338626  
       7B1u    1.503843     7B2u    1.503843    13Ag     1.512625  
      12B3u    1.623939     3Au     1.623939     7B2g    1.675879  
       7B1g    1.675879    13B3u    1.739269     8B2u    1.980354  
       8B1u    1.980354     4B3g    2.571874    14Ag     2.571874  
      15Ag     2.600383     9B2u    2.712418     9B1u    2.712418  
      16Ag     2.727691     5B3g    2.727691    17Ag     2.757266  
       8B2g    2.823943     8B1g    2.823943    14B3u    2.847702  
      10B2u    2.938225    10B1u    2.938225    15B3u    2.995515  
       4Au     2.995516    16B3u    3.008078     5Au     3.016804  
      17B3u    3.016804    11B2u    3.026855    11B1u    3.026855  
       9B1g    3.042889     9B2g    3.042889    12B1u    3.053727  
      12B2u    3.053727    18Ag     3.056401     6B3g    3.056401  
      19Ag     3.243662    10B2g    3.244307    10B1g    3.244307  
      18B3u    3.319157     6Au     3.319158    19B3u    3.428838  
      20Ag     3.442121    11B2g    3.462609    11B1g    3.462609  
      21Ag     3.745047     7B3g    3.745048    12B2g    3.805965  
      12B1g    3.805965    13B1u    4.663945    13B2u    4.663945  
       7Au     5.015436    20B3u    5.015436    21B3u    5.111707  
      22Ag     5.416432    22B3u    5.592162    13B2g    5.621257  
      13B1g    5.621257    14B1u    7.594230    14B2u    7.594230  
       8B3g    7.661681    23Ag     7.661681    15B1u    7.818680  
      15B2u    7.818680     9B3g    7.881142    24Ag     7.881152  
      25Ag     7.931848    14B2g    8.153600    14B1g    8.153600  
       8Au     8.207702    23B3u    8.207712    16B1u    8.323016  
      16B2u    8.323016    26Ag     8.605822    24B3u    8.681061  
       9Au     8.681066    15B2g    8.689760    15B1g    8.689760  
      16B1g    8.736619    16B2g    8.736619    17B2u    8.892211  
      17B1u    8.892211    25B3u    8.975667    27Ag     9.124139  
      10B3g    9.124142    26B3u    9.165399    17B1g    9.192167  
      17B2g    9.192167    28Ag     9.279902    29Ag     9.375265  
      11B3g    9.375272    18B2u    9.526256    18B1u    9.526256  
      27B3u   10.144451    10Au    10.144456    11Au    10.406550  
      28B3u   10.406551    19B1u   10.581819    19B2u   10.581819  
      18B2g   10.958919    18B1g   10.958919    29B3u   11.121945  
      30Ag    12.738957    19B2g   12.989253    19B1g   12.989253  
      30B3u   13.842060    31B3u   32.729255    31Ag    33.092038  

    Final Occupation by Irrep:
             Ag   B1g   B2g   B3g    Au   B1u   B2u   B3u 
    DOCC [     3,    0,    0,    0,    0,    1,    1,    2 ]

  @DF-RKS Final Energy:  -109.27533606749567

   => Energetics <=

    Nuclear Repulsion Energy =             23.6450061694888198
    One-Electron Energy =                -194.4465037658374627
    Two-Electron Energy =                  65.6128597218303895
    DFT Exchange-Correlation Energy =      -4.0861909129774130
    Empirical Dispersion Energy =          -0.0005072800000000
    VV10 Nonlocal Energy =                  0.0000000000000000
    Total Energy =                       -109.2753360674956582

Computation Completed


Properties will be evaluated at   0.000000,   0.000000,   0.000000 [a0]

Properties computed using the SCF density matrix

  Nuclear Dipole Moment: [e a0]
[...]

   => Exchange Functionals <=

    0.2900     XC_GGA_X_B88

   => Exact (HF) Exchange <=

    0.7100               HF 

   => Correlation Functionals <=

    0.5400     XC_GGA_C_LYP

   => MP2 Correlation <=

    MP2 SCS Hybrid      =           TRUE
    MP2 OS Alpha        =       0.470000
    MP2 SS Alpha        =       0.400000

   => Molecular Quadrature <=

    Radial Scheme          =       TREUTLER
    Pruning Scheme         =           FLAT
    Nuclear Scheme         =       TREUTLER

    BS radius alpha        =              1
    Pruning alpha          =              1
    Radial Points          =             75
    Spherical Points       =            302
    Total Points           =          45300
    Total Blocks           =            426
    Max Points             =            256
    Max Functions          =            160

   => DSD-BLYP-D3BJ: Empirical Dispersion <=

    Grimme's -D3 (BJ-damping) Dispersion Correction
    Grimme S.; Ehrlich S.; Goerigk L. (2011), J. Comput. Chem., 32: 1456
    Parametrisation from:    S. Kozuch, J.M.L. Martin, J. Comp. Chem., 34, 2327-2344, 2013

        s6 =       0.570000
        s8 =       0.000000
        a1 =       0.000000
        a2 =       5.400000

   => Loading Basis Set <=

    Name: (AUG-CC-PV(Q+D)Z AUX)
    Role: JKFIT
    Keyword: DF_BASIS_SCF
    atoms 1-2 entry N          line   248 file /work/zw18965/.conda/envs/p4env/share/psi4/basis/aug-cc-pvqz-jkfit.gbs 

  ==> Pre-Iterations <==

   -------------------------------------------------------
    Irrep   Nso     Nmo     Nalpha   Nbeta   Ndocc  Nsocc
   -------------------------------------------------------
     Ag        31      31       0       0       0       0
     B1g       19      19       0       0       0       0
     B2g       19      19       0       0       0       0
     B3g       11      11       0       0       0       0
     Au        11      11       0       0       0       0
     B1u       19      19       0       0       0       0
     B2u       19      19       0       0       0       0
     B3u       31      31       0       0       0       0
   -------------------------------------------------------
    Total     160     160       7       7       7       0
   -------------------------------------------------------

  ==> Integral Setup <==

  DFHelper Memory: AOs need 0.066 GiB; user supplied 100.392 GiB. Using in-core AOs.

  ==> MemDFJK: Density-Fitted J/K Matrices <==

    J tasked:                   Yes
    K tasked:                   Yes
    wK tasked:                   No
    OpenMP threads:              24
    Memory [MiB]:            102801
    Algorithm:                 Core
    Schwarz Cutoff:           1E-12
    Mask sparsity (%):       0.0000
    Fitting Condition:        1E-10

   => Auxiliary Basis Set <=

  Basis Set: (AUG-CC-PV(Q+D)Z AUX)
    Blend: AUG-CC-PVQZ-JKFIT
    Number of shells: 68
    Number of basis function: 284
    Number of Cartesian functions: 396
    Spherical Harmonics?: true
    Max angular momentum: 5

  Cached 100.0% of DFT collocation blocks in 0.191 [GiB].

  Minimum eigenvalue in the overlap matrix is 3.2194520170E-05.
  Using Symmetric Orthogonalization.

  SCF Guess: Superposition of Atomic Densities via on-the-fly atomic UHF.

  ==> Iterations <==

                           Total Energy        Delta E     RMS |[F,P]|

   @DF-RKS iter SAD:  -108.48896426407698   -1.08489e+02   0.00000e+00 
   @DF-RKS iter   1:  -109.26410464565512   -7.75140e-01   2.89971e-03 DIIS
   @DF-RKS iter   2:  -109.27377033896570   -9.66569e-03   9.96594e-04 DIIS
   @DF-RKS iter   3:  -109.27503897246753   -1.26863e-03   1.08194e-04 DIIS
   @DF-RKS iter   4:  -109.27505813871129   -1.91662e-05   1.51839e-05 DIIS
   @DF-RKS iter   5:  -109.27505853516180   -3.96451e-07   2.35437e-06 DIIS
   @DF-RKS iter   6:  -109.27505855686752   -2.17057e-08   2.34994e-07 DIIS
   @DF-RKS iter   7:  -109.27505855709134   -2.23821e-10   1.52537e-08 DIIS
   @DF-RKS iter   8:  -109.27505855709234   -9.94760e-13   1.59143e-09 DIIS
   @DF-RKS iter   9:  -109.27505855709214    1.98952e-13   1.51905e-10 DIIS
   @DF-RKS iter  10:  -109.27505855709219   -5.68434e-14   1.22002e-11 DIIS
  Energy and wave function converged.


  ==> Post-Iterations <==

    Orbital Energies [Eh]
    ---------------------

    Doubly Occupied:                                                      

       1Ag   -15.234991     1B3u  -15.232061     2Ag    -1.351753  
       2B3u   -0.703634     1B1u   -0.566919     1B2u   -0.566919  
       3Ag    -0.566869  

    Virtual:                                                              

       3B3u    0.060513     1B2g    0.067699     1B1g    0.067699  
       4Ag     0.080337     2B2u    0.089534     2B1u    0.089534  
       5Ag     0.119504     2B2g    0.139877     2B1g    0.139877  
       4B3u    0.221698     6Ag     0.279427     1B3g    0.279427  
       7Ag     0.326666     5B3u    0.376182     3B2g    0.387031  
       3B1g    0.387031     6B3u    0.391956     1Au     0.391956  
       3B1u    0.392031     3B2u    0.392031     4B1u    0.503822  
       4B2u    0.503822     7B3u    0.573080     8Ag     0.587035  
       9Ag     0.732048     4B2g    0.797838     4B1g    0.797838  
       8B3u    0.837700     5B2u    0.887201     5B1u    0.887201  
       2B3g    0.922108    10Ag     0.922108     6B1u    0.982309  
       6B2u    0.982309     9B3u    1.002171     2Au     1.002171  
      10B3u    1.112846    11Ag     1.116219     5B1g    1.127810  
       5B2g    1.127810     6B2g    1.128324     6B1g    1.128324  
      12Ag     1.135880     3B3g    1.135880    11B3u    1.338445  
       7B1u    1.502837     7B2u    1.502837    13Ag     1.513445  
      12B3u    1.623083     3Au     1.623083     7B2g    1.675825  
       7B1g    1.675825    13B3u    1.737244     8B1u    1.980923  
       8B2u    1.980923     4B3g    2.571918    14Ag     2.571919  
      15Ag     2.599489     9B2u    2.711900     9B1u    2.711900  
      16Ag     2.727749     5B3g    2.727749    17Ag     2.755949  
       8B2g    2.822597     8B1g    2.822597    14B3u    2.847507  
      10B2u    2.936698    10B1u    2.936698    15B3u    2.995212  
       4Au     2.995212    16B3u    3.008376     5Au     3.016110  
      17B3u    3.016110    11B2u    3.026431    11B1u    3.026431  
       9B1g    3.043302     9B2g    3.043302    12B1u    3.053480  
      12B2u    3.053480    18Ag     3.056717     6B3g    3.056718  
      10B2g    3.244387    10B1g    3.244387    19Ag     3.245406  
      18B3u    3.319330     6Au     3.319330    19B3u    3.426819  
      20Ag     3.440248    11B2g    3.460847    11B1g    3.460847  
      21Ag     3.742302     7B3g    3.742302    12B1g    3.803384  
      12B2g    3.803384    13B1u    4.662337    13B2u    4.662337  
       7Au     5.011571    20B3u    5.011571    21B3u    5.105530  
      22Ag     5.408176    22B3u    5.593273    13B2g    5.618148  
      13B1g    5.618148    14B2u    7.595635    14B1u    7.595635  
       8B3g    7.660067    23Ag     7.660067    15B1u    7.818203  
      15B2u    7.818203     9B3g    7.882053    24Ag     7.882062  
      25Ag     7.931982    14B2g    8.155819    14B1g    8.155819  
       8Au     8.206448    23B3u    8.206458    16B2u    8.320736  
      16B1u    8.320736    26Ag     8.606444    24B3u    8.684043  
       9Au     8.684049    15B2g    8.688065    15B1g    8.688065  
      16B1g    8.735324    16B2g    8.735324    17B1u    8.891915  
      17B2u    8.891915    25B3u    8.972867    27Ag     9.123421  
      10B3g    9.123424    26B3u    9.159891    17B2g    9.188364  
      17B1g    9.188364    28Ag     9.280484    29Ag     9.373360  
      11B3g    9.373367    18B1u    9.526249    18B2u    9.526249  
      27B3u   10.138662    10Au    10.138667    11Au    10.397432  
      28B3u   10.397433    19B1u   10.572141    19B2u   10.572141  
      18B2g   10.952136    18B1g   10.952136    29B3u   11.115714  
      30Ag    12.725842    19B2g   12.976287    19B1g   12.976287  
      30B3u   13.837103    31B3u   32.694715    31Ag    33.084085  

    Final Occupation by Irrep:
             Ag   B1g   B2g   B3g    Au   B1u   B2u   B3u 
    DOCC [     3,    0,    0,    0,    0,    1,    1,    2 ]

  @DF-RKS Final Energy:  -109.27505855709219

   => Energetics <=

    Nuclear Repulsion Energy =             23.6065120234834716
    One-Electron Energy =                -194.3713362551123396
    Two-Electron Energy =                  65.5757546775096358
    DFT Exchange-Correlation Energy =      -4.0854817329729674
    Empirical Dispersion Energy =          -0.0005072700000000
    VV10 Nonlocal Energy =                  0.0000000000000000
    Total Energy =                       -109.2750585570921942

Computation Completed


Properties will be evaluated at   0.000000,   0.000000,   0.000000 [a0]

Properties computed using the SCF density matrix

  Nuclear Dipole Moment: [e a0]
     X:    -0.0000      Y:     0.0000      Z:     0.0000

  Electronic Dipole Moment: [e a0]
     X:     0.0000      Y:     0.0000      Z:     0.0000

  Dipole Moment: [e a0]
     X:    -0.0000      Y:     0.0000      Z:     0.0000     Total:     0.0000

  Dipole Moment: [D]
     X:    -0.0000      Y:     0.0000      Z:     0.0000     Total:     0.0000


*** tstop() called on bp1-compute00149.data.bp.acrc.priv at Mon Apr 19 15:46:26 2021
Module time:
	user time   =      33.96 seconds =       0.57 minutes
	system time =       1.25 seconds =       0.02 minutes
	total time  =          2 seconds =       0.03 minutes
Total time:
	user time   =     566.83 seconds =       9.45 minutes
	system time =      24.63 seconds =       0.41 minutes
	total time  =         30 seconds =       0.50 minutes

*** tstart() called on bp1-compute00149.data.bp.acrc.priv
*** at Mon Apr 19 15:46:26 2021

   => Loading Basis Set <=

    Name: (AUG-CC-PV(Q+D)Z AUX)
    Role: RIFIT
    Keyword: DF_BASIS_MP2
    atoms 1-2 entry N          line   258 file /work/zw18965/.conda/envs/p4env/share/psi4/basis/aug-cc-pvqz-ri.gbs 

	 --------------------------------------------------------
	                          DF-MP2                         
	      2nd-Order Density-Fitted Moller-Plesset Theory     
	              RMP2 Wavefunction,  24 Threads             
	                                                         
	        Rob Parrish, Justin Turney, Andy Simmonett,      
	           Ed Hohenstein, and C. David Sherrill          
	 --------------------------------------------------------

   => Auxiliary Basis Set <=

  Basis Set: (AUG-CC-PV(Q+D)Z AUX)
    Blend: AUG-CC-PVQZ-RI
    Number of shells: 72
    Number of basis function: 336
    Number of Cartesian functions: 474
    Spherical Harmonics?: true
    Max angular momentum: 5

	 --------------------------------------------------------
	                 NBF =   160, NAUX =   336
	 --------------------------------------------------------
	   CLASS    FOCC     OCC    AOCC    AVIR     VIR    FVIR
	   PAIRS       0       7       7     153     153       0
	 --------------------------------------------------------

	-----------------------------------------------------------
	 ==================> DF-MP2 Energies <==================== 
	-----------------------------------------------------------
	 Reference Energy          =    -109.2750585570921942 [Eh]
	 Singles Energy            =      -0.0000000000000000 [Eh]
	 Same-Spin Energy          =      -0.1230856268810312 [Eh]
	 Opposite-Spin Energy      =      -0.3912122954164248 [Eh]
	 Correlation Energy        =      -0.5142979222974560 [Eh]
	 Total Energy              =    -109.7893564793896530 [Eh]
	-----------------------------------------------------------
	 ================> DF-SCS-MP2 Energies <================== 
	-----------------------------------------------------------
	 SCS Same-Spin Scale       =       0.4000000000000000 [-]
	 SCS Opposite-Spin Scale   =       0.4700000000000000 [-]
	 SCS Same-Spin Energy      =      -0.0492342507524125 [Eh]
	 SCS Opposite-Spin Energy  =      -0.1838697788457196 [Eh]
	 SCS Correlation Energy    =      -0.2331040295981321 [Eh]
	 SCS Total Energy          =    -109.5081625866903323 [Eh]
	-----------------------------------------------------------



    DSD-BLYP-D3BJ Energy Summary
    ----------------------------
    DFT Reference Energy                  =  -109.2750585570921942
    Scaled MP2 Correlation                =    -0.2331040295981321
    @Final double-hybrid DFT total energy =  -109.5081625866903323


*** tstop() called on bp1-compute00149.data.bp.acrc.priv at Mon Apr 19 15:46:27 2021
Module time:
	user time   =       9.45 seconds =       0.16 minutes
	system time =       0.35 seconds =       0.01 minutes
	total time  =          1 seconds =       0.02 minutes
Total time:
	user time   =     576.30 seconds =       9.60 minutes
	system time =      24.98 seconds =       0.42 minutes
	total time  =         31 seconds =       0.52 minutes

         ----------------------------------------------------------
                                   FINDIF
                     R. A. King and Jonathon Misiewicz
         ---------------------------------------------------------

  Computing second-derivative from energies using projected, 
  symmetry-adapted, cartesian coordinates.

  3 energies passed in, including the reference geometry.
    Using 3-point formula.
    Energy without displacement: -109.5081651828
    Check energies below for precision!
    0: -1 :      -109.5081625918
    0: 1  :      -109.5081625867

-------------------------------------------------------------


  ==> Harmonic Vibrational Analysis <==

  non-mass-weighted Hessian:       Symmetric? True   Hermitian? True   Lin Dep Dim?  5 (0)
  projection of translations (True) and rotations (True) removed 5 degrees of freedom (5)
  total projector:                 Symmetric? True   Hermitian? True   Lin Dep Dim?  5 (5)
  mass-weighted Hessian:           Symmetric? True   Hermitian? True   Lin Dep Dim?  5 (0)
  pre-proj  low-frequency mode:    0.0000  [cm^-1]
  pre-proj  low-frequency mode:    0.0000  [cm^-1]
  pre-proj  low-frequency mode:    0.0000  [cm^-1]
  pre-proj  low-frequency mode:    0.0000  [cm^-1]
  pre-proj  low-frequency mode:    0.0000  [cm^-1]
  pre-proj  all modes:['0.0000' '0.0000' '0.0000' '0.0000' '0.0000' '2341.5357']
  projected mass-weighted Hessian: Symmetric? True   Hermitian? True   Lin Dep Dim?  5 (5)
  post-proj low-frequency mode:    0.0000i [cm^-1] (TR)
  post-proj low-frequency mode:    0.0000i [cm^-1] (TR)
  post-proj low-frequency mode:    0.0000i [cm^-1] (TR)
  post-proj low-frequency mode:    0.0000  [cm^-1] (TR)
  post-proj low-frequency mode:    0.0000  [cm^-1] (TR)
  post-proj  all modes:['0.0000i' '0.0000i' '0.0000i' '0.0000' '0.0000' '2341.5357']

  Vibration                       6           
  Freq [cm^-1]                2341.5357       
  Irrep                           Ag          
  Reduced mass [u]             14.0031        
  Force const [mDyne/A]        45.2351        
  Turning point v=0 [a0]        0.0606        
  RMS dev v=0 [a0 u^1/2]        0.1603        
  Char temp [K]               3368.9486       
  ----------------------------------------------------------------------------------
      1   N                0.71  0.00  0.00   
      2   N               -0.71 -0.00 -0.00   

  ==> Thermochemistry Components <==

  Entropy, S
    Electronic S            0.000 [cal/(mol K)]        0.000 [J/(mol K)]       0.00000000 [mEh/K] (multiplicity = 1)
    Translational S        35.924 [cal/(mol K)]      150.307 [J/(mol K)]       0.05724883 [mEh/K] (mol. weight = 28.0061 [u], P = 101325.00 [Pa])
    Rotational S            9.832 [cal/(mol K)]       41.139 [J/(mol K)]       0.01566904 [mEh/K] (symmetry no. = 2)
    Vibrational S           0.000 [cal/(mol K)]        0.001 [J/(mol K)]       0.00000048 [mEh/K]
  Total S                  45.757 [cal/(mol K)]      191.447 [J/(mol K)]       0.07291835 [mEh/K]
  Correction S              0.000 [cal/(mol K)]        0.000 [J/(mol K)]       0.00000000 [mEh/K]

  Constant volume heat capacity, Cv
    Electronic Cv           0.000 [cal/(mol K)]        0.000 [J/(mol K)]       0.00000000 [mEh/K]
    Translational Cv        2.981 [cal/(mol K)]       12.472 [J/(mol K)]       0.00475022 [mEh/K]
    Rotational Cv           1.987 [cal/(mol K)]        8.314 [J/(mol K)]       0.00316681 [mEh/K]
    Vibrational Cv          0.003 [cal/(mol K)]        0.013 [J/(mol K)]       0.00000501 [mEh/K]
  Total Cv                  4.971 [cal/(mol K)]       20.799 [J/(mol K)]       0.00792203 [mEh/K]
  Correction Cv             0.000 [cal/(mol K)]        0.000 [J/(mol K)]       0.00000000 [mEh/K]

  Constant pressure heat capacity, Cp
    Electronic Cp           0.000 [cal/(mol K)]        0.000 [J/(mol K)]       0.00000000 [mEh/K]
    Translational Cp        4.968 [cal/(mol K)]       20.786 [J/(mol K)]       0.00791703 [mEh/K]
    Rotational Cp           1.987 [cal/(mol K)]        8.314 [J/(mol K)]       0.00316681 [mEh/K]
    Vibrational Cp          0.003 [cal/(mol K)]        0.013 [J/(mol K)]       0.00000501 [mEh/K]
  Total Cp                  6.958 [cal/(mol K)]       29.114 [J/(mol K)]       0.01108884 [mEh/K]
  Correction Cp             0.000 [cal/(mol K)]        0.000 [J/(mol K)]       0.00000000 [mEh/K]

  ==> Thermochemistry Energy Analysis <==

  Raw electronic energy, E0
  Total E0, Electronic energy at well bottom at 0 [K]                 -109.50816518 [Eh]

  Zero-point energy, ZPE_vib = Sum_i nu_i / 2
    Electronic ZPE          0.000 [kcal/mol]        0.000 [kJ/mol]       0.00000000 [Eh]
    Translational ZPE       0.000 [kcal/mol]        0.000 [kJ/mol]       0.00000000 [Eh]
    Rotational ZPE          0.000 [kcal/mol]        0.000 [kJ/mol]       0.00000000 [Eh]
    Vibrational ZPE         3.347 [kcal/mol]       14.005 [kJ/mol]       0.00533441 [Eh]        1170.768 [cm^-1]
  Correction ZPE            3.347 [kcal/mol]       14.005 [kJ/mol]       0.00533441 [Eh]        1170.768 [cm^-1]
  Total ZPE, Electronic energy at 0 [K]                               -109.50283077 [Eh]

  Thermal Energy, E (includes ZPE)
    Electronic E            0.000 [kcal/mol]        0.000 [kJ/mol]       0.00000000 [Eh]
    Translational E         0.889 [kcal/mol]        3.718 [kJ/mol]       0.00141628 [Eh]
    Rotational E            0.592 [kcal/mol]        2.479 [kJ/mol]       0.00094418 [Eh]
    Vibrational E           3.347 [kcal/mol]       14.006 [kJ/mol]       0.00533454 [Eh]
  Correction E              4.829 [kcal/mol]       20.203 [kJ/mol]       0.00769500 [Eh]
  Total E, Electronic energy at  298.15 [K]                           -109.50047018 [Eh]

  Enthalpy, H_trans = E_trans + k_B * T
    Electronic H            0.000 [kcal/mol]        0.000 [kJ/mol]       0.00000000 [Eh]
    Translational H         1.481 [kcal/mol]        6.197 [kJ/mol]       0.00236046 [Eh]
    Rotational H            0.592 [kcal/mol]        2.479 [kJ/mol]       0.00094418 [Eh]
    Vibrational H           3.347 [kcal/mol]       14.006 [kJ/mol]       0.00533454 [Eh]
  Correction H              5.421 [kcal/mol]       22.682 [kJ/mol]       0.00863919 [Eh]
  Total H, Enthalpy at  298.15 [K]                                    -109.49952599 [Eh]

  Gibbs free energy, G = H - T * S
    Electronic G            0.000 [kcal/mol]        0.000 [kJ/mol]       0.00000000 [Eh]
    Translational G        -9.230 [kcal/mol]      -38.617 [kJ/mol]      -0.01470828 [Eh]
    Rotational G           -2.339 [kcal/mol]       -9.787 [kJ/mol]      -0.00372754 [Eh]
    Vibrational G           3.347 [kcal/mol]       14.005 [kJ/mol]       0.00533440 [Eh]
  Correction G             -8.221 [kcal/mol]      -34.398 [kJ/mol]      -0.01310142 [Eh]
  Total G, Free enthalpy at  298.15 [K]                               -109.52126660 [Eh]

    Psi4 stopped on: Monday, 19 April 2021 03:46PM
    Psi4 wall time for execution: 0:00:30.70

*** Psi4 exiting successfully. Buy a developer a beer!
