
    -----------------------------------------------------------------------
          Psi4: An Open-Source Ab Initio Electronic Structure Package
                               Psi4 1.3.2 release

                         Git: Rev {HEAD} ecbda83 


    R. M. Parrish, L. A. Burns, D. G. A. Smith, A. C. Simmonett,
    A. E. DePrince III, E. G. Hohenstein, U. Bozkaya, A. Yu. Sokolov,
    R. Di Remigio, R. M. Richard, J. F. Gonthier, A. M. James,
    H. R. McAlexander, A. Kumar, M. Saitow, X. Wang, B. P. Pritchard,
    P. Verma, H. F. Schaefer III, K. Patkowski, R. A. King, E. F. Valeev,
    F. A. Evangelista, J. M. Turney, T. D. Crawford, and C. D. Sherrill,
    J. Chem. Theory Comput. 13(7) pp 3185--3197 (2017).
    (doi: 10.1021/acs.jctc.7b00174)


                         Additional Contributions by
    P. Kraus, H. Kruse, M. H. Lechner, M. C. Schieber, R. A. Shaw,
    A. Alenaizan, R. Galvelis, Z. L. Glick, S. Lehtola, and J. P. Misiewicz

    -----------------------------------------------------------------------


    Psi4 started on: Monday, 19 April 2021 03:46PM

    Process ID: 6395
    Host:       bp1-compute00191.data.bp.acrc.priv
    PSIDATADIR: /work/zw18965/.conda/envs/p4env/share/psi4
    Memory:     500.0 MiB
    Threads:    24
    
  ==> Input File <==

--------------------------------------------------------------------------
memory 144 GB

molecule {
0 1
N     0.000000000000   0.000000000000  -1.102291942126
N     0.000000000000   0.000000000000   0.001494698075
O     0.000000000000   0.000000000000   1.159797248627}

set basis aug-cc-pV(Q+d)Z
 
optimize("DSD-BLYP-D3BJ")
frequencies("DSD-BLYP-D3BJ")--------------------------------------------------------------------------

  Memory set to 134.110 GiB by Python driver.
gradient() will perform gradient computation by finite difference of analytic energies.

         ----------------------------------------------------------
                                   FINDIF
                     R. A. King and Jonathon Misiewicz
         ---------------------------------------------------------

  Using finite-differences of energies to determine gradients.
    Generating geometries for use with 3-point formula.
    Displacement size will be 5.00e-03.
    Number of atoms is 3.
    Number of symmetric SALCs is 2.
    Translations projected? 1. Rotations projected? 1.
    Number of geometries (including reference) is 5.

  //>>>>>>>>>>>>>>>>>>>>>>>>>>>>>>>>>>>//
  //    Loading displacement 1 of 5    //
  //<<<<<<<<<<<<<<<<<<<<<<<<<<<<<<<<<<<//

*** tstart() called on bp1-compute00191.data.bp.acrc.priv
*** at Mon Apr 19 15:46:37 2021

   => Loading Basis Set <=

    Name: AUG-CC-PV(Q+D)Z
    Role: ORBITAL
    Keyword: BASIS
    atoms 1-2 entry N          line   379 file /work/zw18965/.conda/envs/p4env/share/psi4/basis/aug-cc-pv_qpd_z.gbs 
    atoms 3   entry O          line   439 file /work/zw18965/.conda/envs/p4env/share/psi4/basis/aug-cc-pv_qpd_z.gbs 


         ---------------------------------------------------------
                                   SCF
               by Justin Turney, Rob Parrish, Andy Simmonett
                          and Daniel G. A. Smith
                              RKS Reference
                       24 Threads, 137329 MiB Core
         ---------------------------------------------------------

  ==> Geometry <==

    Molecular point group: c2v
    Full point group: C_inf_v

    Geometry (in Angstrom), charge = 0, multiplicity = 1:

       Center              X                  Y                   Z               Mass       
    ------------   -----------------  -----------------  -----------------  -----------------
         N            0.000000000000     0.000000000000    -1.173570054702    14.003074004430
         N            0.000000000000     0.000000000000    -0.069783414501    14.003074004430
         O            0.000000000000     0.000000000000     1.088519136051    15.994914619570

  Running in c2v symmetry.

  Rotational constants: A = ************  B =      0.44008  C =      0.44008 [cm^-1]
  Rotational constants: A = ************  B =  13193.16785  C =  13193.16785 [MHz]
  Nuclear repulsion =   62.175740977902905

  Charge       = 0
  Multiplicity = 1
  Electrons    = 22
  Nalpha       = 11
  Nbeta        = 11

  ==> Algorithm <==

  SCF Algorithm Type is DF.
  DIIS enabled.
  MOM disabled.
  Fractional occupation disabled.
  Guess Type is SAD.
  Energy threshold   = 1.00e-08
  Density threshold  = 1.00e-08
  Integral threshold = 0.00e+00

  ==> Primary Basis <==

  Basis Set: AUG-CC-PV(Q+D)Z
    Blend: AUG-CC-PV(Q+D)Z
    Number of shells: 60
    Number of basis function: 240
    Number of Cartesian functions: 315
    Spherical Harmonics?: true
    Max angular momentum: 4

  ==> DFT Potential <==

   => Composite Functional: DSD-BLYP-D3BJ <= 

    DSD-BLYP-D3BJ Dispersion-corrected SCS Double Hybrid XC Functional

    S. Kozuch, J.M.L. Martin, J. Comp. Chem., 34, 2327-2344, 2013


    Deriv               =              1
    GGA                 =           TRUE
    Meta                =          FALSE

    Exchange Hybrid     =           TRUE
    MP2 Hybrid          =           TRUE

   => Exchange Functionals <=

    0.2900     XC_GGA_X_B88

   => Exact (HF) Exchange <=

    0.7100               HF 

   => Correlation Functionals <=

    0.5400     XC_GGA_C_LYP

   => MP2 Correlation <=

    MP2 SCS Hybrid      =           TRUE
    MP2 OS Alpha        =       0.470000
    MP2 SS Alpha        =       0.400000

   => Molecular Quadrature <=

    Radial Scheme          =       TREUTLER
    Pruning Scheme         =           FLAT
    Nuclear Scheme         =       TREUTLER

    BS radius alpha        =              1
    Pruning alpha          =              1
    Radial Points          =             75
    Spherical Points       =            302
    Total Points           =          67950
    Total Blocks           =            584
    Max Points             =            256
    Max Functions          =            240

   => DSD-BLYP-D3BJ: Empirical Dispersion <=

    Grimme's -D3 (BJ-damping) Dispersion Correction
    Grimme S.; Ehrlich S.; Goerigk L. (2011), J. Comput. Chem., 32: 1456
    Parametrisation from:    S. Kozuch, J.M.L. Martin, J. Comp. Chem., 34, 2327-2344, 2013

        s6 =       0.570000
        s8 =       0.000000
        a1 =       0.000000
        a2 =       5.400000

   => Loading Basis Set <=

    Name: (AUG-CC-PV(Q+D)Z AUX)
    Role: JKFIT
    Keyword: DF_BASIS_SCF
    atoms 1-2 entry N          line   248 file /work/zw18965/.conda/envs/p4env/share/psi4/basis/aug-cc-pvqz-jkfit.gbs 
    atoms 3   entry O          line   318 file /work/zw18965/.conda/envs/p4env/share/psi4/basis/aug-cc-pvqz-jkfit.gbs 

  ==> Pre-Iterations <==

   -------------------------------------------------------
    Irrep   Nso     Nmo     Nalpha   Nbeta   Ndocc  Nsocc
   -------------------------------------------------------
     A1        93      93       0       0       0       0
     A2        33      33       0       0       0       0
     B1        57      57       0       0       0       0
     B2        57      57       0       0       0       0
   -------------------------------------------------------
    Total     240     240      11      11      11       0
   -------------------------------------------------------

  ==> Integral Setup <==

  DFHelper Memory: AOs need 0.208 GiB; user supplied 100.175 GiB. Using in-core AOs.

  ==> MemDFJK: Density-Fitted J/K Matrices <==

    J tasked:                   Yes
    K tasked:                   Yes
    wK tasked:                   No
    OpenMP threads:              24
    Memory [MiB]:            102579
    Algorithm:                 Core
    Schwarz Cutoff:           1E-12
    Mask sparsity (%):       0.3299
    Fitting Condition:        1E-10

   => Auxiliary Basis Set <=

  Basis Set: (AUG-CC-PV(Q+D)Z AUX)
    Blend: AUG-CC-PVQZ-JKFIT
    Number of shells: 102
    Number of basis function: 426
    Number of Cartesian functions: 594
    Spherical Harmonics?: true
    Max angular momentum: 5

  Cached 100.0% of DFT collocation blocks in 0.408 [GiB].

  Minimum eigenvalue in the overlap matrix is 1.5906670950E-05.
  Using Symmetric Orthogonalization.

  SCF Guess: Superposition of Atomic Densities via on-the-fly atomic UHF.

  ==> Iterations <==

                           Total Energy        Delta E     RMS |[F,P]|

   @DF-RKS iter SAD:  -183.82958972822112   -1.83830e+02   0.00000e+00 
   @DF-RKS iter   1:  -184.17321144656702   -3.43622e-01   3.48967e-03 DIIS
   @DF-RKS iter   2:  -184.17329881519768   -8.73686e-05   3.51974e-03 DIIS
   @DF-RKS iter   3:  -184.23801563062710   -6.47168e-02   5.22048e-04 DIIS
   @DF-RKS iter   4:  -184.23927919469108   -1.26356e-03   2.95801e-04 DIIS
   @DF-RKS iter   5:  -184.23978126006651   -5.02065e-04   4.14405e-05 DIIS
   @DF-RKS iter   6:  -184.23980301890427   -2.17588e-05   1.66904e-05 DIIS
   @DF-RKS iter   7:  -184.23980556223631   -2.54333e-06   2.77653e-06 DIIS
   @DF-RKS iter   8:  -184.23980566019543   -9.79591e-08   5.92064e-07 DIIS
   @DF-RKS iter   9:  -184.23980566270905   -2.51362e-09   7.66276e-08 DIIS
   @DF-RKS iter  10:  -184.23980566275503   -4.59863e-11   1.18389e-08 DIIS
   @DF-RKS iter  11:  -184.23980566275628   -1.25056e-12   1.55147e-09 DIIS
  Energy and wave function converged.


  ==> Post-Iterations <==

    Orbital Energies [Eh]
    ---------------------

    Doubly Occupied:                                                      

       1A1   -20.145179     2A1   -15.379201     3A1   -15.230247  
       4A1    -1.508879     5A1    -1.325202     6A1    -0.756436  
       1B1    -0.713334     1B2    -0.713334     7A1    -0.622182  
       2B2    -0.445056     2B1    -0.445056  

    Virtual:                                                              

       8A1     0.036799     9A1     0.061848     3B2     0.068487  
       3B1     0.068487    10A1     0.105570     4B2     0.108190  
       4B1     0.108190     5B2     0.122882     5B1     0.122882  
      11A1     0.176888     6B1     0.187754     6B2     0.187754  
      12A1     0.216960    13A1     0.229448    14A1     0.262917  
       1A2     0.262917    15A1     0.317676     7B1     0.362177  
       7B2     0.362177     2A2     0.368048    16A1     0.368048  
      17A1     0.384291    18A1     0.432686     8B1     0.463808  
       8B2     0.463808     9B1     0.490838     9B2     0.490838  
      19A1     0.555422    20A1     0.583891     3A2     0.583891  
      10B1     0.600971    10B2     0.600971    21A1     0.604871  
      22A1     0.710181    23A1     0.748075    11B1     0.776543  
      11B2     0.776543    24A1     0.847510    12B2     0.864751  
      12B1     0.864751     4A2     0.879486    25A1     0.879486  
      13B1     0.925342    13B2     0.925342    26A1     0.929041  
       5A2     0.929041    27A1     0.984436    14B2     1.087815  
      14B1     1.087815    15B1     1.101026    15B2     1.101026  
      28A1     1.165725     6A2     1.238382    29A1     1.238382  
      30A1     1.320535    16B1     1.321079    16B2     1.321079  
      31A1     1.347750    17B2     1.472429    17B1     1.472429  
       7A2     1.484384    32A1     1.484384    18B1     1.504126  
      18B2     1.504126    33A1     1.517658    34A1     1.616005  
      19B1     1.665039    19B2     1.665039    35A1     1.670086  
       8A2     1.670087    36A1     1.805533    20B1     1.880965  
      20B2     1.880965    21B1     1.917118    21B2     1.917118  
      37A1     1.923682     9A2     2.004475    38A1     2.004476  
      39A1     2.128784    22B1     2.232817    22B2     2.232817  
      10A2     2.537181    40A1     2.537181    23B2     2.723497  
      23B1     2.723497    11A2     2.729411    41A1     2.729411  
      24B1     2.816488    24B2     2.816488    42A1     2.846270  
      43A1     2.875806    25B1     2.946532    25B2     2.946532  
      12A2     2.955937    44A1     2.955938    26B1     2.975419  
      26B2     2.975419    45A1     2.981242    46A1     3.002822  
      13A2     3.002823    27B2     3.058211    27B1     3.058211  
      47A1     3.104507    14A2     3.104508    28B1     3.181412  
      28B2     3.181412    48A1     3.190826    49A1     3.228955  
      15A2     3.228956    29B1     3.320905    29B2     3.320905  
      50A1     3.402014    30B1     3.574280    30B2     3.574280  
      51A1     3.598965    52A1     3.670435    16A2     3.670437  
      31B1     3.772063    31B2     3.772063    53A1     3.880163  
      54A1     3.901323    17A2     3.901323    32B2     4.028983  
      32B1     4.028983    33B1     4.035669    33B2     4.035669  
      55A1     4.137487    34B1     4.190377    34B2     4.190377  
      18A2     4.324485    56A1     4.324486    57A1     4.508976  
      19A2     4.650020    58A1     4.650020    35B1     4.676827  
      35B2     4.676827    36B1     4.697745    36B2     4.697745  
      59A1     5.081340    20A2     5.288840    60A1     5.288840  
      37B1     5.353295    37B2     5.353295    61A1     5.479561  
      62A1     5.525207    21A2     5.721830    63A1     5.721830  
      38B1     6.028674    38B2     6.028674    64A1     6.053639  
      65A1     6.305251    39B2     6.321896    39B1     6.321896  
      66A1     7.054648    40B2     7.615487    40B1     7.615487  
      67A1     7.710888    22A2     7.710888    23A2     7.832257  
      68A1     7.832268    41B2     7.870325    41B1     7.870325  
      24A2     8.174287    69A1     8.174298    70A1     8.236231  
      42B1     8.393849    42B2     8.393849    71A1     8.490220  
      25A2     8.490223    43B1     8.589790    43B2     8.589790  
      44B1     8.630707    44B2     8.630707    72A1     8.761328  
      45B2     8.866264    45B1     8.866264    46B1     9.025436  
      46B2     9.025436    73A1     9.091560    26A2     9.091564  
      74A1     9.099042    47B2     9.195071    47B1     9.195071  
      75A1     9.469107    27A2     9.469115    76A1     9.495005  
      48B1     9.546798    48B2     9.546798    77A1    10.244935  
      78A1    10.348233    28A2    10.348234    79A1    10.443928  
      29A2    10.443969    80A1    10.473341    30A2    10.473346  
      49B1    10.613899    49B2    10.613899    50B2    10.752566  
      50B1    10.752566    51B1    11.094354    51B2    11.094354  
      52B1    11.193027    52B2    11.193027    81A1    11.309346  
      31A2    11.517158    82A1    11.517161    83A1    11.581392  
      53B1    11.728732    53B2    11.728732    54B1    11.868794  
      54B2    11.868794    55B1    12.392707    55B2    12.392707  
      84A1    12.396185    32A2    12.396186    85A1    12.396515  
      33A2    12.905612    86A1    12.905630    87A1    13.014174  
      56B2    13.709010    56B1    13.709010    88A1    13.873207  
      57B1    15.180992    57B2    15.180992    89A1    15.949742  
      90A1    16.405709    91A1    34.273237    92A1    34.767928  
      93A1    43.584491  

    Final Occupation by Irrep:
             A1    A2    B1    B2 
    DOCC [     7,    0,    2,    2 ]

  @DF-RKS Final Energy:  -184.23980566275628

   => Energetics <=

    Nuclear Repulsion Energy =             62.1757409779029047
    One-Electron Energy =                -373.4596715906900499
    Two-Electron Energy =                 133.7124051362407897
    DFT Exchange-Correlation Energy =      -6.6671359762099618
    Empirical Dispersion Energy =          -0.0011442100000000
    VV10 Nonlocal Energy =                  0.0000000000000000
    Total Energy =                       -184.2398056627562823

Computation Completed


Properties will be evaluated at   0.000000,   0.000000,   0.000000 [a0]

Properties computed using the SCF density matrix

  Nuclear Dipole Moment: [e a0]
     X:     0.0000      Y:     0.0000      Z:     0.0088

  Electronic Dipole Moment: [e a0]
     X:     0.0000      Y:     0.0000      Z:    -0.1341

  Dipole Moment: [e a0]
     X:     0.0000      Y:     0.0000      Z:    -0.1252     Total:     0.1252

  Dipole Moment: [D]
     X:     0.0000      Y:     0.0000      Z:    -0.3183     Total:     0.3183


*** tstop() called on bp1-compute00191.data.bp.acrc.priv at Mon Apr 19 15:46:39 2021
Module time:
	user time   =      53.49 seconds =       0.89 minutes
	system time =       2.89 seconds =       0.05 minutes
	total time  =          2 seconds =       0.03 minutes
Total time:
	user time   =      53.49 seconds =       0.89 minutes
	system time =       2.89 seconds =       0.05 minutes
	total time  =          2 seconds =       0.03 minutes

*** tstart() called on bp1-compute00191.data.bp.acrc.priv
*** at Mon Apr 19 15:46:39 2021

   => Loading Basis Set <=

    Name: (AUG-CC-PV(Q+D)Z AUX)
    Role: RIFIT
    Keyword: DF_BASIS_MP2
    atoms 1-2 entry N          line   258 file /work/zw18965/.conda/envs/p4env/share/psi4/basis/aug-cc-pvqz-ri.gbs 
    atoms 3   entry O          line   332 file /work/zw18965/.conda/envs/p4env/share/psi4/basis/aug-cc-pvqz-ri.gbs 

	 --------------------------------------------------------
	                          DF-MP2                         
	      2nd-Order Density-Fitted Moller-Plesset Theory     
	              RMP2 Wavefunction,  24 Threads             
	                                                         
	        Rob Parrish, Justin Turney, Andy Simmonett,      
	           Ed Hohenstein, and C. David Sherrill          
	 --------------------------------------------------------

   => Auxiliary Basis Set <=

  Basis Set: (AUG-CC-PV(Q+D)Z AUX)
    Blend: AUG-CC-PVQZ-RI
    Number of shells: 108
    Number of basis function: 504
    Number of Cartesian functions: 711
    Spherical Harmonics?: true
    Max angular momentum: 5

	 --------------------------------------------------------
	                 NBF =   240, NAUX =   504
	 --------------------------------------------------------
	   CLASS    FOCC     OCC    AOCC    AVIR     VIR    FVIR
	   PAIRS       0      11      11     229     229       0
	 --------------------------------------------------------

	-----------------------------------------------------------
	 ==================> DF-MP2 Energies <==================== 
	-----------------------------------------------------------
	 Reference Energy          =    -184.2398056627562823 [Eh]
	 Singles Energy            =      -0.0000000000000000 [Eh]
	 Same-Spin Energy          =      -0.2198203428767754 [Eh]
	 Opposite-Spin Energy      =      -0.6450745971842586 [Eh]
	 Correlation Energy        =      -0.8648949400610341 [Eh]
	 Total Energy              =    -185.1047006028173030 [Eh]
	-----------------------------------------------------------
	 ================> DF-SCS-MP2 Energies <================== 
	-----------------------------------------------------------
	 SCS Same-Spin Scale       =       0.4000000000000000 [-]
	 SCS Opposite-Spin Scale   =       0.4700000000000000 [-]
	 SCS Same-Spin Energy      =      -0.0879281371507102 [Eh]
	 SCS Opposite-Spin Energy  =      -0.3031850606766016 [Eh]
	 SCS Correlation Energy    =      -0.3911131978273117 [Eh]
	 SCS Total Energy          =    -184.6309188605835914 [Eh]
	-----------------------------------------------------------



    DSD-BLYP-D3BJ Energy Summary
    ----------------------------
    DFT Reference Energy                  =  -184.2398056627562823
    Scaled MP2 Correlation                =    -0.3911131978273117
    @Final double-hybrid DFT total energy =  -184.6309188605835914


*** tstop() called on bp1-compute00191.data.bp.acrc.priv at Mon Apr 19 15:46:40 2021
Module time:
	user time   =      13.58 seconds =       0.23 minutes
	system time =       0.53 seconds =       0.01 minutes
	total time  =          1 seconds =       0.02 minutes
Total time:
	user time   =      67.08 seconds =       1.12 minutes
	system time =       3.42 seconds =       0.06 minutes
	total time  =          3 seconds =       0.05 minutes

  //>>>>>>>>>>>>>>>>>>>>>>>>>>>>>>>>>>>//
  //    Loading displacement 2 of 5    //
  //<<<<<<<<<<<<<<<<<<<<<<<<<<<<<<<<<<<//

*** tstart() called on bp1-compute00191.data.bp.acrc.priv
*** at Mon Apr 19 15:46:40 2021

   => Loading Basis Set <=

    Name: AUG-CC-PV(Q+D)Z
    Role: ORBITAL
    Keyword: BASIS
    atoms 1-2 entry N          line   379 file /work/zw18965/.conda/envs/p4env/share/psi4/basis/aug-cc-pv_qpd_z.gbs 
    atoms 3   entry O          line   439 file /work/zw18965/.conda/envs/p4env/share/psi4/basis/aug-cc-pv_qpd_z.gbs 


         ---------------------------------------------------------
                                   SCF
               by Justin Turney, Rob Parrish, Andy Simmonett
                          and Daniel G. A. Smith
                              RKS Reference
                       24 Threads, 137329 MiB Core
         ---------------------------------------------------------

  ==> Geometry <==

    Molecular point group: c2v
    Full point group: C_inf_v

    Geometry (in Angstrom), charge = 0, multiplicity = 1:

       Center              X                  Y                   Z               Mass       
    ------------   -----------------  -----------------  -----------------  -----------------
         N            0.000000000000     0.000000000000    -1.174153867929    14.003074004430
         N            0.000000000000     0.000000000000    -0.069510890235    14.003074004430
         O            0.000000000000     0.000000000000     1.088791660317    15.994914619570

  Running in c2v symmetry.

  Rotational constants: A = ************  B =      0.43975  C =      0.43975 [cm^-1]
  Rotational constants: A = ************  B =  13183.47889  C =  13183.47889 [MHz]
  Nuclear repulsion =   62.152572564896275

  Charge       = 0
  Multiplicity = 1
  Electrons    = 22
  Nalpha       = 11
  Nbeta        = 11

  ==> Algorithm <==

  SCF Algorithm Type is DF.
  DIIS enabled.
  MOM disabled.
  Fractional occupation disabled.
  Guess Type is SAD.
  Energy threshold   = 1.00e-08
  Density threshold  = 1.00e-08
  Integral threshold = 0.00e+00

  ==> Primary Basis <==

  Basis Set: AUG-CC-PV(Q+D)Z
    Blend: AUG-CC-PV(Q+D)Z
    Number of shells: 60
    Number of basis function: 240
    Number of Cartesian functions: 315
    Spherical Harmonics?: true
    Max angular momentum: 4

  ==> DFT Potential <==

   => Composite Functional: DSD-BLYP-D3BJ <= 

    DSD-BLYP-D3BJ Dispersion-corrected SCS Double Hybrid XC Functional

    S. Kozuch, J.M.L. Martin, J. Comp. Chem., 34, 2327-2344, 2013


    Deriv               =              1
    GGA                 =           TRUE
    Meta                =          FALSE

    Exchange Hybrid     =           TRUE
    MP2 Hybrid          =           TRUE

   => Exchange Functionals <=

    0.2900     XC_GGA_X_B88

   => Exact (HF) Exchange <=

    0.7100               HF 

   => Correlation Functionals <=

    0.5400     XC_GGA_C_LYP

   => MP2 Correlation <=

    MP2 SCS Hybrid      =           TRUE
    MP2 OS Alpha        =       0.470000
    MP2 SS Alpha        =       0.400000

   => Molecular Quadrature <=

    Radial Scheme          =       TREUTLER
    Pruning Scheme         =           FLAT
    Nuclear Scheme         =       TREUTLER

    BS radius alpha        =              1
    Pruning alpha          =              1
    Radial Points          =             75
    Spherical Points       =            302
    Total Points           =          67950
    Total Blocks           =            584
    Max Points             =            256
    Max Functions          =            240

   => DSD-BLYP-D3BJ: Empirical Dispersion <=

    Grimme's -D3 (BJ-damping) Dispersion Correction
    Grimme S.; Ehrlich S.; Goerigk L. (2011), J. Comput. Chem., 32: 1456
    Parametrisation from:    S. Kozuch, J.M.L. Martin, J. Comp. Chem., 34, 2327-2344, 2013

        s6 =       0.570000
        s8 =       0.000000
        a1 =       0.000000
        a2 =       5.400000

   => Loading Basis Set <=

    Name: (AUG-CC-PV(Q+D)Z AUX)
    Role: JKFIT
    Keyword: DF_BASIS_SCF
    atoms 1-2 entry N          line   248 file /work/zw18965/.conda/envs/p4env/share/psi4/basis/aug-cc-pvqz-jkfit.gbs 
    atoms 3   entry O          line   318 file /work/zw18965/.conda/envs/p4env/share/psi4/basis/aug-cc-pvqz-jkfit.gbs 

  ==> Pre-Iterations <==

   -------------------------------------------------------
    Irrep   Nso     Nmo     Nalpha   Nbeta   Ndocc  Nsocc
   -------------------------------------------------------
     A1        93      93       0       0       0       0
     A2        33      33       0       0       0       0
     B1        57      57       0       0       0       0
     B2        57      57       0       0       0       0
   -------------------------------------------------------
    Total     240     240      11      11      11       0
   -------------------------------------------------------

  ==> Integral Setup <==

  DFHelper Memory: AOs need 0.208 GiB; user supplied 100.175 GiB. Using in-core AOs.

  ==> MemDFJK: Density-Fitted J/K Matrices <==

    J tasked:                   Yes
    K tasked:                   Yes
    wK tasked:                   No
    OpenMP threads:              24
    Memory [MiB]:            102579
    Algorithm:                 Core
    Schwarz Cutoff:           1E-12
    Mask sparsity (%):       0.3299
    Fitting Condition:        1E-10

   => Auxiliary Basis Set <=

  Basis Set: (AUG-CC-PV(Q+D)Z AUX)
    Blend: AUG-CC-PVQZ-JKFIT
    Number of shells: 102
    Number of basis function: 426
    Number of Cartesian functions: 594
    Spherical Harmonics?: true
    Max angular momentum: 5

  Cached 100.0% of DFT collocation blocks in 0.408 [GiB].

  Minimum eigenvalue in the overlap matrix is 1.5954117383E-05.
  Using Symmetric Orthogonalization.

  SCF Guess: Superposition of Atomic Densities via on-the-fly atomic UHF.

  ==> Iterations <==

                           Total Energy        Delta E     RMS |[F,P]|

   @DF-RKS iter SAD:  -183.82758088927335   -1.83828e+02   0.00000e+00 
   @DF-RKS iter   1:  -184.17311745259383   -3.45537e-01   3.49002e-03 DIIS
   @DF-RKS iter   2:  -184.17294875215242    1.68700e-04   3.52643e-03 DIIS
   @DF-RKS iter   3:  -184.23794856006060   -6.49998e-02   5.24151e-04 DIIS
   @DF-RKS iter   4:  -184.23922289611829   -1.27434e-03   2.96719e-04 DIIS
   @DF-RKS iter   5:  -184.23972829157177   -5.05395e-04   4.13615e-05 DIIS
   @DF-RKS iter   6:  -184.23975000721859   -2.17156e-05   1.66933e-05 DIIS
   @DF-RKS iter   7:  -184.23975255188026   -2.54466e-06   2.78135e-06 DIIS
   @DF-RKS iter   8:  -184.23975265021906   -9.83388e-08   5.94618e-07 DIIS
   @DF-RKS iter   9:  -184.23975265275436   -2.53530e-09   7.70167e-08 DIIS
   @DF-RKS iter  10:  -184.23975265280066   -4.62990e-11   1.19674e-08 DIIS
   @DF-RKS iter  11:  -184.23975265280222   -1.56319e-12   1.57366e-09 DIIS
  Energy and wave function converged.


  ==> Post-Iterations <==

    Orbital Energies [Eh]
    ---------------------

    Doubly Occupied:                                                      

       1A1   -20.145384     2A1   -15.379364     3A1   -15.230421  
       4A1    -1.508792     5A1    -1.324709     6A1    -0.756601  
       1B1    -0.713144     1B2    -0.713144     7A1    -0.622186  
       2B2    -0.444975     2B1    -0.444975  

    Virtual:                                                              

       8A1     0.036792     9A1     0.061847     3B1     0.068381  
       3B2     0.068381    10A1     0.105562     4B1     0.108088  
       4B2     0.108088     5B1     0.122743     5B2     0.122743  
      11A1     0.176880     6B1     0.187716     6B2     0.187716  
      12A1     0.216900    13A1     0.229464    14A1     0.262923  
       1A2     0.262923    15A1     0.317682     7B1     0.362157  
       7B2     0.362157     2A2     0.368059    16A1     0.368059  
      17A1     0.383952    18A1     0.432630     8B2     0.463795  
       8B1     0.463795     9B1     0.490927     9B2     0.490927  
      19A1     0.555301    20A1     0.583828     3A2     0.583828  
      10B1     0.600909    10B2     0.600909    21A1     0.604933  
      22A1     0.710117    23A1     0.747970    11B1     0.776427  
      11B2     0.776427    24A1     0.847483    12B1     0.864758  
      12B2     0.864758     4A2     0.879541    25A1     0.879541  
      13B2     0.925353    13B1     0.925353    26A1     0.929145  
       5A2     0.929146    27A1     0.984169    14B1     1.087781  
      14B2     1.087781    15B1     1.101002    15B2     1.101002  
      28A1     1.164973     6A2     1.238263    29A1     1.238264  
      30A1     1.320313    16B1     1.320959    16B2     1.320959  
      31A1     1.347433    17B2     1.472289    17B1     1.472289  
       7A2     1.484158    32A1     1.484158    18B2     1.503833  
      18B1     1.503833    33A1     1.517595    34A1     1.615886  
      19B2     1.664845    19B1     1.664845    35A1     1.669933  
       8A2     1.669934    36A1     1.805290    20B1     1.880811  
      20B2     1.880811    21B2     1.917167    21B1     1.917167  
      37A1     1.923714     9A2     2.004548    38A1     2.004549  
      39A1     2.128602    22B1     2.233271    22B2     2.233271  
      10A2     2.537259    40A1     2.537259    23B2     2.723460  
      23B1     2.723460    11A2     2.729507    41A1     2.729507  
      24B1     2.816397    24B2     2.816397    42A1     2.846664  
      43A1     2.875328    25B1     2.946527    25B2     2.946527  
      12A2     2.955708    44A1     2.955708    26B2     2.975212  
      26B1     2.975212    45A1     2.980692    46A1     3.002841  
      13A2     3.002841    27B2     3.058151    27B1     3.058151  
      47A1     3.104539    14A2     3.104539    28B1     3.181117  
      28B2     3.181117    48A1     3.190242    49A1     3.228436  
      15A2     3.228437    29B1     3.320563    29B2     3.320563  
      50A1     3.401005    30B2     3.573310    30B1     3.573310  
      51A1     3.598862    52A1     3.670254    16A2     3.670256  
      31B2     3.771153    31B1     3.771153    53A1     3.880162  
      54A1     3.900905    17A2     3.900905    32B1     4.028709  
      32B2     4.028709    33B2     4.035283    33B1     4.035283  
      55A1     4.137042    34B1     4.190187    34B2     4.190187  
      18A2     4.323925    56A1     4.323926    57A1     4.508528  
      19A2     4.649062    58A1     4.649063    35B2     4.676234  
      35B1     4.676234    36B1     4.697028    36B2     4.697028  
      59A1     5.079438    20A2     5.288123    60A1     5.288123  
      37B1     5.353485    37B2     5.353485    61A1     5.479094  
      62A1     5.523250    21A2     5.721322    63A1     5.721322  
      38B1     6.027745    38B2     6.027745    64A1     6.053769  
      65A1     6.303336    39B1     6.322416    39B2     6.322416  
      66A1     7.053620    40B2     7.616234    40B1     7.616234  
      67A1     7.710472    22A2     7.710473    23A2     7.832733  
      68A1     7.832744    41B1     7.869958    41B2     7.869958  
      24A2     8.173825    69A1     8.173836    70A1     8.235819  
      42B1     8.393256    42B2     8.393256    71A1     8.491143  
      25A2     8.491146    43B1     8.589146    43B2     8.589146  
      44B1     8.630386    44B2     8.630386    72A1     8.761311  
      45B1     8.865953    45B2     8.865953    46B2     9.024427  
      46B1     9.024427    73A1     9.091538    26A2     9.091542  
      74A1     9.096967    47B2     9.193496    47B1     9.193496  
      75A1     9.468253    27A2     9.468261    76A1     9.493215  
      48B2     9.546469    48B1     9.546469    77A1    10.243117  
      78A1    10.345046    28A2    10.345047    79A1    10.443752  
      29A2    10.443793    80A1    10.470716    30A2    10.470722  
      49B2    10.610640    49B1    10.610640    50B1    10.752286  
      50B2    10.752286    51B2    11.093997    51B1    11.093997  
      52B1    11.190275    52B2    11.190275    81A1    11.308808  
      31A2    11.515315    82A1    11.515318    83A1    11.579581  
      53B1    11.728428    53B2    11.728428    54B2    11.868451  
      54B1    11.868451    55B2    12.389285    55B1    12.389285  
      84A1    12.393780    85A1    12.395976    32A2    12.395977  
      33A2    12.905010    86A1    12.905028    87A1    13.012531  
      56B2    13.706456    56B1    13.706456    88A1    13.870450  
      57B2    15.177246    57B1    15.177246    89A1    15.945482  
      90A1    16.403641    91A1    34.256665    92A1    34.763135  
      93A1    43.583338  

    Final Occupation by Irrep:
             A1    A2    B1    B2 
    DOCC [     7,    0,    2,    2 ]

  @DF-RKS Final Energy:  -184.23975265280222

   => Energetics <=

    Nuclear Repulsion Energy =             62.1525725648962748
    One-Electron Energy =                -373.4142902383117644
    Two-Electron Energy =                 133.6899055633256239
    DFT Exchange-Correlation Energy =      -6.6667964727123596
    Empirical Dispersion Energy =          -0.0011440700000000
    VV10 Nonlocal Energy =                  0.0000000000000000
    Total Energy =                       -184.2397526528022240

Computation Completed


Properties will be evaluated at   0.000000,   0.000000,   0.000000 [a0]

Properties computed using the SCF density matrix

  Nuclear Dipole Moment: [e a0]
     X:     0.0000      Y:     0.0000      Z:     0.0088

  Electronic Dipole Moment: [e a0]
     X:     0.0000      Y:     0.0000      Z:    -0.1326

  Dipole Moment: [e a0]
     X:     0.0000      Y:     0.0000      Z:    -0.1238     Total:     0.1238

  Dipole Moment: [D]
     X:     0.0000      Y:     0.0000      Z:    -0.3146     Total:     0.3146


*** tstop() called on bp1-compute00191.data.bp.acrc.priv at Mon Apr 19 15:46:43 2021
Module time:
	user time   =      53.52 seconds =       0.89 minutes
	system time =       1.74 seconds =       0.03 minutes
	total time  =          3 seconds =       0.05 minutes
Total time:
	user time   =     120.75 seconds =       2.01 minutes
	system time =       5.16 seconds =       0.09 minutes
	total time  =          6 seconds =       0.10 minutes

*** tstart() called on bp1-compute00191.data.bp.acrc.priv
*** at Mon Apr 19 15:46:43 2021

   => Loading Basis Set <=

    Name: (AUG-CC-PV(Q+D)Z AUX)
    Role: RIFIT
    Keyword: DF_BASIS_MP2
    atoms 1-2 entry N          line   258 file /work/zw18965/.conda/envs/p4env/share/psi4/basis/aug-cc-pvqz-ri.gbs 
    atoms 3   entry O          line   332 file /work/zw18965/.conda/envs/p4env/share/psi4/basis/aug-cc-pvqz-ri.gbs 

	 --------------------------------------------------------
	                          DF-MP2                         
	      2nd-Order Density-Fitted Moller-Plesset Theory     
	              RMP2 Wavefunction,  24 Threads             
	                                                         
	        Rob Parrish, Justin Turney, Andy Simmonett,      
	           Ed Hohenstein, and C. David Sherrill          
	 --------------------------------------------------------

   => Auxiliary Basis Set <=

  Basis Set: (AUG-CC-PV(Q+D)Z AUX)
    Blend: AUG-CC-PVQZ-RI
    Number of shells: 108
    Number of basis function: 504
    Number of Cartesian functions: 711
    Spherical Harmonics?: true
    Max angular momentum: 5

	 --------------------------------------------------------
	                 NBF =   240, NAUX =   504
	 --------------------------------------------------------
	   CLASS    FOCC     OCC    AOCC    AVIR     VIR    FVIR
	   PAIRS       0      11      11     229     229       0
	 --------------------------------------------------------

	-----------------------------------------------------------
	 ==================> DF-MP2 Energies <==================== 
	-----------------------------------------------------------
	 Reference Energy          =    -184.2397526528022240 [Eh]
	 Singles Energy            =      -0.0000000000000000 [Eh]
	 Same-Spin Energy          =      -0.2199317363432574 [Eh]
	 Opposite-Spin Energy      =      -0.6453172659319841 [Eh]
	 Correlation Energy        =      -0.8652490022752415 [Eh]
	 Total Energy              =    -185.1050016550774728 [Eh]
	-----------------------------------------------------------
	 ================> DF-SCS-MP2 Energies <================== 
	-----------------------------------------------------------
	 SCS Same-Spin Scale       =       0.4000000000000000 [-]
	 SCS Opposite-Spin Scale   =       0.4700000000000000 [-]
	 SCS Same-Spin Energy      =      -0.0879726945373030 [Eh]
	 SCS Opposite-Spin Energy  =      -0.3032991149880325 [Eh]
	 SCS Correlation Energy    =      -0.3912718095253355 [Eh]
	 SCS Total Energy          =    -184.6310244623275594 [Eh]
	-----------------------------------------------------------



    DSD-BLYP-D3BJ Energy Summary
    ----------------------------
    DFT Reference Energy                  =  -184.2397526528022240
    Scaled MP2 Correlation                =    -0.3912718095253355
    @Final double-hybrid DFT total energy =  -184.6310244623275594


*** tstop() called on bp1-compute00191.data.bp.acrc.priv at Mon Apr 19 15:46:44 2021
Module time:
	user time   =      13.27 seconds =       0.22 minutes
	system time =       0.43 seconds =       0.01 minutes
	total time  =          1 seconds =       0.02 minutes
Total time:
	user time   =     134.03 seconds =       2.23 minutes
	system time =       5.59 seconds =       0.09 minutes
	total time  =          7 seconds =       0.12 minutes

  //>>>>>>>>>>>>>>>>>>>>>>>>>>>>>>>>>>>//
  //    Loading displacement 3 of 5    //
  //<<<<<<<<<<<<<<<<<<<<<<<<<<<<<<<<<<<//

*** tstart() called on bp1-compute00191.data.bp.acrc.priv
*** at Mon Apr 19 15:46:44 2021

   => Loading Basis Set <=

    Name: AUG-CC-PV(Q+D)Z
    Role: ORBITAL
    Keyword: BASIS
    atoms 1-2 entry N          line   379 file /work/zw18965/.conda/envs/p4env/share/psi4/basis/aug-cc-pv_qpd_z.gbs 
    atoms 3   entry O          line   439 file /work/zw18965/.conda/envs/p4env/share/psi4/basis/aug-cc-pv_qpd_z.gbs 


         ---------------------------------------------------------
                                   SCF
               by Justin Turney, Rob Parrish, Andy Simmonett
                          and Daniel G. A. Smith
                              RKS Reference
                       24 Threads, 137329 MiB Core
         ---------------------------------------------------------

  ==> Geometry <==

    Molecular point group: c2v
    Full point group: C_inf_v

    Geometry (in Angstrom), charge = 0, multiplicity = 1:

       Center              X                  Y                   Z               Mass       
    ------------   -----------------  -----------------  -----------------  -----------------
         N            0.000000000000     0.000000000000    -1.172986241474    14.003074004430
         N            0.000000000000     0.000000000000    -0.070055938767    14.003074004430
         O            0.000000000000     0.000000000000     1.088246611785    15.994914619570

  Running in c2v symmetry.

  Rotational constants: A = ************  B =      0.44040  C =      0.44040 [cm^-1]
  Rotational constants: A = ************  B =  13202.86624  C =  13202.86624 [MHz]
  Nuclear repulsion =   62.198941424516292

  Charge       = 0
  Multiplicity = 1
  Electrons    = 22
  Nalpha       = 11
  Nbeta        = 11

  ==> Algorithm <==

  SCF Algorithm Type is DF.
  DIIS enabled.
  MOM disabled.
  Fractional occupation disabled.
  Guess Type is SAD.
  Energy threshold   = 1.00e-08
  Density threshold  = 1.00e-08
  Integral threshold = 0.00e+00

  ==> Primary Basis <==

  Basis Set: AUG-CC-PV(Q+D)Z
    Blend: AUG-CC-PV(Q+D)Z
    Number of shells: 60
    Number of basis function: 240
    Number of Cartesian functions: 315
    Spherical Harmonics?: true
    Max angular momentum: 4

  ==> DFT Potential <==

   => Composite Functional: DSD-BLYP-D3BJ <= 

    DSD-BLYP-D3BJ Dispersion-corrected SCS Double Hybrid XC Functional

    S. Kozuch, J.M.L. Martin, J. Comp. Chem., 34, 2327-2344, 2013


    Deriv               =              1
    GGA                 =           TRUE
    Meta                =          FALSE

    Exchange Hybrid     =           TRUE
    MP2 Hybrid          =           TRUE

   => Exchange Functionals <=

    0.2900     XC_GGA_X_B88

   => Exact (HF) Exchange <=

    0.7100               HF 

   => Correlation Functionals <=

    0.5400     XC_GGA_C_LYP

   => MP2 Correlation <=

    MP2 SCS Hybrid      =           TRUE
    MP2 OS Alpha        =       0.470000
    MP2 SS Alpha        =       0.400000

   => Molecular Quadrature <=

    Radial Scheme          =       TREUTLER
    Pruning Scheme         =           FLAT
    Nuclear Scheme         =       TREUTLER

    BS radius alpha        =              1
    Pruning alpha          =              1
    Radial Points          =             75
    Spherical Points       =            302
    Total Points           =          67950
    Total Blocks           =            586
    Max Points             =            256
    Max Functions          =            240

   => DSD-BLYP-D3BJ: Empirical Dispersion <=

    Grimme's -D3 (BJ-damping) Dispersion Correction
    Grimme S.; Ehrlich S.; Goerigk L. (2011), J. Comput. Chem., 32: 1456
    Parametrisation from:    S. Kozuch, J.M.L. Martin, J. Comp. Chem., 34, 2327-2344, 2013

        s6 =       0.570000
        s8 =       0.000000
        a1 =       0.000000
        a2 =       5.400000

   => Loading Basis Set <=

    Name: (AUG-CC-PV(Q+D)Z AUX)
    Role: JKFIT
    Keyword: DF_BASIS_SCF
    atoms 1-2 entry N          line   248 file /work/zw18965/.conda/envs/p4env/share/psi4/basis/aug-cc-pvqz-jkfit.gbs 
    atoms 3   entry O          line   318 file /work/zw18965/.conda/envs/p4env/share/psi4/basis/aug-cc-pvqz-jkfit.gbs 

  ==> Pre-Iterations <==

   -------------------------------------------------------
    Irrep   Nso     Nmo     Nalpha   Nbeta   Ndocc  Nsocc
   -------------------------------------------------------
     A1        93      93       0       0       0       0
     A2        33      33       0       0       0       0
     B1        57      57       0       0       0       0
     B2        57      57       0       0       0       0
   -------------------------------------------------------
    Total     240     240      11      11      11       0
   -------------------------------------------------------

  ==> Integral Setup <==

  DFHelper Memory: AOs need 0.208 GiB; user supplied 100.175 GiB. Using in-core AOs.

  ==> MemDFJK: Density-Fitted J/K Matrices <==

    J tasked:                   Yes
    K tasked:                   Yes
    wK tasked:                   No
    OpenMP threads:              24
    Memory [MiB]:            102579
    Algorithm:                 Core
    Schwarz Cutoff:           1E-12
    Mask sparsity (%):       0.3090
    Fitting Condition:        1E-10

   => Auxiliary Basis Set <=

  Basis Set: (AUG-CC-PV(Q+D)Z AUX)
    Blend: AUG-CC-PVQZ-JKFIT
    Number of shells: 102
    Number of basis function: 426
    Number of Cartesian functions: 594
    Spherical Harmonics?: true
    Max angular momentum: 5

  Cached 100.0% of DFT collocation blocks in 0.408 [GiB].

  Minimum eigenvalue in the overlap matrix is 1.5859273732E-05.
  Using Symmetric Orthogonalization.

  SCF Guess: Superposition of Atomic Densities via on-the-fly atomic UHF.

  ==> Iterations <==

                           Total Energy        Delta E     RMS |[F,P]|

   @DF-RKS iter SAD:  -183.83159975040840   -1.83832e+02   0.00000e+00 
   @DF-RKS iter   1:  -184.17330129233429   -3.41702e-01   3.48933e-03 DIIS
   @DF-RKS iter   2:  -184.17364348229239   -3.42190e-04   3.51306e-03 DIIS
   @DF-RKS iter   3:  -184.23807878286550   -6.44353e-02   5.19960e-04 DIIS
   @DF-RKS iter   4:  -184.23933173916967   -1.25296e-03   2.94876e-04 DIIS
   @DF-RKS iter   5:  -184.23983046024239   -4.98721e-04   4.15209e-05 DIIS
   @DF-RKS iter   6:  -184.23985226260814   -2.18024e-05   1.66874e-05 DIIS
   @DF-RKS iter   7:  -184.23985480457344   -2.54197e-06   2.77168e-06 DIIS
   @DF-RKS iter   8:  -184.23985490215395   -9.75805e-08   5.89516e-07 DIIS
   @DF-RKS iter   9:  -184.23985490464628   -2.49233e-09   7.62404e-08 DIIS
   @DF-RKS iter  10:  -184.23985490469170   -4.54179e-11   1.17112e-08 DIIS
   @DF-RKS iter  11:  -184.23985490469275   -1.05160e-12   1.52929e-09 DIIS
  Energy and wave function converged.


  ==> Post-Iterations <==

    Orbital Energies [Eh]
    ---------------------

    Doubly Occupied:                                                      

       1A1   -20.144974     2A1   -15.379038     3A1   -15.230072  
       4A1    -1.508968     5A1    -1.325694     6A1    -0.756271  
       1B1    -0.713525     1B2    -0.713525     7A1    -0.622178  
       2B2    -0.445138     2B1    -0.445138  

    Virtual:                                                              

       8A1     0.036807     9A1     0.061849     3B1     0.068591  
       3B2     0.068591    10A1     0.105579     4B2     0.108290  
       4B1     0.108290     5B1     0.123022     5B2     0.123022  
      11A1     0.176895     6B2     0.187791     6B1     0.187791  
      12A1     0.217020    13A1     0.229432    14A1     0.262911  
       1A2     0.262911    15A1     0.317670     7B2     0.362196  
       7B1     0.362196     2A2     0.368036    16A1     0.368036  
      17A1     0.384629    18A1     0.432743     8B2     0.463820  
       8B1     0.463820     9B2     0.490749     9B1     0.490749  
      19A1     0.555544    20A1     0.583954     3A2     0.583955  
      10B1     0.601032    10B2     0.601032    21A1     0.604810  
      22A1     0.710246    23A1     0.748180    11B2     0.776659  
      11B1     0.776659    24A1     0.847537    12B1     0.864745  
      12B2     0.864745     4A2     0.879431    25A1     0.879431  
      13B2     0.925331    13B1     0.925331    26A1     0.928937  
       5A2     0.928937    27A1     0.984700    14B2     1.087848  
      14B1     1.087848    15B2     1.101050    15B1     1.101050  
      28A1     1.166478     6A2     1.238500    29A1     1.238500  
      30A1     1.320758    16B2     1.321199    16B1     1.321199  
      31A1     1.348066    17B2     1.472569    17B1     1.472569  
       7A2     1.484609    32A1     1.484609    18B2     1.504419  
      18B1     1.504419    33A1     1.517724    34A1     1.616123  
      19B2     1.665232    19B1     1.665232    35A1     1.670239  
       8A2     1.670240    36A1     1.805777    20B2     1.881119  
      20B1     1.881119    21B2     1.917069    21B1     1.917069  
      37A1     1.923651     9A2     2.004402    38A1     2.004403  
      39A1     2.128966    22B2     2.232364    22B1     2.232364  
      10A2     2.537103    40A1     2.537103    23B1     2.723533  
      23B2     2.723533    11A2     2.729315    41A1     2.729315  
      24B1     2.816577    24B2     2.816577    42A1     2.845869  
      43A1     2.876286    25B2     2.946536    25B1     2.946536  
      12A2     2.956167    44A1     2.956167    26B2     2.975626  
      26B1     2.975626    45A1     2.981794    46A1     3.002805  
      13A2     3.002806    27B2     3.058274    27B1     3.058274  
      47A1     3.104473    14A2     3.104473    28B2     3.181707  
      28B1     3.181707    48A1     3.191411    49A1     3.229479  
      15A2     3.229480    29B2     3.321248    29B1     3.321248  
      50A1     3.403026    30B2     3.575251    30B1     3.575251  
      51A1     3.599069    52A1     3.670616    16A2     3.670618  
      31B2     3.772974    31B1     3.772974    53A1     3.880165  
      54A1     3.901741    17A2     3.901741    32B1     4.029258  
      32B2     4.029258    33B2     4.036053    33B1     4.036053  
      55A1     4.137933    34B1     4.190568    34B2     4.190568  
      18A2     4.325044    56A1     4.325045    57A1     4.509424  
      19A2     4.650979    58A1     4.650979    35B2     4.677418  
      35B1     4.677418    36B1     4.698462    36B2     4.698462  
      59A1     5.083239    20A2     5.289556    60A1     5.289556  
      37B2     5.353101    37B1     5.353101    61A1     5.480021  
      62A1     5.527163    21A2     5.722342    63A1     5.722342  
      38B2     6.029606    38B1     6.029606    64A1     6.053513  
      65A1     6.307180    39B2     6.321376    39B1     6.321376  
      66A1     7.055678    40B1     7.614744    40B2     7.614744  
      67A1     7.711307    22A2     7.711307    23A2     7.831779  
      68A1     7.831790    41B2     7.870689    41B1     7.870689  
      24A2     8.174750    69A1     8.174761    70A1     8.236636  
      42B1     8.394437    42B2     8.394437    71A1     8.489293  
      25A2     8.489296    43B1     8.590442    43B2     8.590442  
      44B2     8.631023    44B1     8.631023    72A1     8.761349  
      45B2     8.866575    45B1     8.866575    46B2     9.026447  
      46B1     9.026447    73A1     9.091580    26A2     9.091583  
      74A1     9.101089    47B2     9.196655    47B1     9.196655  
      75A1     9.469967    27A2     9.469975    76A1     9.496829  
      48B2     9.547135    48B1     9.547135    77A1    10.246759  
      78A1    10.351420    28A2    10.351421    79A1    10.444104  
      29A2    10.444145    80A1    10.475966    30A2    10.475972  
      49B1    10.617160    49B2    10.617160    50B1    10.752847  
      50B2    10.752847    51B2    11.094707    51B1    11.094707  
      52B2    11.195785    52B1    11.195785    81A1    11.309860  
      31A2    11.519009    82A1    11.519012    83A1    11.583220  
      53B2    11.729037    53B1    11.729037    54B2    11.869132  
      54B1    11.869132    55B1    12.396133    55B2    12.396133  
      84A1    12.396395    32A2    12.396396    85A1    12.399248  
      33A2    12.906216    86A1    12.906234    87A1    13.015825  
      56B2    13.711568    56B1    13.711568    88A1    13.875960  
      57B1    15.184749    57B2    15.184749    89A1    15.953982  
      90A1    16.407804    91A1    34.289837    92A1    34.772727  
      93A1    43.585647  

    Final Occupation by Irrep:
             A1    A2    B1    B2 
    DOCC [     7,    0,    2,    2 ]

  @DF-RKS Final Energy:  -184.23985490469275

   => Energetics <=

    Nuclear Repulsion Energy =             62.1989414245162919
    One-Electron Energy =                -373.5051073576665885
    Two-Electron Energy =                 133.7349315219117614
    DFT Exchange-Correlation Energy =      -6.6674761434542251
    Empirical Dispersion Energy =          -0.0011443500000000
    VV10 Nonlocal Energy =                  0.0000000000000000
    Total Energy =                       -184.2398549046927485

Computation Completed


Properties will be evaluated at   0.000000,   0.000000,   0.000000 [a0]

Properties computed using the SCF density matrix

  Nuclear Dipole Moment: [e a0]
     X:     0.0000      Y:     0.0000      Z:     0.0088

  Electronic Dipole Moment: [e a0]
     X:     0.0000      Y:     0.0000      Z:    -0.1355

  Dipole Moment: [e a0]
     X:     0.0000      Y:     0.0000      Z:    -0.1267     Total:     0.1267

  Dipole Moment: [D]
     X:     0.0000      Y:     0.0000      Z:    -0.3219     Total:     0.3219


*** tstop() called on bp1-compute00191.data.bp.acrc.priv at Mon Apr 19 15:46:46 2021
Module time:
	user time   =      54.24 seconds =       0.90 minutes
	system time =       2.50 seconds =       0.04 minutes
	total time  =          2 seconds =       0.03 minutes
Total time:
	user time   =     188.40 seconds =       3.14 minutes
	system time =       8.10 seconds =       0.14 minutes
	total time  =          9 seconds =       0.15 minutes

*** tstart() called on bp1-compute00191.data.bp.acrc.priv
*** at Mon Apr 19 15:46:46 2021

   => Loading Basis Set <=

    Name: (AUG-CC-PV(Q+D)Z AUX)
    Role: RIFIT
    Keyword: DF_BASIS_MP2
    atoms 1-2 entry N          line   258 file /work/zw18965/.conda/envs/p4env/share/psi4/basis/aug-cc-pvqz-ri.gbs 
    atoms 3   entry O          line   332 file /work/zw18965/.conda/envs/p4env/share/psi4/basis/aug-cc-pvqz-ri.gbs 

	 --------------------------------------------------------
	                          DF-MP2                         
	      2nd-Order Density-Fitted Moller-Plesset Theory     
	              RMP2 Wavefunction,  24 Threads             
	                                                         
	        Rob Parrish, Justin Turney, Andy Simmonett,      
	           Ed Hohenstein, and C. David Sherrill          
	 --------------------------------------------------------

   => Auxiliary Basis Set <=

  Basis Set: (AUG-CC-PV(Q+D)Z AUX)
    Blend: AUG-CC-PVQZ-RI
    Number of shells: 108
    Number of basis function: 504
    Number of Cartesian functions: 711
    Spherical Harmonics?: true
    Max angular momentum: 5

	 --------------------------------------------------------
	                 NBF =   240, NAUX =   504
	 --------------------------------------------------------
	   CLASS    FOCC     OCC    AOCC    AVIR     VIR    FVIR
	   PAIRS       0      11      11     229     229       0
	 --------------------------------------------------------

	-----------------------------------------------------------
	 ==================> DF-MP2 Energies <==================== 
	-----------------------------------------------------------
	 Reference Energy          =    -184.2398549046927485 [Eh]
	 Singles Energy            =      -0.0000000000000000 [Eh]
	 Same-Spin Energy          =      -0.2197090748082837 [Eh]
	 Opposite-Spin Energy      =      -0.6448321565466506 [Eh]
	 Correlation Energy        =      -0.8645412313549343 [Eh]
	 Total Energy              =    -185.1043961360476828 [Eh]
	-----------------------------------------------------------
	 ================> DF-SCS-MP2 Energies <================== 
	-----------------------------------------------------------
	 SCS Same-Spin Scale       =       0.4000000000000000 [-]
	 SCS Opposite-Spin Scale   =       0.4700000000000000 [-]
	 SCS Same-Spin Energy      =      -0.0878836299233135 [Eh]
	 SCS Opposite-Spin Energy  =      -0.3030711135769258 [Eh]
	 SCS Correlation Energy    =      -0.3909547435002393 [Eh]
	 SCS Total Energy          =    -184.6308096481929795 [Eh]
	-----------------------------------------------------------



    DSD-BLYP-D3BJ Energy Summary
    ----------------------------
    DFT Reference Energy                  =  -184.2398549046927485
    Scaled MP2 Correlation                =    -0.3909547435002393
    @Final double-hybrid DFT total energy =  -184.6308096481929795


*** tstop() called on bp1-compute00191.data.bp.acrc.priv at Mon Apr 19 15:46:47 2021
Module time:
	user time   =      13.47 seconds =       0.22 minutes
	system time =       0.44 seconds =       0.01 minutes
	total time  =          1 seconds =       0.02 minutes
Total time:
	user time   =     201.88 seconds =       3.36 minutes
	system time =       8.54 seconds =       0.14 minutes
	total time  =         10 seconds =       0.17 minutes

  //>>>>>>>>>>>>>>>>>>>>>>>>>>>>>>>>>>>//
  //    Loading displacement 4 of 5    //
  //<<<<<<<<<<<<<<<<<<<<<<<<<<<<<<<<<<<//

*** tstart() called on bp1-compute00191.data.bp.acrc.priv
*** at Mon Apr 19 15:46:47 2021

   => Loading Basis Set <=

    Name: AUG-CC-PV(Q+D)Z
    Role: ORBITAL
    Keyword: BASIS
    atoms 1-2 entry N          line   379 file /work/zw18965/.conda/envs/p4env/share/psi4/basis/aug-cc-pv_qpd_z.gbs 
    atoms 3   entry O          line   439 file /work/zw18965/.conda/envs/p4env/share/psi4/basis/aug-cc-pv_qpd_z.gbs 


         ---------------------------------------------------------
                                   SCF
               by Justin Turney, Rob Parrish, Andy Simmonett
                          and Daniel G. A. Smith
                              RKS Reference
                       24 Threads, 137329 MiB Core
         ---------------------------------------------------------

  ==> Geometry <==

    Molecular point group: c2v
    Full point group: C_inf_v

    Geometry (in Angstrom), charge = 0, multiplicity = 1:

       Center              X                  Y                   Z               Mass       
    ------------   -----------------  -----------------  -----------------  -----------------
         N            0.000000000000     0.000000000000    -1.173570054702    14.003074004430
         N            0.000000000000     0.000000000000    -0.070299717134    14.003074004430
         O            0.000000000000     0.000000000000     1.088971143715    15.994914619570

  Running in c2v symmetry.

  Rotational constants: A = ************  B =      0.43988  C =      0.43988 [cm^-1]
  Rotational constants: A = ************  B =  13187.39950  C =  13187.39950 [MHz]
  Nuclear repulsion =   62.162747670200559

  Charge       = 0
  Multiplicity = 1
  Electrons    = 22
  Nalpha       = 11
  Nbeta        = 11

  ==> Algorithm <==

  SCF Algorithm Type is DF.
  DIIS enabled.
  MOM disabled.
  Fractional occupation disabled.
  Guess Type is SAD.
  Energy threshold   = 1.00e-08
  Density threshold  = 1.00e-08
  Integral threshold = 0.00e+00

  ==> Primary Basis <==

  Basis Set: AUG-CC-PV(Q+D)Z
    Blend: AUG-CC-PV(Q+D)Z
    Number of shells: 60
    Number of basis function: 240
    Number of Cartesian functions: 315
    Spherical Harmonics?: true
    Max angular momentum: 4

  ==> DFT Potential <==

   => Composite Functional: DSD-BLYP-D3BJ <= 

    DSD-BLYP-D3BJ Dispersion-corrected SCS Double Hybrid XC Functional

    S. Kozuch, J.M.L. Martin, J. Comp. Chem., 34, 2327-2344, 2013


    Deriv               =              1
    GGA                 =           TRUE
    Meta                =          FALSE

    Exchange Hybrid     =           TRUE
    MP2 Hybrid          =           TRUE

   => Exchange Functionals <=

    0.2900     XC_GGA_X_B88

   => Exact (HF) Exchange <=

    0.7100               HF 

   => Correlation Functionals <=

    0.5400     XC_GGA_C_LYP

   => MP2 Correlation <=

    MP2 SCS Hybrid      =           TRUE
    MP2 OS Alpha        =       0.470000
    MP2 SS Alpha        =       0.400000

   => Molecular Quadrature <=

    Radial Scheme          =       TREUTLER
    Pruning Scheme         =           FLAT
    Nuclear Scheme         =       TREUTLER

    BS radius alpha        =              1
    Pruning alpha          =              1
    Radial Points          =             75
    Spherical Points       =            302
    Total Points           =          67950
    Total Blocks           =            587
    Max Points             =            256
    Max Functions          =            240

   => DSD-BLYP-D3BJ: Empirical Dispersion <=

    Grimme's -D3 (BJ-damping) Dispersion Correction
    Grimme S.; Ehrlich S.; Goerigk L. (2011), J. Comput. Chem., 32: 1456
    Parametrisation from:    S. Kozuch, J.M.L. Martin, J. Comp. Chem., 34, 2327-2344, 2013

        s6 =       0.570000
        s8 =       0.000000
        a1 =       0.000000
        a2 =       5.400000

   => Loading Basis Set <=

    Name: (AUG-CC-PV(Q+D)Z AUX)
    Role: JKFIT
    Keyword: DF_BASIS_SCF
    atoms 1-2 entry N          line   248 file /work/zw18965/.conda/envs/p4env/share/psi4/basis/aug-cc-pvqz-jkfit.gbs 
    atoms 3   entry O          line   318 file /work/zw18965/.conda/envs/p4env/share/psi4/basis/aug-cc-pvqz-jkfit.gbs 

  ==> Pre-Iterations <==

   -------------------------------------------------------
    Irrep   Nso     Nmo     Nalpha   Nbeta   Ndocc  Nsocc
   -------------------------------------------------------
     A1        93      93       0       0       0       0
     A2        33      33       0       0       0       0
     B1        57      57       0       0       0       0
     B2        57      57       0       0       0       0
   -------------------------------------------------------
    Total     240     240      11      11      11       0
   -------------------------------------------------------

  ==> Integral Setup <==

  DFHelper Memory: AOs need 0.208 GiB; user supplied 100.175 GiB. Using in-core AOs.

  ==> MemDFJK: Density-Fitted J/K Matrices <==

    J tasked:                   Yes
    K tasked:                   Yes
    wK tasked:                   No
    OpenMP threads:              24
    Memory [MiB]:            102579
    Algorithm:                 Core
    Schwarz Cutoff:           1E-12
    Mask sparsity (%):       0.3299
    Fitting Condition:        1E-10

   => Auxiliary Basis Set <=

  Basis Set: (AUG-CC-PV(Q+D)Z AUX)
    Blend: AUG-CC-PVQZ-JKFIT
    Number of shells: 102
    Number of basis function: 426
    Number of Cartesian functions: 594
    Spherical Harmonics?: true
    Max angular momentum: 5

  Cached 100.0% of DFT collocation blocks in 0.408 [GiB].

  Minimum eigenvalue in the overlap matrix is 1.5891918065E-05.
  Using Symmetric Orthogonalization.

  SCF Guess: Superposition of Atomic Densities via on-the-fly atomic UHF.

  ==> Iterations <==

                           Total Energy        Delta E     RMS |[F,P]|

   @DF-RKS iter SAD:  -183.82816520995112   -1.83828e+02   0.00000e+00 
   @DF-RKS iter   1:  -184.17328062571409   -3.45115e-01   3.48965e-03 DIIS
   @DF-RKS iter   2:  -184.17351303461322   -2.32409e-04   3.51703e-03 DIIS
   @DF-RKS iter   3:  -184.23809447191704   -6.45814e-02   5.18106e-04 DIIS
   @DF-RKS iter   4:  -184.23933529425810   -1.24082e-03   2.95400e-04 DIIS
   @DF-RKS iter   5:  -184.23983619315254   -5.00899e-04   4.16251e-05 DIIS
   @DF-RKS iter   6:  -184.23985819374457   -2.20006e-05   1.67652e-05 DIIS
   @DF-RKS iter   7:  -184.23986076677869   -2.57303e-06   2.78492e-06 DIIS
   @DF-RKS iter   8:  -184.23986086531292   -9.85342e-08   5.92905e-07 DIIS
   @DF-RKS iter   9:  -184.23986086783182   -2.51890e-09   7.66393e-08 DIIS
   @DF-RKS iter  10:  -184.23986086787770   -4.58726e-11   1.18015e-08 DIIS
   @DF-RKS iter  11:  -184.23986086787889   -1.19371e-12   1.54487e-09 DIIS
  Energy and wave function converged.


  ==> Post-Iterations <==

    Orbital Energies [Eh]
    ---------------------

    Doubly Occupied:                                                      

       1A1   -20.144968     2A1   -15.379124     3A1   -15.230444  
       4A1    -1.508207     5A1    -1.325389     6A1    -0.756213  
       1B1    -0.713107     1B2    -0.713107     7A1    -0.622335  
       2B1    -0.445154     2B2    -0.445154  

    Virtual:                                                              

       8A1     0.036796     9A1     0.061836     3B1     0.068457  
       3B2     0.068457    10A1     0.105575     4B2     0.108179  
       4B1     0.108179     5B2     0.122872     5B1     0.122872  
      11A1     0.176900     6B1     0.187762     6B2     0.187762  
      12A1     0.216904    13A1     0.229396    14A1     0.262900  
       1A2     0.262900    15A1     0.317685     7B2     0.362216  
       7B1     0.362216     2A2     0.368029    16A1     0.368029  
      17A1     0.384036    18A1     0.432441     8B1     0.463824  
       8B2     0.463824     9B1     0.490754     9B2     0.490754  
      19A1     0.555466    20A1     0.583957     3A2     0.583957  
      10B1     0.601041    10B2     0.601041    21A1     0.604773  
      22A1     0.710123    23A1     0.748095    11B1     0.776546  
      11B2     0.776546    24A1     0.847594    12B1     0.864715  
      12B2     0.864715     4A2     0.879447    25A1     0.879447  
      13B1     0.925400    13B2     0.925400    26A1     0.928988  
       5A2     0.928988    27A1     0.984218    14B1     1.087796  
      14B2     1.087796    15B1     1.100864    15B2     1.100864  
      28A1     1.165867     6A2     1.238323    29A1     1.238323  
      30A1     1.320408    16B1     1.321165    16B2     1.321165  
      31A1     1.347947    17B2     1.472413    17B1     1.472413  
       7A2     1.484605    32A1     1.484605    18B1     1.504221  
      18B2     1.504221    33A1     1.517374    34A1     1.615916  
      19B1     1.664952    19B2     1.664952    35A1     1.670055  
       8A2     1.670055    36A1     1.805939    20B2     1.880669  
      20B1     1.880669    21B2     1.917432    21B1     1.917432  
      37A1     1.924139     9A2     2.004404    38A1     2.004405  
      39A1     2.128406    22B1     2.232752    22B2     2.232752  
      10A2     2.537087    40A1     2.537087    23B1     2.723444  
      23B2     2.723444    11A2     2.729236    41A1     2.729237  
      24B1     2.816468    24B2     2.816468    42A1     2.845790  
      43A1     2.875783    25B2     2.946450    25B1     2.946450  
      12A2     2.956053    44A1     2.956053    26B1     2.975502  
      26B2     2.975502    45A1     2.980788    46A1     3.002943  
      13A2     3.002943    27B1     3.058007    27B2     3.058007  
      47A1     3.104076    14A2     3.104076    28B1     3.181350  
      28B2     3.181350    48A1     3.191346    49A1     3.228971  
      15A2     3.228972    29B1     3.320348    29B2     3.320348  
      50A1     3.401577    30B1     3.573899    30B2     3.573899  
      51A1     3.599473    52A1     3.670352    16A2     3.670355  
      31B1     3.772270    31B2     3.772270    53A1     3.880406  
      54A1     3.901806    17A2     3.901806    32B2     4.029065  
      32B1     4.029065    33B1     4.036040    33B2     4.036040  
      55A1     4.137396    34B1     4.191022    34B2     4.191022  
      18A2     4.324294    56A1     4.324294    57A1     4.508719  
      19A2     4.649897    58A1     4.649898    35B1     4.676274  
      35B2     4.676274    36B2     4.696760    36B1     4.696760  
      59A1     5.080710    20A2     5.288925    60A1     5.288925  
      37B1     5.353805    37B2     5.353805    61A1     5.477551  
      62A1     5.526568    21A2     5.720579    63A1     5.720579  
      38B1     6.027665    38B2     6.027665    64A1     6.051588  
      65A1     6.304252    39B1     6.320813    39B2     6.320813  
      66A1     7.057588    40B2     7.614971    40B1     7.614971  
      67A1     7.710847    22A2     7.710848    23A2     7.831938  
      68A1     7.831949    41B1     7.870026    41B2     7.870026  
      24A2     8.174424    69A1     8.174435    70A1     8.236148  
      42B1     8.392933    42B2     8.392933    71A1     8.489956  
      25A2     8.489959    43B1     8.589180    43B2     8.589180  
      44B2     8.631248    44B1     8.631248    72A1     8.760491  
      45B2     8.866255    45B1     8.866255    46B1     9.024936  
      46B2     9.024936    73A1     9.091637    26A2     9.091640  
      74A1     9.098399    47B1     9.195893    47B2     9.195893  
      75A1     9.468861    27A2     9.468869    76A1     9.496290  
      48B1     9.547667    48B2     9.547667    77A1    10.243640  
      78A1    10.349441    28A2    10.349442    79A1    10.444220  
      29A2    10.444261    80A1    10.473811    30A2    10.473817  
      49B1    10.613577    49B2    10.613577    50B1    10.751847  
      50B2    10.751847    51B1    11.094119    51B2    11.094119  
      52B1    11.193996    52B2    11.193996    81A1    11.309911  
      31A2    11.515622    82A1    11.515625    83A1    11.580494  
      53B2    11.728674    53B1    11.728674    54B1    11.869626  
      54B2    11.869626    55B1    12.392719    55B2    12.392719  
      84A1    12.394335    85A1    12.395408    32A2    12.395409  
      33A2    12.904044    86A1    12.904062    87A1    13.012602  
      56B1    13.706219    56B2    13.706219    88A1    13.874638  
      57B1    15.175547    57B2    15.175547    89A1    15.945568  
      90A1    16.402706    91A1    34.278723    92A1    34.767023  
      93A1    43.578562  

    Final Occupation by Irrep:
             A1    A2    B1    B2 
    DOCC [     7,    0,    2,    2 ]

  @DF-RKS Final Energy:  -184.23986086787889

   => Energetics <=

    Nuclear Repulsion Energy =             62.1627476702005595
    One-Electron Energy =                -373.4356503401822920
    Two-Electron Energy =                 133.7012513722404492
    DFT Exchange-Correlation Energy =      -6.6670654301376242
    Empirical Dispersion Energy =          -0.0011441400000000
    VV10 Nonlocal Energy =                  0.0000000000000000
    Total Energy =                       -184.2398608678788889

Computation Completed


Properties will be evaluated at   0.000000,   0.000000,   0.000000 [a0]

Properties computed using the SCF density matrix

  Nuclear Dipole Moment: [e a0]
     X:     0.0000      Y:     0.0000      Z:     0.0088

  Electronic Dipole Moment: [e a0]
     X:     0.0000      Y:     0.0000      Z:    -0.1381

  Dipole Moment: [e a0]
     X:     0.0000      Y:     0.0000      Z:    -0.1293     Total:     0.1293

  Dipole Moment: [D]
     X:     0.0000      Y:     0.0000      Z:    -0.3286     Total:     0.3286


*** tstop() called on bp1-compute00191.data.bp.acrc.priv at Mon Apr 19 15:46:49 2021
Module time:
	user time   =      53.12 seconds =       0.89 minutes
	system time =       1.70 seconds =       0.03 minutes
	total time  =          2 seconds =       0.03 minutes
Total time:
	user time   =     255.14 seconds =       4.25 minutes
	system time =      10.24 seconds =       0.17 minutes
	total time  =         12 seconds =       0.20 minutes

*** tstart() called on bp1-compute00191.data.bp.acrc.priv
*** at Mon Apr 19 15:46:49 2021

   => Loading Basis Set <=

    Name: (AUG-CC-PV(Q+D)Z AUX)
    Role: RIFIT
    Keyword: DF_BASIS_MP2
    atoms 1-2 entry N          line   258 file /work/zw18965/.conda/envs/p4env/share/psi4/basis/aug-cc-pvqz-ri.gbs 
    atoms 3   entry O          line   332 file /work/zw18965/.conda/envs/p4env/share/psi4/basis/aug-cc-pvqz-ri.gbs 

	 --------------------------------------------------------
	                          DF-MP2                         
	      2nd-Order Density-Fitted Moller-Plesset Theory     
	              RMP2 Wavefunction,  24 Threads             
	                                                         
	        Rob Parrish, Justin Turney, Andy Simmonett,      
	           Ed Hohenstein, and C. David Sherrill          
	 --------------------------------------------------------

   => Auxiliary Basis Set <=

  Basis Set: (AUG-CC-PV(Q+D)Z AUX)
    Blend: AUG-CC-PVQZ-RI
    Number of shells: 108
    Number of basis function: 504
    Number of Cartesian functions: 711
    Spherical Harmonics?: true
    Max angular momentum: 5

	 --------------------------------------------------------
	                 NBF =   240, NAUX =   504
	 --------------------------------------------------------
	   CLASS    FOCC     OCC    AOCC    AVIR     VIR    FVIR
	   PAIRS       0      11      11     229     229       0
	 --------------------------------------------------------

	-----------------------------------------------------------
	 ==================> DF-MP2 Energies <==================== 
	-----------------------------------------------------------
	 Reference Energy          =    -184.2398608678788889 [Eh]
	 Singles Energy            =      -0.0000000000000000 [Eh]
	 Same-Spin Energy          =      -0.2197749619836846 [Eh]
	 Opposite-Spin Energy      =      -0.6450082376477260 [Eh]
	 Correlation Energy        =      -0.8647831996314106 [Eh]
	 Total Energy              =    -185.1046440675102929 [Eh]
	-----------------------------------------------------------
	 ================> DF-SCS-MP2 Energies <================== 
	-----------------------------------------------------------
	 SCS Same-Spin Scale       =       0.4000000000000000 [-]
	 SCS Opposite-Spin Scale   =       0.4700000000000000 [-]
	 SCS Same-Spin Energy      =      -0.0879099847934739 [Eh]
	 SCS Opposite-Spin Energy  =      -0.3031538716944312 [Eh]
	 SCS Correlation Energy    =      -0.3910638564879050 [Eh]
	 SCS Total Energy          =    -184.6309247243667926 [Eh]
	-----------------------------------------------------------



    DSD-BLYP-D3BJ Energy Summary
    ----------------------------
    DFT Reference Energy                  =  -184.2398608678788889
    Scaled MP2 Correlation                =    -0.3910638564879050
    @Final double-hybrid DFT total energy =  -184.6309247243667926


*** tstop() called on bp1-compute00191.data.bp.acrc.priv at Mon Apr 19 15:46:50 2021
Module time:
	user time   =      13.10 seconds =       0.22 minutes
	system time =       0.47 seconds =       0.01 minutes
	total time  =          1 seconds =       0.02 minutes
Total time:
	user time   =     268.25 seconds =       4.47 minutes
	system time =      10.71 seconds =       0.18 minutes
	total time  =         13 seconds =       0.22 minutes

  //>>>>>>>>>>>>>>>>>>>>>>>>>>>>>>>>>>>//
  //    Loading displacement 5 of 5    //
  //<<<<<<<<<<<<<<<<<<<<<<<<<<<<<<<<<<<//

*** tstart() called on bp1-compute00191.data.bp.acrc.priv
*** at Mon Apr 19 15:46:50 2021

   => Loading Basis Set <=

    Name: AUG-CC-PV(Q+D)Z
    Role: ORBITAL
    Keyword: BASIS
    atoms 1-2 entry N          line   379 file /work/zw18965/.conda/envs/p4env/share/psi4/basis/aug-cc-pv_qpd_z.gbs 
    atoms 3   entry O          line   439 file /work/zw18965/.conda/envs/p4env/share/psi4/basis/aug-cc-pv_qpd_z.gbs 


         ---------------------------------------------------------
                                   SCF
               by Justin Turney, Rob Parrish, Andy Simmonett
                          and Daniel G. A. Smith
                              RKS Reference
                       24 Threads, 137329 MiB Core
         ---------------------------------------------------------

  ==> Geometry <==

    Molecular point group: c2v
    Full point group: C_inf_v

    Geometry (in Angstrom), charge = 0, multiplicity = 1:

       Center              X                  Y                   Z               Mass       
    ------------   -----------------  -----------------  -----------------  -----------------
         N            0.000000000000     0.000000000000    -1.173570054702    14.003074004430
         N            0.000000000000     0.000000000000    -0.069267111867    14.003074004430
         O            0.000000000000     0.000000000000     1.088067128388    15.994914619570

  Running in c2v symmetry.

  Rotational constants: A = ************  B =      0.44027  C =      0.44027 [cm^-1]
  Rotational constants: A = ************  B =  13198.93644  C =  13198.93644 [MHz]
  Nuclear repulsion =   62.188781370194690

  Charge       = 0
  Multiplicity = 1
  Electrons    = 22
  Nalpha       = 11
  Nbeta        = 11

  ==> Algorithm <==

  SCF Algorithm Type is DF.
  DIIS enabled.
  MOM disabled.
  Fractional occupation disabled.
  Guess Type is SAD.
  Energy threshold   = 1.00e-08
  Density threshold  = 1.00e-08
  Integral threshold = 0.00e+00

  ==> Primary Basis <==

  Basis Set: AUG-CC-PV(Q+D)Z
    Blend: AUG-CC-PV(Q+D)Z
    Number of shells: 60
    Number of basis function: 240
    Number of Cartesian functions: 315
    Spherical Harmonics?: true
    Max angular momentum: 4

  ==> DFT Potential <==

   => Composite Functional: DSD-BLYP-D3BJ <= 

    DSD-BLYP-D3BJ Dispersion-corrected SCS Double Hybrid XC Functional

    S. Kozuch, J.M.L. Martin, J. Comp. Chem., 34, 2327-2344, 2013


    Deriv               =              1
    GGA                 =           TRUE
    Meta                =          FALSE

    Exchange Hybrid     =           TRUE
    MP2 Hybrid          =           TRUE

   => Exchange Functionals <=

    0.2900     XC_GGA_X_B88

   => Exact (HF) Exchange <=

    0.7100               HF 

   => Correlation Functionals <=

    0.5400     XC_GGA_C_LYP

   => MP2 Correlation <=

    MP2 SCS Hybrid      =           TRUE
    MP2 OS Alpha        =       0.470000
    MP2 SS Alpha        =       0.400000

   => Molecular Quadrature <=

    Radial Scheme          =       TREUTLER
    Pruning Scheme         =           FLAT
    Nuclear Scheme         =       TREUTLER

    BS radius alpha        =              1
    Pruning alpha          =              1
    Radial Points          =             75
    Spherical Points       =            302
    Total Points           =          67950
    Total Blocks           =            583
    Max Points             =            256
    Max Functions          =            240

   => DSD-BLYP-D3BJ: Empirical Dispersion <=

    Grimme's -D3 (BJ-damping) Dispersion Correction
    Grimme S.; Ehrlich S.; Goerigk L. (2011), J. Comput. Chem., 32: 1456
    Parametrisation from:    S. Kozuch, J.M.L. Martin, J. Comp. Chem., 34, 2327-2344, 2013

        s6 =       0.570000
        s8 =       0.000000
        a1 =       0.000000
        a2 =       5.400000

   => Loading Basis Set <=

    Name: (AUG-CC-PV(Q+D)Z AUX)
    Role: JKFIT
    Keyword: DF_BASIS_SCF
    atoms 1-2 entry N          line   248 file /work/zw18965/.conda/envs/p4env/share/psi4/basis/aug-cc-pvqz-jkfit.gbs 
    atoms 3   entry O          line   318 file /work/zw18965/.conda/envs/p4env/share/psi4/basis/aug-cc-pvqz-jkfit.gbs 

  ==> Pre-Iterations <==

   -------------------------------------------------------
    Irrep   Nso     Nmo     Nalpha   Nbeta   Ndocc  Nsocc
   -------------------------------------------------------
     A1        93      93       0       0       0       0
     A2        33      33       0       0       0       0
     B1        57      57       0       0       0       0
     B2        57      57       0       0       0       0
   -------------------------------------------------------
    Total     240     240      11      11      11       0
   -------------------------------------------------------

  ==> Integral Setup <==

  DFHelper Memory: AOs need 0.208 GiB; user supplied 100.175 GiB. Using in-core AOs.

  ==> MemDFJK: Density-Fitted J/K Matrices <==

    J tasked:                   Yes
    K tasked:                   Yes
    wK tasked:                   No
    OpenMP threads:              24
    Memory [MiB]:            102579
    Algorithm:                 Core
    Schwarz Cutoff:           1E-12
    Mask sparsity (%):       0.3229
    Fitting Condition:        1E-10

   => Auxiliary Basis Set <=

  Basis Set: (AUG-CC-PV(Q+D)Z AUX)
    Blend: AUG-CC-PVQZ-JKFIT
    Number of shells: 102
    Number of basis function: 426
    Number of Cartesian functions: 594
    Spherical Harmonics?: true
    Max angular momentum: 5

  Cached 100.0% of DFT collocation blocks in 0.408 [GiB].

  Minimum eigenvalue in the overlap matrix is 1.5921409191E-05.
  Using Symmetric Orthogonalization.

  SCF Guess: Superposition of Atomic Densities via on-the-fly atomic UHF.

  ==> Iterations <==

                           Total Energy        Delta E     RMS |[F,P]|

   @DF-RKS iter SAD:  -183.83101866842810   -1.83831e+02   0.00000e+00 
   @DF-RKS iter   1:  -184.17313736318224   -3.42119e-01   3.48970e-03 DIIS
   @DF-RKS iter   2:  -184.17307769897485    5.96642e-05   3.52251e-03 DIIS
   @DF-RKS iter   3:  -184.23793265890052   -6.48550e-02   5.26001e-04 DIIS
   @DF-RKS iter   4:  -184.23921933521169   -1.28668e-03   2.96168e-04 DIIS
   @DF-RKS iter   5:  -184.23972244265150   -5.03107e-04   4.12606e-05 DIIS
   @DF-RKS iter   6:  -184.23974396427158   -2.15216e-05   1.66158e-05 DIIS
   @DF-RKS iter   7:  -184.23974647815254   -2.51388e-06   2.76805e-06 DIIS
   @DF-RKS iter   8:  -184.23974657553060   -9.73781e-08   5.91206e-07 DIIS
   @DF-RKS iter   9:  -184.23974657803899   -2.50839e-09   7.66121e-08 DIIS
   @DF-RKS iter  10:  -184.23974657808500   -4.60147e-11   1.18758e-08 DIIS
   @DF-RKS iter  11:  -184.23974657808591   -9.09495e-13   1.55789e-09 DIIS
  Energy and wave function converged.


  ==> Post-Iterations <==

    Orbital Energies [Eh]
    ---------------------

    Doubly Occupied:                                                      

       1A1   -20.145391     2A1   -15.379277     3A1   -15.230049  
       4A1    -1.509558     5A1    -1.325011     6A1    -0.756660  
[...]
   @DF-RKS iter   2:  -184.15916416389283    8.52620e-03   2.74223e-03 DIIS
   @DF-RKS iter   3:  -184.23412933440898   -7.49652e-02   3.87323e-04 DIIS
   @DF-RKS iter   4:  -184.23537327095400   -1.24394e-03   2.40627e-04 DIIS
   @DF-RKS iter   5:  -184.23601647914325   -6.43208e-04   3.08089e-05 DIIS
   @DF-RKS iter   6:  -184.23604212787865   -2.56487e-05   1.34612e-05 DIIS
   @DF-RKS iter   7:  -184.23604546341653   -3.33554e-06   2.33985e-06 DIIS
   @DF-RKS iter   8:  -184.23604559573167   -1.32315e-07   5.42084e-07 DIIS
   @DF-RKS iter   9:  -184.23604559966526   -3.93359e-09   7.11680e-08 DIIS
   @DF-RKS iter  10:  -184.23604559974089   -7.56302e-11   1.29952e-08 DIIS
   @DF-RKS iter  11:  -184.23604559974385   -2.95586e-12   1.82372e-09 DIIS
   @DF-RKS iter  12:  -184.23604559974379    5.68434e-14   1.64501e-10 DIIS
   @DF-RKS iter  13:  -184.23604559974365    1.42109e-13   3.30828e-11 DIIS
  Energy and wave function converged.


  ==> Post-Iterations <==

    Orbital Energies [Eh]
    ---------------------

    Doubly Occupied:                                                      

       1Ap   -20.149578     2Ap   -15.384609     3Ap   -15.242228  
       4Ap    -1.490242     5Ap    -1.307447     6Ap    -0.759098  
       7Ap    -0.700044     1App   -0.700044     8Ap    -0.625429  
       2App   -0.443599     9Ap    -0.443599  

    Virtual:                                                              

      10Ap     0.036347    11Ap     0.061521     3App    0.061616  
      12Ap     0.061617    13Ap     0.102641     4App    0.102643  
      14Ap     0.105314    15Ap     0.118781     5App    0.118781  
      16Ap     0.176837    17Ap     0.186532     6App    0.186533  
      18Ap     0.212312    19Ap     0.229011    20Ap     0.262832  
       7App    0.262832    21Ap     0.318209    22Ap     0.362231  
       8App    0.362237    23Ap     0.362482     9App    0.368193  
      24Ap     0.368193    25Ap     0.426611    10App    0.463645  
      26Ap     0.463646    27Ap     0.492900    11App    0.492900  
      28Ap     0.551058    29Ap     0.582459    12App    0.582460  
      30Ap     0.599749    13App    0.599750    31Ap     0.605283  
      32Ap     0.705889    33Ap     0.744422    14App    0.771439  
      34Ap     0.771439    35Ap     0.848265    15App    0.864293  
      36Ap     0.864293    16App    0.881155    37Ap     0.881155  
      38Ap     0.927352    17App    0.927353    39Ap     0.932862  
      18App    0.932863    40Ap     0.964260    19App    1.085857  
      41Ap     1.085857    42Ap     1.095941    20App    1.095942  
      43Ap     1.136642    21App    1.231529    44Ap     1.231529  
      45Ap     1.309076    22App    1.317596    46Ap     1.317600  
      47Ap     1.337948    48Ap     1.465836    23App    1.465836  
      24App    1.479242    49Ap     1.479242    50Ap     1.493514  
      25App    1.493515    51Ap     1.510842    52Ap     1.608862  
      53Ap     1.654014    26App    1.654014    54Ap     1.662867  
      27App    1.662867    55Ap     1.804315    28App    1.866662  
      56Ap     1.866663    57Ap     1.927250    29App    1.927255  
      58Ap     1.936131    30App    2.006030    59Ap     2.006031  
      60Ap     2.112725    31App    2.252041    61Ap     2.252042  
      32App    2.538812    62Ap     2.538812    63Ap     2.720430  
      33App    2.720430    34App    2.729638    64Ap     2.729638  
      65Ap     2.810872    35App    2.810874    66Ap     2.843923  
      67Ap     2.862133    36App    2.943319    68Ap     2.943319  
      69Ap     2.945680    37App    2.948224    70Ap     2.948225  
      38App    2.967958    71Ap     2.967959    72Ap     3.007347  
      39App    3.007348    73Ap     3.052392    40App    3.052392  
      74Ap     3.092660    41App    3.092660    75Ap     3.166400  
      42App    3.166414    76Ap     3.176599    77Ap     3.211958  
      43App    3.211958    44App    3.296714    78Ap     3.296716  
      79Ap     3.348391    80Ap     3.522845    45App    3.522846  
      81Ap     3.604813    82Ap     3.660909    46App    3.660911  
      83Ap     3.735356    47App    3.735356    84Ap     3.887405  
      48App    3.892271    85Ap     3.892272    86Ap     4.019715  
      49App    4.019715    87Ap     4.021433    50App    4.021433  
      88Ap     4.117505    51App    4.200647    89Ap     4.200648  
      52App    4.292525    90Ap     4.292526    91Ap     4.483771  
      53App    4.607586    92Ap     4.607586    93Ap     4.638710  
      54App    4.638710    94Ap     4.644415    55App    4.644415  
      95Ap     4.983259    96Ap     5.255953    56App    5.255953  
      97Ap     5.368587    57App    5.368598    98Ap     5.411938  
      99Ap     5.461373    58App    5.676320   100Ap     5.676320  
     101Ap     5.969748    59App    5.969763   102Ap     6.017853  
     103Ap     6.208769    60App    6.321221   104Ap     6.321232  
     105Ap     7.068765   106Ap     7.639230    61App    7.639230  
     107Ap     7.692087    62App    7.692088    63App    7.846061  
     108Ap     7.846073    64App    7.846601   109Ap     7.846603  
      65App    8.157275   110Ap     8.157286   111Ap     8.211137  
      66App    8.348423   112Ap     8.348426   113Ap     8.526203  
      67App    8.526207   114Ap     8.550402    68App    8.550405  
     115Ap     8.624625    69App    8.624625   116Ap     8.745483  
     117Ap     8.853291    70App    8.853291   118Ap     8.972458  
      71App    8.972459   119Ap     8.988254   120Ap     9.090950  
      72App    9.090954   121Ap     9.145920    73App    9.145920  
     122Ap     9.430249    74App    9.430258   123Ap     9.457718  
      75App    9.552961   124Ap     9.552965   125Ap    10.150167  
     126Ap    10.231087    76App   10.231087   127Ap    10.369272  
      77App   10.369279   128Ap    10.442595    78App   10.442642  
      79App   10.465062   129Ap    10.465066   130Ap    10.725538  
      80App   10.725538    81App   11.063865   131Ap    11.063865  
     132Ap    11.103686    82App   11.103688   133Ap    11.268854  
      83App   11.401849   134Ap    11.401853   135Ap    11.498362  
     136Ap    11.714989    84App   11.714989   137Ap    11.840838  
      85App   11.840841   138Ap    12.230270    86App   12.270289  
     139Ap    12.270294   140Ap    12.372772    87App   12.372774  
      88App   12.848165   141Ap    12.848187   142Ap    12.914784  
      89App   13.535375   143Ap    13.535388   144Ap    13.769284  
     145Ap    14.902922    90App   14.902925   146Ap    15.634906  
     147Ap    16.287818   148Ap    33.656300   149Ap    34.546372  
     150Ap    43.426179  

    Final Occupation by Irrep:
             Ap   App 
    DOCC [     9,    2 ]

  @DF-RKS Final Energy:  -184.23604559974365

   => Energetics <=

    Nuclear Repulsion Energy =             60.8754051190001917
    One-Electron Energy =                -370.9391758002176971
    Two-Electron Energy =                 132.4796687696412221
    DFT Exchange-Correlation Energy =      -6.6508076481673362
    Empirical Dispersion Energy =          -0.0011360400000000
    VV10 Nonlocal Energy =                  0.0000000000000000
    Total Energy =                       -184.2360455997436475

Computation Completed


Properties will be evaluated at   0.000000,   0.000000,   0.000000 [a0]

Properties computed using the SCF density matrix

  Nuclear Dipole Moment: [e a0]
     X:     0.0000      Y:    -0.0000      Z:     0.0090

  Electronic Dipole Moment: [e a0]
     X:     0.0000      Y:     0.0004      Z:    -0.1588

  Dipole Moment: [e a0]
     X:     0.0000      Y:     0.0004      Z:    -0.1498     Total:     0.1498

  Dipole Moment: [D]
     X:     0.0000      Y:     0.0011      Z:    -0.3808     Total:     0.3808


*** tstop() called on bp1-compute00191.data.bp.acrc.priv at Mon Apr 19 15:48:16 2021
Module time:
	user time   =      56.87 seconds =       0.95 minutes
	system time =       1.61 seconds =       0.03 minutes
	total time  =          3 seconds =       0.05 minutes
Total time:
	user time   =    1995.67 seconds =      33.26 minutes
	system time =      64.22 seconds =       1.07 minutes
	total time  =         99 seconds =       1.65 minutes

*** tstart() called on bp1-compute00191.data.bp.acrc.priv
*** at Mon Apr 19 15:48:16 2021

   => Loading Basis Set <=

    Name: (AUG-CC-PV(Q+D)Z AUX)
    Role: RIFIT
    Keyword: DF_BASIS_MP2
    atoms 1-2 entry N          line   258 file /work/zw18965/.conda/envs/p4env/share/psi4/basis/aug-cc-pvqz-ri.gbs 
    atoms 3   entry O          line   332 file /work/zw18965/.conda/envs/p4env/share/psi4/basis/aug-cc-pvqz-ri.gbs 

	 --------------------------------------------------------
	                          DF-MP2                         
	      2nd-Order Density-Fitted Moller-Plesset Theory     
	              RMP2 Wavefunction,  24 Threads             
	                                                         
	        Rob Parrish, Justin Turney, Andy Simmonett,      
	           Ed Hohenstein, and C. David Sherrill          
	 --------------------------------------------------------

   => Auxiliary Basis Set <=

  Basis Set: (AUG-CC-PV(Q+D)Z AUX)
    Blend: AUG-CC-PVQZ-RI
    Number of shells: 108
    Number of basis function: 504
    Number of Cartesian functions: 711
    Spherical Harmonics?: true
    Max angular momentum: 5

	 --------------------------------------------------------
	                 NBF =   240, NAUX =   504
	 --------------------------------------------------------
	   CLASS    FOCC     OCC    AOCC    AVIR     VIR    FVIR
	   PAIRS       0      11      11     229     229       0
	 --------------------------------------------------------

	-----------------------------------------------------------
	 ==================> DF-MP2 Energies <==================== 
	-----------------------------------------------------------
	 Reference Energy          =    -184.2360455997436475 [Eh]
	 Singles Energy            =      -0.0000000000000000 [Eh]
	 Same-Spin Energy          =      -0.2239439234011876 [Eh]
	 Opposite-Spin Energy      =      -0.6547281105755902 [Eh]
	 Correlation Energy        =      -0.8786720339767777 [Eh]
	 Total Energy              =    -185.1147176337204314 [Eh]
	-----------------------------------------------------------
	 ================> DF-SCS-MP2 Energies <================== 
	-----------------------------------------------------------
	 SCS Same-Spin Scale       =       0.4000000000000000 [-]
	 SCS Opposite-Spin Scale   =       0.4700000000000000 [-]
	 SCS Same-Spin Energy      =      -0.0895775693604750 [Eh]
	 SCS Opposite-Spin Energy  =      -0.3077222119705274 [Eh]
	 SCS Correlation Energy    =      -0.3972997813310024 [Eh]
	 SCS Total Energy          =    -184.6333453810746619 [Eh]
	-----------------------------------------------------------



    DSD-BLYP-D3BJ Energy Summary
    ----------------------------
    DFT Reference Energy                  =  -184.2360455997436475
    Scaled MP2 Correlation                =    -0.3972997813310024
    @Final double-hybrid DFT total energy =  -184.6333453810746619


*** tstop() called on bp1-compute00191.data.bp.acrc.priv at Mon Apr 19 15:48:17 2021
Module time:
	user time   =      13.06 seconds =       0.22 minutes
	system time =       0.44 seconds =       0.01 minutes
	total time  =          1 seconds =       0.02 minutes
Total time:
	user time   =    2008.74 seconds =      33.48 minutes
	system time =      64.66 seconds =       1.08 minutes
	total time  =        100 seconds =       1.67 minutes

         ----------------------------------------------------------
                                   FINDIF
                     R. A. King and Jonathon Misiewicz
         ---------------------------------------------------------

  Computing second-derivative from energies using projected, 
  symmetry-adapted, cartesian coordinates.

  9 energies passed in, including the reference geometry.
    Using 3-point formula.
    Energy without displacement: -184.6333455554
    Check energies below for precision!
    0: -1        :      -184.6333445145
    0: 1         :      -184.6333436854
    1: -1        :      -184.6333433565
    1: 1         :      -184.6333440795
    0: 1, 1: 1   :      -184.6333438004
    0: -1, 1: -1 :      -184.6333439014
    2: -1        :      -184.6333453811
    3: -1        :      -184.6333453811

-------------------------------------------------------------


  ==> Harmonic Vibrational Analysis <==

  non-mass-weighted Hessian:       Symmetric? True   Hermitian? True   Lin Dep Dim?  5 (0)
  projection of translations (True) and rotations (True) removed 5 degrees of freedom (5)
  total projector:                 Symmetric? True   Hermitian? True   Lin Dep Dim?  5 (5)
  mass-weighted Hessian:           Symmetric? True   Hermitian? True   Lin Dep Dim?  5 (0)
  pre-proj  low-frequency mode:    0.0000i [cm^-1]
  pre-proj  low-frequency mode:    0.0000i [cm^-1]
  pre-proj  low-frequency mode:    0.0000  [cm^-1]
  pre-proj  low-frequency mode:    0.0000  [cm^-1]
  pre-proj  low-frequency mode:    0.0000  [cm^-1]
  pre-proj  all modes:['0.0000i' '0.0000i' '0.0000' '0.0000' '0.0000' '607.0697' '607.1228'
 '1324.3210' '2281.9652']
  projected mass-weighted Hessian: Symmetric? True   Hermitian? True   Lin Dep Dim?  5 (5)
  post-proj low-frequency mode:    0.0000i [cm^-1] (TR)
  post-proj low-frequency mode:    0.0000  [cm^-1] (TR)
  post-proj low-frequency mode:    0.0000  [cm^-1] (TR)
  post-proj low-frequency mode:    0.0000  [cm^-1] (TR)
  post-proj low-frequency mode:    0.0000  [cm^-1] (TR)
  post-proj  all modes:['0.0000i' '0.0000' '0.0000' '0.0000' '0.0000' '607.0697' '607.1228'
 '1324.3210' '2281.9652']

  Vibration                       6                   7                   8           
  Freq [cm^-1]                 607.0697            607.1228           1324.3210       
  Irrep                           B1                  B2                  A1          
  Reduced mass [u]             14.2563             14.2563             15.0471        
  Force const [mDyne/A]         3.0955              3.0961             15.5485        
  Turning point v=0 [a0]        0.1179              0.1179              0.0777        
  RMS dev v=0 [a0 u^1/2]        0.3149              0.3149              0.2132        
  Char temp [K]                873.4382            873.5145           1905.4030       
  ----------------------------------------------------------------------------------
      1   N               -0.42  0.00  0.00   -0.00 -0.42 -0.00   -0.00 -0.00 -0.67   
      2   N                0.83 -0.00 -0.00    0.00  0.83 -0.00   -0.00 -0.00 -0.15   
      3   O               -0.36  0.00  0.00   -0.00 -0.36 -0.00   -0.00 -0.00  0.72   

  Vibration                       9           
  Freq [cm^-1]                2281.9652       
  Irrep                           A1          
  Reduced mass [u]             14.1428        
  Force const [mDyne/A]        43.3914        
  Turning point v=0 [a0]        0.0611        
  RMS dev v=0 [a0 u^1/2]        0.1624        
  Char temp [K]               3283.2399       
  ----------------------------------------------------------------------------------
      1   N                0.00  0.00 -0.51   
      2   N               -0.00  0.00  0.82   
      3   O               -0.00 -0.00 -0.26   

  ==> Thermochemistry Components <==

  Entropy, S
    Electronic S            0.000 [cal/(mol K)]        0.000 [J/(mol K)]       0.00000000 [mEh/K] (multiplicity = 1)
    Translational S        37.271 [cal/(mol K)]      155.941 [J/(mol K)]       0.05939493 [mEh/K] (mol. weight = 44.0011 [u], P = 101325.00 [Pa])
    Rotational S           14.302 [cal/(mol K)]       59.838 [J/(mol K)]       0.02279094 [mEh/K] (symmetry no. = 1)
    Vibrational S           0.900 [cal/(mol K)]        3.767 [J/(mol K)]       0.00143470 [mEh/K]
  Total S                  52.473 [cal/(mol K)]      219.546 [J/(mol K)]       0.08362056 [mEh/K]
  Correction S              0.000 [cal/(mol K)]        0.000 [J/(mol K)]       0.00000000 [mEh/K]

  Constant volume heat capacity, Cv
    Electronic Cv           0.000 [cal/(mol K)]        0.000 [J/(mol K)]       0.00000000 [mEh/K]
    Translational Cv        2.981 [cal/(mol K)]       12.472 [J/(mol K)]       0.00475022 [mEh/K]
    Rotational Cv           1.987 [cal/(mol K)]        8.314 [J/(mol K)]       0.00316681 [mEh/K]
    Vibrational Cv          2.174 [cal/(mol K)]        9.096 [J/(mol K)]       0.00346463 [mEh/K]
  Total Cv                  7.142 [cal/(mol K)]       29.883 [J/(mol K)]       0.01138165 [mEh/K]
  Correction Cv             0.000 [cal/(mol K)]        0.000 [J/(mol K)]       0.00000000 [mEh/K]

  Constant pressure heat capacity, Cp
    Electronic Cp           0.000 [cal/(mol K)]        0.000 [J/(mol K)]       0.00000000 [mEh/K]
    Translational Cp        4.968 [cal/(mol K)]       20.786 [J/(mol K)]       0.00791703 [mEh/K]
    Rotational Cp           1.987 [cal/(mol K)]        8.314 [J/(mol K)]       0.00316681 [mEh/K]
    Vibrational Cp          2.174 [cal/(mol K)]        9.096 [J/(mol K)]       0.00346463 [mEh/K]
  Total Cp                  9.129 [cal/(mol K)]       38.197 [J/(mol K)]       0.01454846 [mEh/K]
  Correction Cp             0.000 [cal/(mol K)]        0.000 [J/(mol K)]       0.00000000 [mEh/K]

  ==> Thermochemistry Energy Analysis <==

  Raw electronic energy, E0
  Total E0, Electronic energy at well bottom at 0 [K]                 -184.63334556 [Eh]

  Zero-point energy, ZPE_vib = Sum_i nu_i / 2
    Electronic ZPE          0.000 [kcal/mol]        0.000 [kJ/mol]       0.00000000 [Eh]
    Translational ZPE       0.000 [kcal/mol]        0.000 [kJ/mol]       0.00000000 [Eh]
    Rotational ZPE          0.000 [kcal/mol]        0.000 [kJ/mol]       0.00000000 [Eh]
    Vibrational ZPE         6.891 [kcal/mol]       28.833 [kJ/mol]       0.01098186 [Eh]        2410.239 [cm^-1]
  Correction ZPE            6.891 [kcal/mol]       28.833 [kJ/mol]       0.01098186 [Eh]        2410.239 [cm^-1]
  Total ZPE, Electronic energy at 0 [K]                               -184.62236370 [Eh]

  Thermal Energy, E (includes ZPE)
    Electronic E            0.000 [kcal/mol]        0.000 [kJ/mol]       0.00000000 [Eh]
    Translational E         0.889 [kcal/mol]        3.718 [kJ/mol]       0.00141628 [Eh]
    Rotational E            0.592 [kcal/mol]        2.479 [kJ/mol]       0.00094418 [Eh]
    Vibrational E           7.094 [kcal/mol]       29.680 [kJ/mol]       0.01130435 [Eh]
  Correction E              8.575 [kcal/mol]       35.877 [kJ/mol]       0.01366481 [Eh]
  Total E, Electronic energy at  298.15 [K]                           -184.61968074 [Eh]

  Enthalpy, H_trans = E_trans + k_B * T
    Electronic H            0.000 [kcal/mol]        0.000 [kJ/mol]       0.00000000 [Eh]
    Translational H         1.481 [kcal/mol]        6.197 [kJ/mol]       0.00236046 [Eh]
    Rotational H            0.592 [kcal/mol]        2.479 [kJ/mol]       0.00094418 [Eh]
    Vibrational H           7.094 [kcal/mol]       29.680 [kJ/mol]       0.01130435 [Eh]
  Correction H              9.167 [kcal/mol]       38.356 [kJ/mol]       0.01460900 [Eh]
  Total H, Enthalpy at  298.15 [K]                                    -184.61873656 [Eh]

  Gibbs free energy, G = H - T * S
    Electronic G            0.000 [kcal/mol]        0.000 [kJ/mol]       0.00000000 [Eh]
    Translational G        -9.631 [kcal/mol]      -40.297 [kJ/mol]      -0.01534814 [Eh]
    Rotational G           -3.672 [kcal/mol]      -15.362 [kJ/mol]      -0.00585093 [Eh]
    Vibrational G           6.825 [kcal/mol]       28.556 [kJ/mol]       0.01087660 [Eh]
  Correction G             -6.477 [kcal/mol]      -27.102 [kJ/mol]      -0.01032247 [Eh]
  Total G, Free enthalpy at  298.15 [K]                               -184.64366803 [Eh]

    Psi4 stopped on: Monday, 19 April 2021 03:48PM
    Psi4 wall time for execution: 0:01:40.26

*** Psi4 exiting successfully. Buy a developer a beer!
