
    -----------------------------------------------------------------------
          Psi4: An Open-Source Ab Initio Electronic Structure Package
                               Psi4 1.3.2 release

                         Git: Rev {HEAD} ecbda83 


    R. M. Parrish, L. A. Burns, D. G. A. Smith, A. C. Simmonett,
    A. E. DePrince III, E. G. Hohenstein, U. Bozkaya, A. Yu. Sokolov,
    R. Di Remigio, R. M. Richard, J. F. Gonthier, A. M. James,
    H. R. McAlexander, A. Kumar, M. Saitow, X. Wang, B. P. Pritchard,
    P. Verma, H. F. Schaefer III, K. Patkowski, R. A. King, E. F. Valeev,
    F. A. Evangelista, J. M. Turney, T. D. Crawford, and C. D. Sherrill,
    J. Chem. Theory Comput. 13(7) pp 3185--3197 (2017).
    (doi: 10.1021/acs.jctc.7b00174)


                         Additional Contributions by
    P. Kraus, H. Kruse, M. H. Lechner, M. C. Schieber, R. A. Shaw,
    A. Alenaizan, R. Galvelis, Z. L. Glick, S. Lehtola, and J. P. Misiewicz

    -----------------------------------------------------------------------


    Psi4 started on: Monday, 19 April 2021 03:48PM

    Process ID: 6607
    Host:       bp1-compute00191.data.bp.acrc.priv
    PSIDATADIR: /work/zw18965/.conda/envs/p4env/share/psi4
    Memory:     500.0 MiB
    Threads:    24
    
  ==> Input File <==

--------------------------------------------------------------------------
memory 144 GB

molecule {
0 1
Si    0.000000000000   0.000000000000  -0.756930277547
O     0.000000000000   0.000000000000   0.756930277547}

set basis aug-cc-pV(Q+d)Z
 
optimize("DSD-BLYP-D3BJ")
frequencies("DSD-BLYP-D3BJ")--------------------------------------------------------------------------

  Memory set to 134.110 GiB by Python driver.
gradient() will perform gradient computation by finite difference of analytic energies.

         ----------------------------------------------------------
                                   FINDIF
                     R. A. King and Jonathon Misiewicz
         ---------------------------------------------------------

  Using finite-differences of energies to determine gradients.
    Generating geometries for use with 3-point formula.
    Displacement size will be 5.00e-03.
    Number of atoms is 2.
    Number of symmetric SALCs is 1.
    Translations projected? 1. Rotations projected? 1.
    Number of geometries (including reference) is 3.

  //>>>>>>>>>>>>>>>>>>>>>>>>>>>>>>>>>>>//
  //    Loading displacement 1 of 3    //
  //<<<<<<<<<<<<<<<<<<<<<<<<<<<<<<<<<<<//

*** tstart() called on bp1-compute00191.data.bp.acrc.priv
*** at Mon Apr 19 15:48:21 2021

   => Loading Basis Set <=

    Name: AUG-CC-PV(Q+D)Z
    Role: ORBITAL
    Keyword: BASIS
    atoms 1 entry SI         line   952 file /work/zw18965/.conda/envs/p4env/share/psi4/basis/aug-cc-pv_qpd_z.gbs 
    atoms 2 entry O          line   439 file /work/zw18965/.conda/envs/p4env/share/psi4/basis/aug-cc-pv_qpd_z.gbs 


         ---------------------------------------------------------
                                   SCF
               by Justin Turney, Rob Parrish, Andy Simmonett
                          and Daniel G. A. Smith
                              RKS Reference
                       24 Threads, 137329 MiB Core
         ---------------------------------------------------------

  ==> Geometry <==

    Molecular point group: c2v
    Full point group: C_inf_v

    Geometry (in Angstrom), charge = 0, multiplicity = 1:

       Center              X                  Y                   Z               Mass       
    ------------   -----------------  -----------------  -----------------  -----------------
         SI           0.000000000000     0.000000000000    -0.550672195866    27.976926534650
         O            0.000000000000     0.000000000000     0.963188359228    15.994914619570

  Running in c2v symmetry.

  Rotational constants: A = ************  B =      0.72280  C =      0.72280 [cm^-1]
  Rotational constants: A = ************  B =  21668.96533  C =  21668.96533 [MHz]
  Nuclear repulsion =   39.150136646079588

  Charge       = 0
  Multiplicity = 1
  Electrons    = 22
  Nalpha       = 11
  Nbeta        = 11

  ==> Algorithm <==

  SCF Algorithm Type is DF.
  DIIS enabled.
  MOM disabled.
  Fractional occupation disabled.
  Guess Type is SAD.
  Energy threshold   = 1.00e-08
  Density threshold  = 1.00e-08
  Integral threshold = 0.00e+00

  ==> Primary Basis <==

  Basis Set: AUG-CC-PV(Q+D)Z
    Blend: AUG-CC-PV(Q+D)Z
    Number of shells: 43
    Number of basis function: 169
    Number of Cartesian functions: 220
    Spherical Harmonics?: true
    Max angular momentum: 4

  ==> DFT Potential <==

   => Composite Functional: DSD-BLYP-D3BJ <= 

    DSD-BLYP-D3BJ Dispersion-corrected SCS Double Hybrid XC Functional

    S. Kozuch, J.M.L. Martin, J. Comp. Chem., 34, 2327-2344, 2013


    Deriv               =              1
    GGA                 =           TRUE
    Meta                =          FALSE

    Exchange Hybrid     =           TRUE
    MP2 Hybrid          =           TRUE

   => Exchange Functionals <=

    0.2900     XC_GGA_X_B88

   => Exact (HF) Exchange <=

    0.7100               HF 

   => Correlation Functionals <=

    0.5400     XC_GGA_C_LYP

   => MP2 Correlation <=

    MP2 SCS Hybrid      =           TRUE
    MP2 OS Alpha        =       0.470000
    MP2 SS Alpha        =       0.400000

   => Molecular Quadrature <=

    Radial Scheme          =       TREUTLER
    Pruning Scheme         =           FLAT
    Nuclear Scheme         =       TREUTLER

    BS radius alpha        =              1
    Pruning alpha          =              1
    Radial Points          =             75
    Spherical Points       =            302
    Total Points           =          45300
    Total Blocks           =            423
    Max Points             =            256
    Max Functions          =            169

   => DSD-BLYP-D3BJ: Empirical Dispersion <=

    Grimme's -D3 (BJ-damping) Dispersion Correction
    Grimme S.; Ehrlich S.; Goerigk L. (2011), J. Comput. Chem., 32: 1456
    Parametrisation from:    S. Kozuch, J.M.L. Martin, J. Comp. Chem., 34, 2327-2344, 2013

        s6 =       0.570000
        s8 =       0.000000
        a1 =       0.000000
        a2 =       5.400000

   => Loading Basis Set <=

    Name: (AUG-CC-PV(Q+D)Z AUX)
    Role: JKFIT
    Keyword: DF_BASIS_SCF
    atoms 1 entry SI         line   622 file /work/zw18965/.conda/envs/p4env/share/psi4/basis/aug-cc-pvqz-jkfit.gbs 
    atoms 2 entry O          line   318 file /work/zw18965/.conda/envs/p4env/share/psi4/basis/aug-cc-pvqz-jkfit.gbs 

  ==> Pre-Iterations <==

   -------------------------------------------------------
    Irrep   Nso     Nmo     Nalpha   Nbeta   Ndocc  Nsocc
   -------------------------------------------------------
     A1        66      66       0       0       0       0
     A2        23      23       0       0       0       0
     B1        40      40       0       0       0       0
     B2        40      40       0       0       0       0
   -------------------------------------------------------
    Total     169     169      11      11      11       0
   -------------------------------------------------------

  ==> Integral Setup <==

  DFHelper Memory: AOs need 0.082 GiB; user supplied 100.381 GiB. Using in-core AOs.

  ==> MemDFJK: Density-Fitted J/K Matrices <==

    J tasked:                   Yes
    K tasked:                   Yes
    wK tasked:                   No
    OpenMP threads:              24
    Memory [MiB]:            102790
    Algorithm:                 Core
    Schwarz Cutoff:           1E-12
    Mask sparsity (%):       0.0000
    Fitting Condition:        1E-10

   => Auxiliary Basis Set <=

  Basis Set: (AUG-CC-PV(Q+D)Z AUX)
    Blend: AUG-CC-PVQZ-JKFIT
    Number of shells: 80
    Number of basis function: 326
    Number of Cartesian functions: 445
    Spherical Harmonics?: true
    Max angular momentum: 5

  Cached 100.0% of DFT collocation blocks in 0.202 [GiB].

  Minimum eigenvalue in the overlap matrix is 7.4904059379E-05.
  Using Symmetric Orthogonalization.

  SCF Guess: Superposition of Atomic Densities via on-the-fly atomic UHF.

  ==> Iterations <==

                           Total Energy        Delta E     RMS |[F,P]|

   @DF-RKS iter SAD:  -363.48630367183779   -3.63486e+02   0.00000e+00 
   @DF-RKS iter   1:  -364.12798743987503   -6.41684e-01   7.91348e-03 DIIS
   @DF-RKS iter   2:  -363.63979296713325    4.88194e-01   1.40288e-02 DIIS
   @DF-RKS iter   3:  -364.32906422644078   -6.89271e-01   7.03792e-04 DIIS
   @DF-RKS iter   4:  -364.33129808448228   -2.23386e-03   1.24266e-04 DIIS
   @DF-RKS iter   5:  -364.33137163804810   -7.35536e-05   3.15756e-05 DIIS
   @DF-RKS iter   6:  -364.33137724386819   -5.60582e-06   4.07899e-06 DIIS
   @DF-RKS iter   7:  -364.33137745004484   -2.06177e-07   1.61945e-06 DIIS
   @DF-RKS iter   8:  -364.33137746372620   -1.36814e-08   3.73347e-07 DIIS
   @DF-RKS iter   9:  -364.33137746466139   -9.35188e-10   7.89898e-08 DIIS
   @DF-RKS iter  10:  -364.33137746471874   -5.73550e-11   9.05064e-09 DIIS
  Energy and wave function converged.


  ==> Post-Iterations <==

    Orbital Energies [Eh]
    ---------------------

    Doubly Occupied:                                                      

       1A1   -67.877857     2A1   -20.023241     3A1    -5.865096  
       1B1    -4.060829     1B2    -4.060829     4A1    -4.057233  
       5A1    -1.148590     6A1    -0.550124     2B2    -0.425713  
       2B1    -0.425713     7A1    -0.397789  

    Virtual:                                                              

       3B2    -0.014847     3B1    -0.014847     8A1     0.023133  
       9A1     0.039807     4B1     0.050741     4B2     0.050741  
      10A1     0.092288    11A1     0.098720     1A2     0.098720  
       5B1     0.114080     5B2     0.114080    12A1     0.120815  
      13A1     0.183673     6B1     0.185963     6B2     0.185963  
      14A1     0.229206     7B1     0.261288     7B2     0.261288  
      15A1     0.287695    16A1     0.289397     2A2     0.289397  
       3A2     0.300392    17A1     0.300392     8B1     0.302069  
       8B2     0.302069     9B1     0.333713     9B2     0.333713  
      18A1     0.376807    19A1     0.397953    10B1     0.430147  
      10B2     0.430147    11B1     0.557738    11B2     0.557738  
      20A1     0.562557    21A1     0.617130     4A2     0.617130  
      22A1     0.627828    23A1     0.760519     5A2     0.760520  
      12B2     0.795237    12B1     0.795237    24A1     0.826891  
      13B1     0.884186    13B2     0.884186    25A1     0.887047  
       6A2     0.887047    26A1     0.897274    14B1     0.936171  
      14B2     0.936171    27A1     0.962115     7A2     0.962115  
      15B1     0.970175    15B2     0.970175    16B1     0.988320  
      16B2     0.988320    28A1     1.078930    17B1     1.091615  
      17B2     1.091615     8A2     1.119256    29A1     1.119256  
      30A1     1.156989    31A1     1.247009    18B2     1.287728  
      18B1     1.287728    32A1     1.489428    19B1     1.526944  
      19B2     1.526944    33A1     1.618067     9A2     1.618067  
      34A1     1.628787    20B1     1.685217    20B2     1.685217  
      10A2     1.808678    35A1     1.808678    36A1     1.824891  
      11A2     1.966946    37A1     1.966946    21B1     2.032128  
      21B2     2.032128    38A1     2.055074    22B2     2.177683  
      22B1     2.177683    23B2     2.270934    23B1     2.270934  
      39A1     2.314726    12A2     2.314726    40A1     2.424766  
      41A1     2.553197    13A2     2.553197    24B1     2.555345  
      24B2     2.555345    25B1     2.587820    25B2     2.587820  
      26B1     2.734188    26B2     2.734188    42A1     2.746576  
      14A2     2.757770    43A1     2.757771    44A1     2.927838  
      27B2     3.369134    27B1     3.369134    15A2     3.614733  
      45A1     3.614751    46A1     3.759484    28B1     3.858753  
      28B2     3.858753    29B1     4.115746    29B2     4.115746  
      47A1     4.189039    48A1     4.215988    16A2     4.215999  
      30B1     4.308130    30B2     4.308130    17A2     4.426544  
      49A1     4.426545    50A1     4.507644    31B1     4.542194  
      31B2     4.542194    51A1     4.687711    18A2     4.687714  
      32B1     4.988368    32B2     4.988368    52A1     5.173554  
      53A1     5.358764    33B1     5.761732    33B2     5.761732  
      19A2     5.968051    54A1     5.968052    55A1     6.417733  
      34B1     6.869191    34B2     6.869191    56A1     8.155971  
      20A2    10.506174    57A1    10.506419    35B1    10.600167  
      35B2    10.600167    58A1    10.675475    36B2    10.703302  
      36B1    10.703302    59A1    10.822173    21A2    10.822186  
      37B1    10.883060    37B2    10.883060    60A1    10.999821  
      38B2    11.774183    38B1    11.774183    22A2    11.951568  
      61A1    11.951602    62A1    12.089725    39B1    12.280465  
      39B2    12.280465    63A1    12.692522    23A2    12.692600  
      64A1    13.139630    40B1    13.150180    40B2    13.150180  
      65A1    13.959940    66A1    41.973289  

    Final Occupation by Irrep:
             A1    A2    B1    B2 
    DOCC [     7,    0,    2,    2 ]

  @DF-RKS Final Energy:  -364.33137746471874

   => Energetics <=

    Nuclear Repulsion Energy =             39.1501366460795879
    One-Electron Energy =                -582.8939190748390047
    Two-Electron Energy =                 188.1737478277906348
    DFT Exchange-Correlation Energy =      -8.7601711437499521
    Empirical Dispersion Energy =          -0.0011717200000000
    VV10 Nonlocal Energy =                  0.0000000000000000
    Total Energy =                       -364.3313774647187984

Computation Completed


Properties will be evaluated at   0.000000,   0.000000,   0.000000 [a0]

Properties computed using the SCF density matrix

  Nuclear Dipole Moment: [e a0]
     X:     0.0000      Y:     0.0000      Z:    -0.0074

  Electronic Dipole Moment: [e a0]
     X:     0.0000      Y:     0.0000      Z:    -1.4123

  Dipole Moment: [e a0]
     X:     0.0000      Y:     0.0000      Z:    -1.4196     Total:     1.4196

  Dipole Moment: [D]
     X:     0.0000      Y:     0.0000      Z:    -3.6083     Total:     3.6083


*** tstop() called on bp1-compute00191.data.bp.acrc.priv at Mon Apr 19 15:48:23 2021
Module time:
	user time   =      41.15 seconds =       0.69 minutes
	system time =       1.66 seconds =       0.03 minutes
	total time  =          2 seconds =       0.03 minutes
Total time:
	user time   =      41.15 seconds =       0.69 minutes
	system time =       1.66 seconds =       0.03 minutes
	total time  =          2 seconds =       0.03 minutes

*** tstart() called on bp1-compute00191.data.bp.acrc.priv
*** at Mon Apr 19 15:48:23 2021

   => Loading Basis Set <=

    Name: (AUG-CC-PV(Q+D)Z AUX)
    Role: RIFIT
    Keyword: DF_BASIS_MP2
    atoms 1 entry SI         line   644 file /work/zw18965/.conda/envs/p4env/share/psi4/basis/aug-cc-pvqz-ri.gbs 
    atoms 2 entry O          line   332 file /work/zw18965/.conda/envs/p4env/share/psi4/basis/aug-cc-pvqz-ri.gbs 

	 --------------------------------------------------------
	                          DF-MP2                         
	      2nd-Order Density-Fitted Moller-Plesset Theory     
	              RMP2 Wavefunction,  24 Threads             
	                                                         
	        Rob Parrish, Justin Turney, Andy Simmonett,      
	           Ed Hohenstein, and C. David Sherrill          
	 --------------------------------------------------------

   => Auxiliary Basis Set <=

  Basis Set: (AUG-CC-PV(Q+D)Z AUX)
    Blend: AUG-CC-PVQZ-RI
    Number of shells: 80
    Number of basis function: 362
    Number of Cartesian functions: 505
    Spherical Harmonics?: true
    Max angular momentum: 5

	 --------------------------------------------------------
	                 NBF =   169, NAUX =   362
	 --------------------------------------------------------
	   CLASS    FOCC     OCC    AOCC    AVIR     VIR    FVIR
	   PAIRS       0      11      11     158     158       0
	 --------------------------------------------------------

	-----------------------------------------------------------
	 ==================> DF-MP2 Energies <==================== 
	-----------------------------------------------------------
	 Reference Energy          =    -364.3313774647187415 [Eh]
	 Singles Energy            =      -0.0000000000000000 [Eh]
	 Same-Spin Energy          =      -0.1420536207078283 [Eh]
	 Opposite-Spin Energy      =      -0.4138665797456341 [Eh]
	 Correlation Energy        =      -0.5559202004534625 [Eh]
	 Total Energy              =    -364.8872976651721842 [Eh]
	-----------------------------------------------------------
	 ================> DF-SCS-MP2 Energies <================== 
	-----------------------------------------------------------
	 SCS Same-Spin Scale       =       0.4000000000000000 [-]
	 SCS Opposite-Spin Scale   =       0.4700000000000000 [-]
	 SCS Same-Spin Energy      =      -0.0568214482831313 [Eh]
	 SCS Opposite-Spin Energy  =      -0.1945172924804480 [Eh]
	 SCS Correlation Energy    =      -0.2513387407635793 [Eh]
	 SCS Total Energy          =    -364.5827162054823134 [Eh]
	-----------------------------------------------------------



    DSD-BLYP-D3BJ Energy Summary
    ----------------------------
    DFT Reference Energy                  =  -364.3313774647187415
    Scaled MP2 Correlation                =    -0.2513387407635793
    @Final double-hybrid DFT total energy =  -364.5827162054823134


*** tstop() called on bp1-compute00191.data.bp.acrc.priv at Mon Apr 19 15:48:24 2021
Module time:
	user time   =      11.38 seconds =       0.19 minutes
	system time =       0.41 seconds =       0.01 minutes
	total time  =          1 seconds =       0.02 minutes
Total time:
	user time   =      52.54 seconds =       0.88 minutes
	system time =       2.08 seconds =       0.03 minutes
	total time  =          3 seconds =       0.05 minutes

  //>>>>>>>>>>>>>>>>>>>>>>>>>>>>>>>>>>>//
  //    Loading displacement 2 of 3    //
  //<<<<<<<<<<<<<<<<<<<<<<<<<<<<<<<<<<<//

*** tstart() called on bp1-compute00191.data.bp.acrc.priv
*** at Mon Apr 19 15:48:24 2021

   => Loading Basis Set <=

    Name: AUG-CC-PV(Q+D)Z
    Role: ORBITAL
    Keyword: BASIS
    atoms 1 entry SI         line   952 file /work/zw18965/.conda/envs/p4env/share/psi4/basis/aug-cc-pv_qpd_z.gbs 
    atoms 2 entry O          line   439 file /work/zw18965/.conda/envs/p4env/share/psi4/basis/aug-cc-pv_qpd_z.gbs 


         ---------------------------------------------------------
                                   SCF
               by Justin Turney, Rob Parrish, Andy Simmonett
                          and Daniel G. A. Smith
                              RKS Reference
                       24 Threads, 137329 MiB Core
         ---------------------------------------------------------

  ==> Geometry <==

    Molecular point group: c2v
    Full point group: C_inf_v

    Geometry (in Angstrom), charge = 0, multiplicity = 1:

       Center              X                  Y                   Z               Mass       
    ------------   -----------------  -----------------  -----------------  -----------------
         SI           0.000000000000     0.000000000000    -0.550973895493    27.976926534650
         O            0.000000000000     0.000000000000     0.963716066222    15.994914619570

  Running in c2v symmetry.

  Rotational constants: A = ************  B =      0.72201  C =      0.72201 [cm^-1]
  Rotational constants: A = ************  B =  21645.24105  C =  21645.24105 [MHz]
  Nuclear repulsion =   39.128699003146188

  Charge       = 0
  Multiplicity = 1
  Electrons    = 22
  Nalpha       = 11
  Nbeta        = 11

  ==> Algorithm <==

  SCF Algorithm Type is DF.
  DIIS enabled.
  MOM disabled.
  Fractional occupation disabled.
  Guess Type is SAD.
  Energy threshold   = 1.00e-08
  Density threshold  = 1.00e-08
  Integral threshold = 0.00e+00

  ==> Primary Basis <==

  Basis Set: AUG-CC-PV(Q+D)Z
    Blend: AUG-CC-PV(Q+D)Z
    Number of shells: 43
    Number of basis function: 169
    Number of Cartesian functions: 220
    Spherical Harmonics?: true
    Max angular momentum: 4

  ==> DFT Potential <==

   => Composite Functional: DSD-BLYP-D3BJ <= 

    DSD-BLYP-D3BJ Dispersion-corrected SCS Double Hybrid XC Functional

    S. Kozuch, J.M.L. Martin, J. Comp. Chem., 34, 2327-2344, 2013


    Deriv               =              1
    GGA                 =           TRUE
    Meta                =          FALSE

    Exchange Hybrid     =           TRUE
    MP2 Hybrid          =           TRUE

   => Exchange Functionals <=

    0.2900     XC_GGA_X_B88

   => Exact (HF) Exchange <=

    0.7100               HF 

   => Correlation Functionals <=

    0.5400     XC_GGA_C_LYP

   => MP2 Correlation <=

    MP2 SCS Hybrid      =           TRUE
    MP2 OS Alpha        =       0.470000
    MP2 SS Alpha        =       0.400000

   => Molecular Quadrature <=

    Radial Scheme          =       TREUTLER
    Pruning Scheme         =           FLAT
    Nuclear Scheme         =       TREUTLER

    BS radius alpha        =              1
    Pruning alpha          =              1
    Radial Points          =             75
    Spherical Points       =            302
    Total Points           =          45300
    Total Blocks           =            423
    Max Points             =            256
    Max Functions          =            169

   => DSD-BLYP-D3BJ: Empirical Dispersion <=

    Grimme's -D3 (BJ-damping) Dispersion Correction
    Grimme S.; Ehrlich S.; Goerigk L. (2011), J. Comput. Chem., 32: 1456
    Parametrisation from:    S. Kozuch, J.M.L. Martin, J. Comp. Chem., 34, 2327-2344, 2013

        s6 =       0.570000
        s8 =       0.000000
        a1 =       0.000000
        a2 =       5.400000

   => Loading Basis Set <=

    Name: (AUG-CC-PV(Q+D)Z AUX)
    Role: JKFIT
    Keyword: DF_BASIS_SCF
    atoms 1 entry SI         line   622 file /work/zw18965/.conda/envs/p4env/share/psi4/basis/aug-cc-pvqz-jkfit.gbs 
    atoms 2 entry O          line   318 file /work/zw18965/.conda/envs/p4env/share/psi4/basis/aug-cc-pvqz-jkfit.gbs 

  ==> Pre-Iterations <==

   -------------------------------------------------------
    Irrep   Nso     Nmo     Nalpha   Nbeta   Ndocc  Nsocc
   -------------------------------------------------------
     A1        66      66       0       0       0       0
     A2        23      23       0       0       0       0
     B1        40      40       0       0       0       0
     B2        40      40       0       0       0       0
   -------------------------------------------------------
    Total     169     169      11      11      11       0
   -------------------------------------------------------

  ==> Integral Setup <==

  DFHelper Memory: AOs need 0.082 GiB; user supplied 100.381 GiB. Using in-core AOs.

  ==> MemDFJK: Density-Fitted J/K Matrices <==

    J tasked:                   Yes
    K tasked:                   Yes
    wK tasked:                   No
    OpenMP threads:              24
    Memory [MiB]:            102790
    Algorithm:                 Core
    Schwarz Cutoff:           1E-12
    Mask sparsity (%):       0.0000
    Fitting Condition:        1E-10

   => Auxiliary Basis Set <=

  Basis Set: (AUG-CC-PV(Q+D)Z AUX)
    Blend: AUG-CC-PVQZ-JKFIT
    Number of shells: 80
    Number of basis function: 326
    Number of Cartesian functions: 445
    Spherical Harmonics?: true
    Max angular momentum: 5

  Cached 100.0% of DFT collocation blocks in 0.202 [GiB].

  Minimum eigenvalue in the overlap matrix is 7.5044565735E-05.
  Using Symmetric Orthogonalization.

  SCF Guess: Superposition of Atomic Densities via on-the-fly atomic UHF.

  ==> Iterations <==

                           Total Energy        Delta E     RMS |[F,P]|

   @DF-RKS iter SAD:  -363.48535901102935   -3.63485e+02   0.00000e+00 
   @DF-RKS iter   1:  -364.12784109051273   -6.42482e-01   7.91318e-03 DIIS
   @DF-RKS iter   2:  -363.63736190515988    4.90479e-01   1.40488e-02 DIIS
   @DF-RKS iter   3:  -364.32900078510573   -6.91639e-01   7.04201e-04 DIIS
   @DF-RKS iter   4:  -364.33123956664360   -2.23878e-03   1.24548e-04 DIIS
   @DF-RKS iter   5:  -364.33131340999552   -7.38434e-05   3.16512e-05 DIIS
   @DF-RKS iter   6:  -364.33131904245300   -5.63246e-06   4.08494e-06 DIIS
   @DF-RKS iter   7:  -364.33131924929125   -2.06838e-07   1.62424e-06 DIIS
   @DF-RKS iter   8:  -364.33131926306675   -1.37755e-08   3.75949e-07 DIIS
   @DF-RKS iter   9:  -364.33131926401416   -9.47409e-10   7.94399e-08 DIIS
   @DF-RKS iter  10:  -364.33131926407276   -5.86056e-11   9.08528e-09 DIIS
  Energy and wave function converged.


  ==> Post-Iterations <==

    Orbital Energies [Eh]
    ---------------------

    Doubly Occupied:                                                      

       1A1   -67.878096     2A1   -20.023293     3A1    -5.865271  
       1B2    -4.061009     1B1    -4.061009     4A1    -4.057397  
       5A1    -1.148347     6A1    -0.550125     2B2    -0.425530  
       2B1    -0.425530     7A1    -0.397802  

    Virtual:                                                              

       3B2    -0.014926     3B1    -0.014926     8A1     0.023113  
       9A1     0.039801     4B2     0.050718     4B1     0.050718  
      10A1     0.092282    11A1     0.098709     1A2     0.098709  
       5B2     0.114072     5B1     0.114072    12A1     0.120783  
      13A1     0.183661     6B2     0.185982     6B1     0.185982  
      14A1     0.229214     7B1     0.261243     7B2     0.261243  
      15A1     0.287675    16A1     0.289366     2A2     0.289367  
       3A2     0.300393    17A1     0.300393     8B2     0.302054  
       8B1     0.302054     9B1     0.333647     9B2     0.333647  
      18A1     0.376717    19A1     0.397903    10B2     0.430082  
      10B1     0.430082    11B2     0.557769    11B1     0.557769  
      20A1     0.562524    21A1     0.617126     4A2     0.617126  
      22A1     0.627798    23A1     0.760467     5A2     0.760467  
      12B2     0.795208    12B1     0.795208    24A1     0.826967  
      13B2     0.884145    13B1     0.884145    25A1     0.887027  
       6A2     0.887027    26A1     0.897062    14B2     0.936059  
      14B1     0.936059    27A1     0.962084     7A2     0.962084  
      15B2     0.970150    15B1     0.970150    16B1     0.988183  
      16B2     0.988183    28A1     1.078829    17B2     1.091653  
      17B1     1.091653     8A2     1.119189    29A1     1.119189  
      30A1     1.156634    31A1     1.246766    18B2     1.287554  
      18B1     1.287554    32A1     1.489347    19B2     1.526770  
      19B1     1.526770    33A1     1.618116     9A2     1.618117  
      34A1     1.628565    20B2     1.685240    20B1     1.685240  
      10A2     1.808500    35A1     1.808500    36A1     1.824715  
      11A2     1.966839    37A1     1.966840    21B2     2.031446  
      21B1     2.031446    38A1     2.055099    22B2     2.177815  
      22B1     2.177815    23B1     2.270864    23B2     2.270864  
      39A1     2.314379    12A2     2.314379    40A1     2.424425  
      41A1     2.553131    13A2     2.553131    24B1     2.555285  
      24B2     2.555285    25B2     2.587548    25B1     2.587548  
      26B2     2.734106    26B1     2.734106    42A1     2.745789  
      14A2     2.757410    43A1     2.757410    44A1     2.928576  
      27B1     3.368607    27B2     3.368607    15A2     3.614777  
      45A1     3.614796    46A1     3.758691    28B1     3.858232  
      28B2     3.858232    29B2     4.115643    29B1     4.115643  
      47A1     4.188874    48A1     4.215994    16A2     4.216005  
      30B2     4.307855    30B1     4.307855    17A2     4.425908  
      49A1     4.425909    50A1     4.506929    31B2     4.541230  
      31B1     4.541230    51A1     4.686871    18A2     4.686875  
      32B2     4.987755    32B1     4.987755    52A1     5.175022  
      53A1     5.355910    33B2     5.761182    33B1     5.761182  
      19A2     5.967707    54A1     5.967709    55A1     6.417281  
      34B2     6.867567    34B1     6.867567    56A1     8.152667  
      20A2    10.506244    57A1    10.506490    35B2    10.600056  
      35B1    10.600056    58A1    10.674798    36B1    10.702239  
      36B2    10.702239    59A1    10.822047    21A2    10.822059  
      37B1    10.883154    37B2    10.883154    60A1    10.998857  
      38B2    11.774133    38B1    11.774133    22A2    11.951288  
      61A1    11.951321    62A1    12.086887    39B2    12.279165  
      39B1    12.279165    63A1    12.692151    23A2    12.692229  
      64A1    13.141673    40B2    13.150198    40B1    13.150198  
      65A1    13.956522    66A1    41.970376  

    Final Occupation by Irrep:
             A1    A2    B1    B2 
    DOCC [     7,    0,    2,    2 ]

  @DF-RKS Final Energy:  -364.33131926407276

   => Energetics <=

    Nuclear Repulsion Energy =             39.1286990031461883
    One-Electron Energy =                -582.8502618056249958
    Two-Electron Energy =                 188.1514123569918695
    DFT Exchange-Correlation Energy =      -8.7599971785857669
    Empirical Dispersion Energy =          -0.0011716400000000
    VV10 Nonlocal Energy =                  0.0000000000000000
    Total Energy =                       -364.3313192640727607

Computation Completed


Properties will be evaluated at   0.000000,   0.000000,   0.000000 [a0]

Properties computed using the SCF density matrix

  Nuclear Dipole Moment: [e a0]
     X:     0.0000      Y:     0.0000      Z:    -0.0074

  Electronic Dipole Moment: [e a0]
     X:     0.0000      Y:     0.0000      Z:    -1.4138

  Dipole Moment: [e a0]
     X:     0.0000      Y:     0.0000      Z:    -1.4212     Total:     1.4212

  Dipole Moment: [D]
     X:     0.0000      Y:     0.0000      Z:    -3.6124     Total:     3.6124


*** tstop() called on bp1-compute00191.data.bp.acrc.priv at Mon Apr 19 15:48:26 2021
Module time:
	user time   =      42.23 seconds =       0.70 minutes
	system time =       1.72 seconds =       0.03 minutes
	total time  =          2 seconds =       0.03 minutes
Total time:
	user time   =      94.95 seconds =       1.58 minutes
	system time =       3.81 seconds =       0.06 minutes
	total time  =          5 seconds =       0.08 minutes

*** tstart() called on bp1-compute00191.data.bp.acrc.priv
*** at Mon Apr 19 15:48:26 2021

   => Loading Basis Set <=

    Name: (AUG-CC-PV(Q+D)Z AUX)
    Role: RIFIT
    Keyword: DF_BASIS_MP2
    atoms 1 entry SI         line   644 file /work/zw18965/.conda/envs/p4env/share/psi4/basis/aug-cc-pvqz-ri.gbs 
    atoms 2 entry O          line   332 file /work/zw18965/.conda/envs/p4env/share/psi4/basis/aug-cc-pvqz-ri.gbs 

	 --------------------------------------------------------
	                          DF-MP2                         
	      2nd-Order Density-Fitted Moller-Plesset Theory     
	              RMP2 Wavefunction,  24 Threads             
	                                                         
	        Rob Parrish, Justin Turney, Andy Simmonett,      
	           Ed Hohenstein, and C. David Sherrill          
	 --------------------------------------------------------

   => Auxiliary Basis Set <=

  Basis Set: (AUG-CC-PV(Q+D)Z AUX)
    Blend: AUG-CC-PVQZ-RI
    Number of shells: 80
    Number of basis function: 362
    Number of Cartesian functions: 505
    Spherical Harmonics?: true
    Max angular momentum: 5

	 --------------------------------------------------------
	                 NBF =   169, NAUX =   362
	 --------------------------------------------------------
	   CLASS    FOCC     OCC    AOCC    AVIR     VIR    FVIR
	   PAIRS       0      11      11     158     158       0
	 --------------------------------------------------------

	-----------------------------------------------------------
	 ==================> DF-MP2 Energies <==================== 
	-----------------------------------------------------------
	 Reference Energy          =    -364.3313192640727607 [Eh]
	 Singles Energy            =      -0.0000000000000000 [Eh]
	 Same-Spin Energy          =      -0.1420924873551254 [Eh]
	 Opposite-Spin Energy      =      -0.4139529567444929 [Eh]
	 Correlation Energy        =      -0.5560454440996183 [Eh]
	 Total Energy              =    -364.8873647081723561 [Eh]
	-----------------------------------------------------------
	 ================> DF-SCS-MP2 Energies <================== 
	-----------------------------------------------------------
	 SCS Same-Spin Scale       =       0.4000000000000000 [-]
	 SCS Opposite-Spin Scale   =       0.4700000000000000 [-]
	 SCS Same-Spin Energy      =      -0.0568369949420501 [Eh]
	 SCS Opposite-Spin Energy  =      -0.1945578896699116 [Eh]
	 SCS Correlation Energy    =      -0.2513948846119618 [Eh]
	 SCS Total Energy          =    -364.5827141486847154 [Eh]
	-----------------------------------------------------------



    DSD-BLYP-D3BJ Energy Summary
    ----------------------------
    DFT Reference Energy                  =  -364.3313192640727607
    Scaled MP2 Correlation                =    -0.2513948846119618
    @Final double-hybrid DFT total energy =  -364.5827141486847154


*** tstop() called on bp1-compute00191.data.bp.acrc.priv at Mon Apr 19 15:48:26 2021
Module time:
	user time   =      11.32 seconds =       0.19 minutes
	system time =       0.40 seconds =       0.01 minutes
	total time  =          0 seconds =       0.00 minutes
Total time:
	user time   =     106.28 seconds =       1.77 minutes
	system time =       4.21 seconds =       0.07 minutes
	total time  =          5 seconds =       0.08 minutes

  //>>>>>>>>>>>>>>>>>>>>>>>>>>>>>>>>>>>//
  //    Loading displacement 3 of 3    //
  //<<<<<<<<<<<<<<<<<<<<<<<<<<<<<<<<<<<//

*** tstart() called on bp1-compute00191.data.bp.acrc.priv
*** at Mon Apr 19 15:48:26 2021

   => Loading Basis Set <=

    Name: AUG-CC-PV(Q+D)Z
    Role: ORBITAL
    Keyword: BASIS
    atoms 1 entry SI         line   952 file /work/zw18965/.conda/envs/p4env/share/psi4/basis/aug-cc-pv_qpd_z.gbs 
    atoms 2 entry O          line   439 file /work/zw18965/.conda/envs/p4env/share/psi4/basis/aug-cc-pv_qpd_z.gbs 


         ---------------------------------------------------------
                                   SCF
               by Justin Turney, Rob Parrish, Andy Simmonett
                          and Daniel G. A. Smith
                              RKS Reference
                       24 Threads, 137329 MiB Core
         ---------------------------------------------------------

  ==> Geometry <==

    Molecular point group: c2v
    Full point group: C_inf_v

    Geometry (in Angstrom), charge = 0, multiplicity = 1:

       Center              X                  Y                   Z               Mass       
    ------------   -----------------  -----------------  -----------------  -----------------
         SI           0.000000000000     0.000000000000    -0.550370496239    27.976926534650
         O            0.000000000000     0.000000000000     0.962660652234    15.994914619570

  Running in c2v symmetry.

  Rotational constants: A = ************  B =      0.72359  C =      0.72359 [cm^-1]
  Rotational constants: A = ************  B =  21692.72863  C =  21692.72863 [MHz]
  Nuclear repulsion =   39.171597792194667

  Charge       = 0
  Multiplicity = 1
  Electrons    = 22
  Nalpha       = 11
  Nbeta        = 11

  ==> Algorithm <==

  SCF Algorithm Type is DF.
  DIIS enabled.
  MOM disabled.
  Fractional occupation disabled.
  Guess Type is SAD.
  Energy threshold   = 1.00e-08
  Density threshold  = 1.00e-08
  Integral threshold = 0.00e+00

  ==> Primary Basis <==

  Basis Set: AUG-CC-PV(Q+D)Z
    Blend: AUG-CC-PV(Q+D)Z
    Number of shells: 43
    Number of basis function: 169
    Number of Cartesian functions: 220
    Spherical Harmonics?: true
    Max angular momentum: 4

  ==> DFT Potential <==

   => Composite Functional: DSD-BLYP-D3BJ <= 

    DSD-BLYP-D3BJ Dispersion-corrected SCS Double Hybrid XC Functional

    S. Kozuch, J.M.L. Martin, J. Comp. Chem., 34, 2327-2344, 2013


    Deriv               =              1
    GGA                 =           TRUE
    Meta                =          FALSE

    Exchange Hybrid     =           TRUE
    MP2 Hybrid          =           TRUE

   => Exchange Functionals <=

    0.2900     XC_GGA_X_B88

   => Exact (HF) Exchange <=

    0.7100               HF 

   => Correlation Functionals <=

    0.5400     XC_GGA_C_LYP

   => MP2 Correlation <=

    MP2 SCS Hybrid      =           TRUE
    MP2 OS Alpha        =       0.470000
    MP2 SS Alpha        =       0.400000

   => Molecular Quadrature <=

    Radial Scheme          =       TREUTLER
    Pruning Scheme         =           FLAT
    Nuclear Scheme         =       TREUTLER

    BS radius alpha        =              1
    Pruning alpha          =              1
    Radial Points          =             75
    Spherical Points       =            302
    Total Points           =          45300
    Total Blocks           =            423
    Max Points             =            256
    Max Functions          =            169

   => DSD-BLYP-D3BJ: Empirical Dispersion <=

    Grimme's -D3 (BJ-damping) Dispersion Correction
    Grimme S.; Ehrlich S.; Goerigk L. (2011), J. Comput. Chem., 32: 1456
    Parametrisation from:    S. Kozuch, J.M.L. Martin, J. Comp. Chem., 34, 2327-2344, 2013

        s6 =       0.570000
        s8 =       0.000000
        a1 =       0.000000
        a2 =       5.400000

   => Loading Basis Set <=

    Name: (AUG-CC-PV(Q+D)Z AUX)
    Role: JKFIT
    Keyword: DF_BASIS_SCF
    atoms 1 entry SI         line   622 file /work/zw18965/.conda/envs/p4env/share/psi4/basis/aug-cc-pvqz-jkfit.gbs 
    atoms 2 entry O          line   318 file /work/zw18965/.conda/envs/p4env/share/psi4/basis/aug-cc-pvqz-jkfit.gbs 

  ==> Pre-Iterations <==

   -------------------------------------------------------
    Irrep   Nso     Nmo     Nalpha   Nbeta   Ndocc  Nsocc
   -------------------------------------------------------
     A1        66      66       0       0       0       0
     A2        23      23       0       0       0       0
     B1        40      40       0       0       0       0
     B2        40      40       0       0       0       0
   -------------------------------------------------------
    Total     169     169      11      11      11       0
   -------------------------------------------------------

  ==> Integral Setup <==

  DFHelper Memory: AOs need 0.082 GiB; user supplied 100.381 GiB. Using in-core AOs.

  ==> MemDFJK: Density-Fitted J/K Matrices <==

    J tasked:                   Yes
    K tasked:                   Yes
    wK tasked:                   No
    OpenMP threads:              24
    Memory [MiB]:            102790
    Algorithm:                 Core
    Schwarz Cutoff:           1E-12
    Mask sparsity (%):       0.0000
    Fitting Condition:        1E-10

   => Auxiliary Basis Set <=

  Basis Set: (AUG-CC-PV(Q+D)Z AUX)
    Blend: AUG-CC-PVQZ-JKFIT
    Number of shells: 80
    Number of basis function: 326
    Number of Cartesian functions: 445
    Spherical Harmonics?: true
    Max angular momentum: 5

  Cached 100.0% of DFT collocation blocks in 0.202 [GiB].

  Minimum eigenvalue in the overlap matrix is 7.4763918897E-05.
  Using Symmetric Orthogonalization.

  SCF Guess: Superposition of Atomic Densities via on-the-fly atomic UHF.

  ==> Iterations <==

                           Total Energy        Delta E     RMS |[F,P]|

   @DF-RKS iter SAD:  -363.48725818174722   -3.63487e+02   0.00000e+00 
   @DF-RKS iter   1:  -364.12813418650228   -6.40876e-01   7.91373e-03 DIIS
   @DF-RKS iter   2:  -363.64222356728158    4.85911e-01   1.40088e-02 DIIS
   @DF-RKS iter   3:  -364.32912626990833   -6.86903e-01   7.03367e-04 DIIS
   @DF-RKS iter   4:  -364.33135511549807   -2.22885e-03   1.23986e-04 DIIS
   @DF-RKS iter   5:  -364.33142837886135   -7.32634e-05   3.15006e-05 DIIS
   @DF-RKS iter   6:  -364.33143395806724   -5.57921e-06   4.07296e-06 DIIS
   @DF-RKS iter   7:  -364.33143416355722   -2.05490e-07   1.61445e-06 DIIS
   @DF-RKS iter   8:  -364.33143417714138   -1.35842e-08   3.70689e-07 DIIS
   @DF-RKS iter   9:  -364.33143417806377   -9.22398e-10   7.85337e-08 DIIS
   @DF-RKS iter  10:  -364.33143417812175   -5.79803e-11   9.01653e-09 DIIS
  Energy and wave function converged.


  ==> Post-Iterations <==

    Orbital Energies [Eh]
    ---------------------

    Doubly Occupied:                                                      

       1A1   -67.877617     2A1   -20.023190     3A1    -5.864921  
       1B1    -4.060649     1B2    -4.060649     4A1    -4.057069  
       5A1    -1.148833     6A1    -0.550124     2B1    -0.425896  
       2B2    -0.425896     7A1    -0.397776  

    Virtual:                                                              

       3B1    -0.014767     3B2    -0.014767     8A1     0.023152  
       9A1     0.039813     4B1     0.050764     4B2     0.050764  
      10A1     0.092294    11A1     0.098731     1A2     0.098731  
       5B1     0.114088     5B2     0.114088    12A1     0.120847  
      13A1     0.183686     6B1     0.185945     6B2     0.185945  
      14A1     0.229198     7B1     0.261333     7B2     0.261333  
      15A1     0.287715    16A1     0.289428     2A2     0.289428  
       3A2     0.300392    17A1     0.300392     8B1     0.302083  
       8B2     0.302083     9B1     0.333779     9B2     0.333779  
      18A1     0.376897    19A1     0.398004    10B1     0.430211  
      10B2     0.430211    11B2     0.557709    11B1     0.557709  
      20A1     0.562590    21A1     0.617134     4A2     0.617134  
      22A1     0.627858    23A1     0.760572     5A2     0.760572  
      12B1     0.795266    12B2     0.795266    24A1     0.826815  
      13B1     0.884227    13B2     0.884227    25A1     0.887067  
       6A2     0.887067    26A1     0.897488    14B1     0.936284  
      14B2     0.936284    27A1     0.962145     7A2     0.962145  
      15B2     0.970201    15B1     0.970201    16B1     0.988456  
      16B2     0.988456    28A1     1.079030    17B1     1.091577  
      17B2     1.091577     8A2     1.119323    29A1     1.119324  
      30A1     1.157342    31A1     1.247253    18B1     1.287903  
      18B2     1.287903    32A1     1.489510    19B1     1.527119  
      19B2     1.527119    33A1     1.618017     9A2     1.618018  
      34A1     1.629012    20B1     1.685194    20B2     1.685194  
      10A2     1.808855    35A1     1.808856    36A1     1.825068  
      11A2     1.967051    37A1     1.967052    21B1     2.032810  
      21B2     2.032810    38A1     2.055050    22B1     2.177551  
      22B2     2.177551    23B2     2.271004    23B1     2.271004  
      39A1     2.315074    12A2     2.315074    40A1     2.425108  
      41A1     2.553264    13A2     2.553264    24B2     2.555406  
      24B1     2.555406    25B1     2.588091    25B2     2.588091  
      26B1     2.734272    26B2     2.734272    42A1     2.747362  
      14A2     2.758131    43A1     2.758132    44A1     2.927094  
      27B2     3.369660    27B1     3.369660    15A2     3.614688  
      45A1     3.614707    46A1     3.760282    28B1     3.859275  
      28B2     3.859275    29B1     4.115848    29B2     4.115848  
      47A1     4.189207    48A1     4.215982    16A2     4.215992  
      30B2     4.308400    30B1     4.308400    17A2     4.427181  
      49A1     4.427182    50A1     4.508359    31B2     4.543163  
      31B1     4.543163    51A1     4.688552    18A2     4.688555  
      32B1     4.988984    32B2     4.988984    52A1     5.172067  
      53A1     5.361636    33B1     5.762282    33B2     5.762282  
      19A2     5.968394    54A1     5.968396    55A1     6.418184  
      34B1     6.870811    34B2     6.870811    56A1     8.159273  
      20A2    10.506104    57A1    10.506348    35B1    10.600277  
      35B2    10.600277    58A1    10.676157    36B2    10.704366  
      36B1    10.704366    59A1    10.822299    21A2    10.822311  
      37B2    10.882965    37B1    10.882965    60A1    11.000792  
      38B1    11.774233    38B2    11.774233    22A2    11.951850  
      61A1    11.951884    62A1    12.092576    39B2    12.281766  
      39B1    12.281766    63A1    12.692895    23A2    12.692972  
      64A1    13.137576    40B2    13.150160    40B1    13.150160  
      65A1    13.963359    66A1    41.976204  

    Final Occupation by Irrep:
             A1    A2    B1    B2 
    DOCC [     7,    0,    2,    2 ]

  @DF-RKS Final Energy:  -364.33143417812175

   => Energetics <=

    Nuclear Repulsion Energy =             39.1715977921946674
    One-Electron Energy =                -582.9376212894769651
    Two-Electron Energy =                 188.1961065373209010
    DFT Exchange-Correlation Energy =      -8.7603454081603971
    Empirical Dispersion Energy =          -0.0011718100000000
    VV10 Nonlocal Energy =                  0.0000000000000000
    Total Energy =                       -364.3314341781217536

Computation Completed


Properties will be evaluated at   0.000000,   0.000000,   0.000000 [a0]

Properties computed using the SCF density matrix

  Nuclear Dipole Moment: [e a0]
     X:     0.0000      Y:     0.0000      Z:    -0.0074

  Electronic Dipole Moment: [e a0]
     X:     0.0000      Y:     0.0000      Z:    -1.4107

  Dipole Moment: [e a0]
     X:     0.0000      Y:     0.0000      Z:    -1.4180     Total:     1.4180

  Dipole Moment: [D]
     X:     0.0000      Y:     0.0000      Z:    -3.6043     Total:     3.6043


*** tstop() called on bp1-compute00191.data.bp.acrc.priv at Mon Apr 19 15:48:28 2021
Module time:
	user time   =      41.15 seconds =       0.69 minutes
	system time =       1.57 seconds =       0.03 minutes
	total time  =          2 seconds =       0.03 minutes
Total time:
	user time   =     147.57 seconds =       2.46 minutes
	system time =       5.78 seconds =       0.10 minutes
	total time  =          7 seconds =       0.12 minutes

*** tstart() called on bp1-compute00191.data.bp.acrc.priv
*** at Mon Apr 19 15:48:28 2021

   => Loading Basis Set <=

    Name: (AUG-CC-PV(Q+D)Z AUX)
    Role: RIFIT
    Keyword: DF_BASIS_MP2
    atoms 1 entry SI         line   644 file /work/zw18965/.conda/envs/p4env/share/psi4/basis/aug-cc-pvqz-ri.gbs 
    atoms 2 entry O          line   332 file /work/zw18965/.conda/envs/p4env/share/psi4/basis/aug-cc-pvqz-ri.gbs 

	 --------------------------------------------------------
	                          DF-MP2                         
	      2nd-Order Density-Fitted Moller-Plesset Theory     
	              RMP2 Wavefunction,  24 Threads             
	                                                         
	        Rob Parrish, Justin Turney, Andy Simmonett,      
	           Ed Hohenstein, and C. David Sherrill          
	 --------------------------------------------------------

   => Auxiliary Basis Set <=

  Basis Set: (AUG-CC-PV(Q+D)Z AUX)
    Blend: AUG-CC-PVQZ-RI
    Number of shells: 80
    Number of basis function: 362
    Number of Cartesian functions: 505
    Spherical Harmonics?: true
    Max angular momentum: 5

	 --------------------------------------------------------
	                 NBF =   169, NAUX =   362
	 --------------------------------------------------------
	   CLASS    FOCC     OCC    AOCC    AVIR     VIR    FVIR
	   PAIRS       0      11      11     158     158       0
	 --------------------------------------------------------

	-----------------------------------------------------------
	 ==================> DF-MP2 Energies <==================== 
	-----------------------------------------------------------
	 Reference Energy          =    -364.3314341781217536 [Eh]
	 Singles Energy            =      -0.0000000000000000 [Eh]
	 Same-Spin Energy          =      -0.1420148116495596 [Eh]
	 Opposite-Spin Energy      =      -0.4137802971207325 [Eh]
	 Correlation Energy        =      -0.5557951087702920 [Eh]
	 Total Energy              =    -364.8872292868920226 [Eh]
	-----------------------------------------------------------
	 ================> DF-SCS-MP2 Energies <================== 
	-----------------------------------------------------------
	 SCS Same-Spin Scale       =       0.4000000000000000 [-]
	 SCS Opposite-Spin Scale   =       0.4700000000000000 [-]
	 SCS Same-Spin Energy      =      -0.0568059246598238 [Eh]
	 SCS Opposite-Spin Energy  =      -0.1944767396467443 [Eh]
	 SCS Correlation Energy    =      -0.2512826643065681 [Eh]
	 SCS Total Energy          =    -364.5827168424283400 [Eh]
	-----------------------------------------------------------



    DSD-BLYP-D3BJ Energy Summary
    ----------------------------
    DFT Reference Energy                  =  -364.3314341781217536
    Scaled MP2 Correlation                =    -0.2512826643065681
    @Final double-hybrid DFT total energy =  -364.5827168424283400


*** tstop() called on bp1-compute00191.data.bp.acrc.priv at Mon Apr 19 15:48:29 2021
Module time:
	user time   =      11.26 seconds =       0.19 minutes
	system time =       0.40 seconds =       0.01 minutes
	total time  =          1 seconds =       0.02 minutes
Total time:
	user time   =     158.85 seconds =       2.65 minutes
	system time =       6.18 seconds =       0.10 minutes
	total time  =          8 seconds =       0.13 minutes

         ----------------------------------------------------------
                                   FINDIF
                     R. A. King and Jonathon Misiewicz
         ---------------------------------------------------------

  Computing gradient from energies.
    Using 3-point formula.
    Energy without displacement: -364.5827162055
    Check energies below for precision!
    Forces are for mass-weighted, symmetry-adapted cartesians (in au).

     Coord      Energy(-1)        Energy(+1)            Force
        0   -364.5827141487   -364.5827168424     -0.0002693744


-------------------------------------------------------------
  ## New Matrix (Symmetry 0) ##
  Irrep: 1 Size: 2 x 3

                 1                   2                   3

    1     0.00000000000000     0.00000000000000    -0.00085932985169
    2     0.00000000000000     0.00000000000000     0.00085932985169




			-----------------------------------------
			 OPTKING 2.0: for geometry optimizations 
			  - R.A. King,  Bethel University        
			-----------------------------------------

	Internal coordinates to be generated automatically.
	Detected frag 1 with atoms:  1 2
	---Fragment 1 Bond Connectivity---
	 1 : 2
	 2 : 1

	---Fragment 1 Geometry and Gradient---
	 SI          0.0000000000        0.0000000000       -1.0406196351
	 O           0.0000000000        0.0000000000        1.8201622062
	             0.0000000000        0.0000000000       -0.0008593299
	             0.0000000000        0.0000000000        0.0008593299

	Previous optimization step data not found.  Starting new optimization.

	---Fragment 1 Intrafragment Coordinates---
	 - Coordinate -           - BOHR/RAD -       - ANG/DEG -
	 R(1,2)           =         2.860782	       1.513861

	Current energy   :      -364.5827162055

	Generating empirical Hessian (Schlegel '84) for each fragment.
	Taking RFO optimization step.
	Going to follow RFO solution 1.
	Using RFO vector 1.
	Norm of target step-size    0.00119
	Projected energy change by RFO approximation:        -0.0000003148

	Back-transformation to cartesian coordinates...
	Successfully converged to displaced geometry.

	--- Internal Coordinate Step in ANG or DEG, aJ/ANG or AJ/DEG ---
	 ---------------------------------------------------------------------------
	   Coordinate                Previous        Force       Change         New 
	   ----------                --------       ------       ------       ------
	    1 R(1,2)          =      1.513861    -0.007080    -0.000629     1.513231
	 ---------------------------------------------------------------------------
	Successfully symmetrized geometry.

  ==> Convergence Check <==

  Measures of convergence in internal coordinates in au.
  Criteria marked as inactive (o), active & met (*), and active & unmet ( ).
  --------------------------------------------------------------------------------------------- ~
   Step     Total Energy     Delta E     MAX Force     RMS Force      MAX Disp      RMS Disp    ~
  --------------------------------------------------------------------------------------------- ~
    Convergence Criteria    1.00e-06 *    3.00e-04 *             o    1.20e-03 *             o  ~
  --------------------------------------------------------------------------------------------- ~
      1    -364.58271621   -3.65e+02      8.59e-04      8.59e-04 o    1.19e-03 *    1.19e-03 o  ~
  ---------------------------------------------------------------------------------------------

	Writing optimization data to binary file.
	Structure for next step:
	Cartesian Geometry (in Angstrom)
	   SI     0.0000000000   0.0000000000  -0.5503575560
	    O     0.0000000000   0.0000000000   0.9628737177
			--------------------------
			 OPTKING Finished Execution 
			--------------------------

    Structure for next step:
    Molecular point group: c2v
    Full point group: C_inf_v

    Geometry (in Angstrom), charge = 0, multiplicity = 1:

    SI           0.000000000000     0.000000000000    -0.550443294682
    O            0.000000000000     0.000000000000     0.962787984999

gradient() will perform gradient computation by finite difference of analytic energies.

         ----------------------------------------------------------
                                   FINDIF
                     R. A. King and Jonathon Misiewicz
         ---------------------------------------------------------

  Using finite-differences of energies to determine gradients.
    Generating geometries for use with 3-point formula.
    Displacement size will be 5.00e-03.
    Number of atoms is 2.
    Number of symmetric SALCs is 1.
    Translations projected? 1. Rotations projected? 1.
    Number of geometries (including reference) is 3.

  //>>>>>>>>>>>>>>>>>>>>>>>>>>>>>>>>>>>//
  //    Loading displacement 1 of 3    //
  //<<<<<<<<<<<<<<<<<<<<<<<<<<<<<<<<<<<//

*** tstart() called on bp1-compute00191.data.bp.acrc.priv
*** at Mon Apr 19 15:48:29 2021

   => Loading Basis Set <=

    Name: AUG-CC-PV(Q+D)Z
    Role: ORBITAL
    Keyword: BASIS
    atoms 1 entry SI         line   952 file /work/zw18965/.conda/envs/p4env/share/psi4/basis/aug-cc-pv_qpd_z.gbs 
    atoms 2 entry O          line   439 file /work/zw18965/.conda/envs/p4env/share/psi4/basis/aug-cc-pv_qpd_z.gbs 


         ---------------------------------------------------------
                                   SCF
               by Justin Turney, Rob Parrish, Andy Simmonett
                          and Daniel G. A. Smith
                              RKS Reference
                       24 Threads, 137329 MiB Core
         ---------------------------------------------------------

  ==> Geometry <==

    Molecular point group: c2v
    Full point group: C_inf_v

    Geometry (in Angstrom), charge = 0, multiplicity = 1:

       Center              X                  Y                   Z               Mass       
    ------------   -----------------  -----------------  -----------------  -----------------
         SI           0.000000000000     0.000000000000    -0.550443294682    27.976926534650
         O            0.000000000000     0.000000000000     0.962787984999    15.994914619570

  Running in c2v symmetry.

  Rotational constants: A = ************  B =      0.72340  C =      0.72340 [cm^-1]
  Rotational constants: A = ************  B =  21686.99110  C =  21686.99110 [MHz]
  Nuclear repulsion =   39.166417183463182

  Charge       = 0
  Multiplicity = 1
  Electrons    = 22
  Nalpha       = 11
  Nbeta        = 11

  ==> Algorithm <==

  SCF Algorithm Type is DF.
  DIIS enabled.
  MOM disabled.
  Fractional occupation disabled.
  Guess Type is READ.
  Energy threshold   = 1.00e-08
  Density threshold  = 1.00e-08
  Integral threshold = 0.00e+00

  ==> Primary Basis <==

  Basis Set: AUG-CC-PV(Q+D)Z
    Blend: AUG-CC-PV(Q+D)Z
    Number of shells: 43
    Number of basis function: 169
    Number of Cartesian functions: 220
    Spherical Harmonics?: true
    Max angular momentum: 4

  ==> DFT Potential <==

   => Composite Functional: DSD-BLYP-D3BJ <= 

    DSD-BLYP-D3BJ Dispersion-corrected SCS Double Hybrid XC Functional

    S. Kozuch, J.M.L. Martin, J. Comp. Chem., 34, 2327-2344, 2013


    Deriv               =              1
    GGA                 =           TRUE
    Meta                =          FALSE

    Exchange Hybrid     =           TRUE
    MP2 Hybrid          =           TRUE

   => Exchange Functionals <=

    0.2900     XC_GGA_X_B88

   => Exact (HF) Exchange <=

    0.7100               HF 

   => Correlation Functionals <=

    0.5400     XC_GGA_C_LYP

   => MP2 Correlation <=

    MP2 SCS Hybrid      =           TRUE
    MP2 OS Alpha        =       0.470000
    MP2 SS Alpha        =       0.400000

   => Molecular Quadrature <=

    Radial Scheme          =       TREUTLER
    Pruning Scheme         =           FLAT
    Nuclear Scheme         =       TREUTLER

    BS radius alpha        =              1
    Pruning alpha          =              1
    Radial Points          =             75
    Spherical Points       =            302
    Total Points           =          45300
    Total Blocks           =            423
    Max Points             =            256
    Max Functions          =            169

   => DSD-BLYP-D3BJ: Empirical Dispersion <=

    Grimme's -D3 (BJ-damping) Dispersion Correction
    Grimme S.; Ehrlich S.; Goerigk L. (2011), J. Comput. Chem., 32: 1456
    Parametrisation from:    S. Kozuch, J.M.L. Martin, J. Comp. Chem., 34, 2327-2344, 2013

        s6 =       0.570000
        s8 =       0.000000
        a1 =       0.000000
        a2 =       5.400000

   => Loading Basis Set <=

    Name: (AUG-CC-PV(Q+D)Z AUX)
    Role: JKFIT
    Keyword: DF_BASIS_SCF
    atoms 1 entry SI         line   622 file /work/zw18965/.conda/envs/p4env/share/psi4/basis/aug-cc-pvqz-jkfit.gbs 
    atoms 2 entry O          line   318 file /work/zw18965/.conda/envs/p4env/share/psi4/basis/aug-cc-pvqz-jkfit.gbs 

   => Loading Basis Set <=

    Name: AUG-CC-PV(Q+D)Z
    Role: ORBITAL
    Keyword: BASIS
    atoms 1 entry SI         line   952 file /work/zw18965/.conda/envs/p4env/share/psi4/basis/aug-cc-pv_qpd_z.gbs 
    atoms 2 entry O          line   439 file /work/zw18965/.conda/envs/p4env/share/psi4/basis/aug-cc-pv_qpd_z.gbs 

  Reading orbitals from file 180, no projection.

  ==> Pre-Iterations <==

   -------------------------------------------------------
    Irrep   Nso     Nmo     Nalpha   Nbeta   Ndocc  Nsocc
   -------------------------------------------------------
     A1        66      66       0       0       0       0
     A2        23      23       0       0       0       0
     B1        40      40       0       0       0       0
     B2        40      40       0       0       0       0
   -------------------------------------------------------
    Total     169     169      11      11      11       0
   -------------------------------------------------------

  ==> Integral Setup <==

  DFHelper Memory: AOs need 0.082 GiB; user supplied 100.381 GiB. Using in-core AOs.

  ==> MemDFJK: Density-Fitted J/K Matrices <==

    J tasked:                   Yes
    K tasked:                   Yes
    wK tasked:                   No
    OpenMP threads:              24
    Memory [MiB]:            102790
    Algorithm:                 Core
    Schwarz Cutoff:           1E-12
    Mask sparsity (%):       0.0000
    Fitting Condition:        1E-10

   => Auxiliary Basis Set <=

  Basis Set: (AUG-CC-PV(Q+D)Z AUX)
    Blend: AUG-CC-PVQZ-JKFIT
    Number of shells: 80
    Number of basis function: 326
    Number of Cartesian functions: 445
    Spherical Harmonics?: true
    Max angular momentum: 5

  Cached 100.0% of DFT collocation blocks in 0.202 [GiB].

  Minimum eigenvalue in the overlap matrix is 7.4797700560E-05.
  Using Symmetric Orthogonalization.

  SCF Guess: Orbitals guess was supplied from a previous computation.

  ==> Iterations <==

                           Total Energy        Delta E     RMS |[F,P]|

   @DF-RKS iter   0:  -364.33179723544515   -3.64332e+02   2.54900e-05 
   @DF-RKS iter   1:  -364.33142062192991    3.76614e-04   1.46793e-06 DIIS
   @DF-RKS iter   2:  -364.33142063170123   -9.77133e-09   5.76175e-07 DIIS
   @DF-RKS iter   3:  -364.33142063239222   -6.90989e-10   2.60018e-07 DIIS
   @DF-RKS iter   4:  -364.33142063254473   -1.52511e-10   1.73784e-07 DIIS
   @DF-RKS iter   5:  -364.33142063264881   -1.04080e-10   2.83882e-08 DIIS
   @DF-RKS iter   6:  -364.33142063265285   -4.03588e-12   5.47196e-09 DIIS
  Energy and wave function converged.


  ==> Post-Iterations <==

    Orbital Energies [Eh]
    ---------------------

    Doubly Occupied:                                                      

       1A1   -67.877675     2A1   -20.023202     3A1    -5.864963  
       1B1    -4.060693     1B2    -4.060693     4A1    -4.057109  
       5A1    -1.148774     6A1    -0.550124     2B1    -0.425852  
       2B2    -0.425852     7A1    -0.397779  

    Virtual:                                                              

       3B1    -0.014787     3B2    -0.014787     8A1     0.023147  
       9A1     0.039812     4B1     0.050758     4B2     0.050758  
      10A1     0.092292    11A1     0.098728     1A2     0.098729  
       5B1     0.114086     5B2     0.114086    12A1     0.120840  
      13A1     0.183683     6B1     0.185949     6B2     0.185949  
      14A1     0.229200     7B1     0.261322     7B2     0.261322  
      15A1     0.287710    16A1     0.289421     2A2     0.289421  
       3A2     0.300392    17A1     0.300392     8B1     0.302080  
       8B2     0.302080     9B1     0.333763     9B2     0.333763  
      18A1     0.376875    19A1     0.397992    10B1     0.430195  
      10B2     0.430195    11B1     0.557716    11B2     0.557716  
      20A1     0.562582    21A1     0.617133     4A2     0.617133  
      22A1     0.627851    23A1     0.760559     5A2     0.760559  
      12B1     0.795259    12B2     0.795259    24A1     0.826833  
      13B1     0.884217    13B2     0.884217    25A1     0.887062  
       6A2     0.887062    26A1     0.897436    14B1     0.936257  
      14B2     0.936257    27A1     0.962138     7A2     0.962138  
      15B2     0.970195    15B1     0.970195    16B1     0.988423  
      16B2     0.988423    28A1     1.079006    17B1     1.091586  
      17B2     1.091586     8A2     1.119307    29A1     1.119307  
      30A1     1.157257    31A1     1.247194    18B1     1.287861  
      18B2     1.287861    32A1     1.489490    19B2     1.527077  
      19B1     1.527077    33A1     1.618029     9A2     1.618030  
      34A1     1.628957    20B2     1.685200    20B1     1.685200  
      10A2     1.808813    35A1     1.808813    36A1     1.825026  
      11A2     1.967026    37A1     1.967026    21B1     2.032646  
      21B2     2.032646    38A1     2.055056    22B1     2.177583  
      22B2     2.177583    23B1     2.270987    23B2     2.270987  
      39A1     2.314990    12A2     2.314990    40A1     2.425025  
      41A1     2.553248    13A2     2.553248    24B1     2.555391  
      24B2     2.555391    25B1     2.588026    25B2     2.588026  
      26B1     2.734252    26B2     2.734252    42A1     2.747172  
      14A2     2.758044    43A1     2.758045    44A1     2.927274  
      27B2     3.369533    27B1     3.369533    15A2     3.614699  
      45A1     3.614718    46A1     3.760089    28B2     3.859149  
      28B1     3.859149    29B2     4.115824    29B1     4.115824  
      47A1     4.189166    48A1     4.215983    16A2     4.215994  
      30B2     4.308336    30B1     4.308336    17A2     4.427027  
      49A1     4.427028    50A1     4.508186    31B2     4.542929  
      31B1     4.542929    51A1     4.688349    18A2     4.688352  
      32B2     4.988835    32B1     4.988835    52A1     5.172428  
      53A1     5.360942    33B2     5.762149    33B1     5.762149  
      19A2     5.968311    54A1     5.968313    55A1     6.418075  
      34B2     6.870420    34B1     6.870420    56A1     8.158477  
      20A2    10.506121    57A1    10.506366    35B2    10.600251  
      35B1    10.600251    58A1    10.675992    36B2    10.704110  
      36B1    10.704110    59A1    10.822269    21A2    10.822281  
      37B2    10.882988    37B1    10.882988    60A1    11.000557  
      38B1    11.774221    38B2    11.774221    22A2    11.951782  
      61A1    11.951816    62A1    12.091887    39B2    12.281452  
      39B1    12.281452    63A1    12.692805    23A2    12.692883  
      64A1    13.138073    40B2    13.150165    40B1    13.150165  
      65A1    13.962534    66A1    41.975501  

    Final Occupation by Irrep:
             A1    A2    B1    B2 
    DOCC [     7,    0,    2,    2 ]

  @DF-RKS Final Energy:  -364.33142063265285

   => Energetics <=

    Nuclear Repulsion Energy =             39.1664171834631816
    One-Electron Energy =                -582.9270706106267426
    Two-Electron Energy =                 188.1907078978260586
    DFT Exchange-Correlation Energy =      -8.7603033133153101
    Empirical Dispersion Energy =          -0.0011717900000000
    VV10 Nonlocal Energy =                  0.0000000000000000
    Total Energy =                       -364.3314206326527938

Computation Completed


Properties will be evaluated at   0.000000,   0.000000,   0.000000 [a0]

Properties computed using the SCF density matrix

  Nuclear Dipole Moment: [e a0]
     X:     0.0000      Y:     0.0000      Z:    -0.0074

  Electronic Dipole Moment: [e a0]
     X:     0.0000      Y:     0.0000      Z:    -1.4111

  Dipole Moment: [e a0]
     X:     0.0000      Y:     0.0000      Z:    -1.4184     Total:     1.4184

  Dipole Moment: [D]
     X:     0.0000      Y:     0.0000      Z:    -3.6053     Total:     3.6053


*** tstop() called on bp1-compute00191.data.bp.acrc.priv at Mon Apr 19 15:48:30 2021
Module time:
	user time   =      23.51 seconds =       0.39 minutes
	system time =       0.91 seconds =       0.02 minutes
	total time  =          1 seconds =       0.02 minutes
Total time:
	user time   =     182.71 seconds =       3.05 minutes
	system time =       7.10 seconds =       0.12 minutes
	total time  =          9 seconds =       0.15 minutes

*** tstart() called on bp1-compute00191.data.bp.acrc.priv
*** at Mon Apr 19 15:48:30 2021

   => Loading Basis Set <=

    Name: (AUG-CC-PV(Q+D)Z AUX)
    Role: RIFIT
    Keyword: DF_BASIS_MP2
    atoms 1 entry SI         line   644 file /work/zw18965/.conda/envs/p4env/share/psi4/basis/aug-cc-pvqz-ri.gbs 
    atoms 2 entry O          line   332 file /work/zw18965/.conda/envs/p4env/share/psi4/basis/aug-cc-pvqz-ri.gbs 

	 --------------------------------------------------------
	                          DF-MP2                         
	      2nd-Order Density-Fitted Moller-Plesset Theory     
	              RMP2 Wavefunction,  24 Threads             
	                                                         
	        Rob Parrish, Justin Turney, Andy Simmonett,      
	           Ed Hohenstein, and C. David Sherrill          
	 --------------------------------------------------------

   => Auxiliary Basis Set <=

  Basis Set: (AUG-CC-PV(Q+D)Z AUX)
    Blend: AUG-CC-PVQZ-RI
    Number of shells: 80
    Number of basis function: 362
    Number of Cartesian functions: 505
    Spherical Harmonics?: true
    Max angular momentum: 5

	 --------------------------------------------------------
	                 NBF =   169, NAUX =   362
	 --------------------------------------------------------
	   CLASS    FOCC     OCC    AOCC    AVIR     VIR    FVIR
	   PAIRS       0      11      11     158     158       0
	 --------------------------------------------------------

	-----------------------------------------------------------
	 ==================> DF-MP2 Energies <==================== 
	-----------------------------------------------------------
	 Reference Energy          =    -364.3314206326528506 [Eh]
	 Singles Energy            =      -0.0000000000000000 [Eh]
	 Same-Spin Energy          =      -0.1420241701242152 [Eh]
	 Opposite-Spin Energy      =      -0.4138011093096909 [Eh]
	 Correlation Energy        =      -0.5558252794339061 [Eh]
	 Total Energy              =    -364.8872459120867688 [Eh]
	-----------------------------------------------------------
	 ================> DF-SCS-MP2 Energies <================== 
	-----------------------------------------------------------
	 SCS Same-Spin Scale       =       0.4000000000000000 [-]
	 SCS Opposite-Spin Scale   =       0.4700000000000000 [-]
	 SCS Same-Spin Energy      =      -0.0568096680496861 [Eh]
	 SCS Opposite-Spin Energy  =      -0.1944865213755547 [Eh]
	 SCS Correlation Energy    =      -0.2512961894252408 [Eh]
	 SCS Total Energy          =    -364.5827168220781118 [Eh]
	-----------------------------------------------------------



    DSD-BLYP-D3BJ Energy Summary
    ----------------------------
    DFT Reference Energy                  =  -364.3314206326528506
    Scaled MP2 Correlation                =    -0.2512961894252408
    @Final double-hybrid DFT total energy =  -364.5827168220781118


*** tstop() called on bp1-compute00191.data.bp.acrc.priv at Mon Apr 19 15:48:31 2021
Module time:
	user time   =      11.22 seconds =       0.19 minutes
	system time =       0.39 seconds =       0.01 minutes
	total time  =          1 seconds =       0.02 minutes
Total time:
	user time   =     193.94 seconds =       3.23 minutes
	system time =       7.49 seconds =       0.12 minutes
	total time  =         10 seconds =       0.17 minutes

  //>>>>>>>>>>>>>>>>>>>>>>>>>>>>>>>>>>>//
  //    Loading displacement 2 of 3    //
  //<<<<<<<<<<<<<<<<<<<<<<<<<<<<<<<<<<<//

*** tstart() called on bp1-compute00191.data.bp.acrc.priv
*** at Mon Apr 19 15:48:31 2021

   => Loading Basis Set <=

    Name: AUG-CC-PV(Q+D)Z
    Role: ORBITAL
    Keyword: BASIS
    atoms 1 entry SI         line   952 file /work/zw18965/.conda/envs/p4env/share/psi4/basis/aug-cc-pv_qpd_z.gbs 
    atoms 2 entry O          line   439 file /work/zw18965/.conda/envs/p4env/share/psi4/basis/aug-cc-pv_qpd_z.gbs 


         ---------------------------------------------------------
                                   SCF
               by Justin Turney, Rob Parrish, Andy Simmonett
                          and Daniel G. A. Smith
                              RKS Reference
                       24 Threads, 137329 MiB Core
         ---------------------------------------------------------

  ==> Geometry <==

    Molecular point group: c2v
    Full point group: C_inf_v

    Geometry (in Angstrom), charge = 0, multiplicity = 1:

       Center              X                  Y                   Z               Mass       
    ------------   -----------------  -----------------  -----------------  -----------------
         SI           0.000000000000     0.000000000000    -0.550744994309    27.976926534650
         O            0.000000000000     0.000000000000     0.963315691993    15.994914619570

  Running in c2v symmetry.

  Rotational constants: A = ************  B =      0.72261  C =      0.72261 [cm^-1]
  Rotational constants: A = ************  B =  21663.23723  C =  21663.23723 [MHz]
  Nuclear repulsion =   39.144961712071940

  Charge       = 0
  Multiplicity = 1
  Electrons    = 22
  Nalpha       = 11
  Nbeta        = 11

  ==> Algorithm <==

  SCF Algorithm Type is DF.
  DIIS enabled.
  MOM disabled.
  Fractional occupation disabled.
  Guess Type is READ.
  Energy threshold   = 1.00e-08
  Density threshold  = 1.00e-08
  Integral threshold = 0.00e+00

  ==> Primary Basis <==

  Basis Set: AUG-CC-PV(Q+D)Z
    Blend: AUG-CC-PV(Q+D)Z
    Number of shells: 43
    Number of basis function: 169
    Number of Cartesian functions: 220
    Spherical Harmonics?: true
    Max angular momentum: 4

  ==> DFT Potential <==

   => Composite Functional: DSD-BLYP-D3BJ <= 

    DSD-BLYP-D3BJ Dispersion-corrected SCS Double Hybrid XC Functional

    S. Kozuch, J.M.L. Martin, J. Comp. Chem., 34, 2327-2344, 2013


    Deriv               =              1
    GGA                 =           TRUE
    Meta                =          FALSE

    Exchange Hybrid     =           TRUE
    MP2 Hybrid          =           TRUE

   => Exchange Functionals <=

    0.2900     XC_GGA_X_B88

   => Exact (HF) Exchange <=

    0.7100               HF 

   => Correlation Functionals <=

    0.5400     XC_GGA_C_LYP

   => MP2 Correlation <=

    MP2 SCS Hybrid      =           TRUE
    MP2 OS Alpha        =       0.470000
    MP2 SS Alpha        =       0.400000

   => Molecular Quadrature <=

    Radial Scheme          =       TREUTLER
    Pruning Scheme         =           FLAT
    Nuclear Scheme         =       TREUTLER

    BS radius alpha        =              1
    Pruning alpha          =              1
    Radial Points          =             75
    Spherical Points       =            302
    Total Points           =          45300
    Total Blocks           =            423
    Max Points             =            256
    Max Functions          =            169

   => DSD-BLYP-D3BJ: Empirical Dispersion <=

    Grimme's -D3 (BJ-damping) Dispersion Correction
    Grimme S.; Ehrlich S.; Goerigk L. (2011), J. Comput. Chem., 32: 1456
    Parametrisation from:    S. Kozuch, J.M.L. Martin, J. Comp. Chem., 34, 2327-2344, 2013

        s6 =       0.570000
        s8 =       0.000000
        a1 =       0.000000
        a2 =       5.400000

   => Loading Basis Set <=

    Name: (AUG-CC-PV(Q+D)Z AUX)
    Role: JKFIT
    Keyword: DF_BASIS_SCF
    atoms 1 entry SI         line   622 file /work/zw18965/.conda/envs/p4env/share/psi4/basis/aug-cc-pvqz-jkfit.gbs 
    atoms 2 entry O          line   318 file /work/zw18965/.conda/envs/p4env/share/psi4/basis/aug-cc-pvqz-jkfit.gbs 

   => Loading Basis Set <=

    Name: AUG-CC-PV(Q+D)Z
    Role: ORBITAL
    Keyword: BASIS
    atoms 1 entry SI         line   952 file /work/zw18965/.conda/envs/p4env/share/psi4/basis/aug-cc-pv_qpd_z.gbs 
    atoms 2 entry O          line   439 file /work/zw18965/.conda/envs/p4env/share/psi4/basis/aug-cc-pv_qpd_z.gbs 

  Reading orbitals from file 180, no projection.

  ==> Pre-Iterations <==

   -------------------------------------------------------
    Irrep   Nso     Nmo     Nalpha   Nbeta   Ndocc  Nsocc
   -------------------------------------------------------
     A1        66      66       0       0       0       0
     A2        23      23       0       0       0       0
     B1        40      40       0       0       0       0
     B2        40      40       0       0       0       0
   -------------------------------------------------------
    Total     169     169      11      11      11       0
   -------------------------------------------------------

  ==> Integral Setup <==

  DFHelper Memory: AOs need 0.082 GiB; user supplied 100.381 GiB. Using in-core AOs.

  ==> MemDFJK: Density-Fitted J/K Matrices <==

    J tasked:                   Yes
    K tasked:                   Yes
    wK tasked:                   No
    OpenMP threads:              24
    Memory [MiB]:            102790
    Algorithm:                 Core
    Schwarz Cutoff:           1E-12
    Mask sparsity (%):       0.0000
    Fitting Condition:        1E-10

   => Auxiliary Basis Set <=

  Basis Set: (AUG-CC-PV(Q+D)Z AUX)
    Blend: AUG-CC-PVQZ-JKFIT
    Number of shells: 80
    Number of basis function: 326
    Number of Cartesian functions: 445
    Spherical Harmonics?: true
    Max angular momentum: 5

  Cached 100.0% of DFT collocation blocks in 0.202 [GiB].

  Minimum eigenvalue in the overlap matrix is 7.4937929268E-05.
  Using Symmetric Orthogonalization.

  SCF Guess: Orbitals guess was supplied from a previous computation.

  ==> Iterations <==

                           Total Energy        Delta E     RMS |[F,P]|

   @DF-RKS iter   0:  -364.33086794299743   -3.64331e+02   3.35964e-05 
   @DF-RKS iter   1:  -364.33136353871868   -4.95596e-04   1.93474e-06 DIIS
   @DF-RKS iter   2:  -364.33136355568894   -1.69703e-08   7.57239e-07 DIIS
   @DF-RKS iter   3:  -364.33136355688799   -1.19906e-09   3.39846e-07 DIIS
   @DF-RKS iter   4:  -364.33136355714726   -2.59263e-10   2.29229e-07 DIIS
   @DF-RKS iter   5:  -364.33136355732802   -1.80762e-10   3.75286e-08 DIIS
   @DF-RKS iter   6:  -364.33136355733450   -6.48015e-12   7.22480e-09 DIIS
  Energy and wave function converged.


  ==> Post-Iterations <==

    Orbital Energies [Eh]
    ---------------------

    Doubly Occupied:                                                      

       1A1   -67.877914     2A1   -20.023254     3A1    -5.865138  
       1B1    -4.060873     1B2    -4.060873     4A1    -4.057273  
       5A1    -1.148531     6A1    -0.550124     2B2    -0.425669  
       2B1    -0.425669     7A1    -0.397792  

    Virtual:                                                              

       3B2    -0.014866     3B1    -0.014866     8A1     0.023128  
       9A1     0.039805     4B1     0.050735     4B2     0.050735  
      10A1     0.092287    11A1     0.098717     1A2     0.098717  
       5B1     0.114078     5B2     0.114078    12A1     0.120807  
      13A1     0.183670     6B1     0.185968     6B2     0.185968  
      14A1     0.229208     7B1     0.261277     7B2     0.261277  
      15A1     0.287690    16A1     0.289390     2A2     0.289390  
       3A2     0.300393    17A1     0.300393     8B1     0.302065  
       8B2     0.302065     9B1     0.333697     9B2     0.333697  
      18A1     0.376786    19A1     0.397941    10B2     0.430131  
      10B1     0.430131    11B2     0.557746    11B1     0.557746  
      20A1     0.562549    21A1     0.617129     4A2     0.617129  
      22A1     0.627821    23A1     0.760507     5A2     0.760507  
      12B2     0.795230    12B1     0.795230    24A1     0.826909  
      13B1     0.884176    13B2     0.884176    25A1     0.887042  
       6A2     0.887042    26A1     0.897223    14B2     0.936144  
      14B1     0.936144    27A1     0.962107     7A2     0.962107  
      15B2     0.970169    15B1     0.970169    16B1     0.988287  
      16B2     0.988287    28A1     1.078905    17B2     1.091624  
      17B1     1.091624     8A2     1.119240    29A1     1.119240  
      30A1     1.156904    31A1     1.246950    18B2     1.287686  
      18B1     1.287686    32A1     1.489409    19B2     1.526902  
      19B1     1.526902    33A1     1.618079     9A2     1.618079  
      34A1     1.628733    20B2     1.685223    20B1     1.685223  
      10A2     1.808635    35A1     1.808635    36A1     1.824849  
      11A2     1.966920    37A1     1.966921    21B2     2.031963  
      21B1     2.031963    38A1     2.055080    22B2     2.177715  
      22B1     2.177715    23B1     2.270917    23B2     2.270917  
      39A1     2.314642    12A2     2.314642    40A1     2.424683  
      41A1     2.553181    13A2     2.553181    24B1     2.555331  
      24B2     2.555331    25B2     2.587755    25B1     2.587755  
      26B2     2.734168    26B1     2.734168    42A1     2.746386  
      14A2     2.757683    43A1     2.757684    44A1     2.928017  
      27B2     3.369007    27B1     3.369007    15A2     3.614743  
      45A1     3.614762    46A1     3.759292    28B1     3.858627  
[...]
    Pruning Scheme         =           FLAT
    Nuclear Scheme         =       TREUTLER

    BS radius alpha        =              1
    Pruning alpha          =              1
    Radial Points          =             75
    Spherical Points       =            302
    Total Points           =          45300
    Total Blocks           =            423
    Max Points             =            256
    Max Functions          =            169

   => DSD-BLYP-D3BJ: Empirical Dispersion <=

    Grimme's -D3 (BJ-damping) Dispersion Correction
    Grimme S.; Ehrlich S.; Goerigk L. (2011), J. Comput. Chem., 32: 1456
    Parametrisation from:    S. Kozuch, J.M.L. Martin, J. Comp. Chem., 34, 2327-2344, 2013

        s6 =       0.570000
        s8 =       0.000000
        a1 =       0.000000
        a2 =       5.400000

   => Loading Basis Set <=

    Name: (AUG-CC-PV(Q+D)Z AUX)
    Role: JKFIT
    Keyword: DF_BASIS_SCF
    atoms 1 entry SI         line   622 file /work/zw18965/.conda/envs/p4env/share/psi4/basis/aug-cc-pvqz-jkfit.gbs 
    atoms 2 entry O          line   318 file /work/zw18965/.conda/envs/p4env/share/psi4/basis/aug-cc-pvqz-jkfit.gbs 

  ==> Pre-Iterations <==

   -------------------------------------------------------
    Irrep   Nso     Nmo     Nalpha   Nbeta   Ndocc  Nsocc
   -------------------------------------------------------
     A1        66      66       0       0       0       0
     A2        23      23       0       0       0       0
     B1        40      40       0       0       0       0
     B2        40      40       0       0       0       0
   -------------------------------------------------------
    Total     169     169      11      11      11       0
   -------------------------------------------------------

  ==> Integral Setup <==

  DFHelper Memory: AOs need 0.082 GiB; user supplied 100.381 GiB. Using in-core AOs.

  ==> MemDFJK: Density-Fitted J/K Matrices <==

    J tasked:                   Yes
    K tasked:                   Yes
    wK tasked:                   No
    OpenMP threads:              24
    Memory [MiB]:            102790
    Algorithm:                 Core
    Schwarz Cutoff:           1E-12
    Mask sparsity (%):       0.0000
    Fitting Condition:        1E-10

   => Auxiliary Basis Set <=

  Basis Set: (AUG-CC-PV(Q+D)Z AUX)
    Blend: AUG-CC-PVQZ-JKFIT
    Number of shells: 80
    Number of basis function: 326
    Number of Cartesian functions: 445
    Spherical Harmonics?: true
    Max angular momentum: 5

  Cached 100.0% of DFT collocation blocks in 0.202 [GiB].

  Minimum eigenvalue in the overlap matrix is 7.4657837258E-05.
  Using Symmetric Orthogonalization.

  SCF Guess: Superposition of Atomic Densities via on-the-fly atomic UHF.

  ==> Iterations <==

                           Total Energy        Delta E     RMS |[F,P]|

   @DF-RKS iter SAD:  -363.48798063498703   -3.63488e+02   0.00000e+00 
   @DF-RKS iter   1:  -364.12824329496573   -6.40263e-01   7.91394e-03 DIIS
   @DF-RKS iter   2:  -363.64405445140494    4.84189e-01   1.39937e-02 DIIS
   @DF-RKS iter   3:  -364.32917227786822   -6.85118e-01   7.03052e-04 DIIS
   @DF-RKS iter   4:  -364.33139737139163   -2.22509e-03   1.23775e-04 DIIS
   @DF-RKS iter   5:  -364.33147041667507   -7.30453e-05   3.14441e-05 DIIS
   @DF-RKS iter   6:  -364.33147597591869   -5.55924e-06   4.06844e-06 DIIS
   @DF-RKS iter   7:  -364.33147618089976   -2.04981e-07   1.61074e-06 DIIS
   @DF-RKS iter   8:  -364.33147619441178   -1.35120e-08   3.68710e-07 DIIS
   @DF-RKS iter   9:  -364.33147619532485   -9.13076e-10   7.81922e-08 DIIS
   @DF-RKS iter  10:  -364.33147619538175   -5.69003e-11   8.99077e-09 DIIS
   @DF-RKS iter  11:  -364.33147619538244   -6.82121e-13   2.10132e-09 DIIS
   @DF-RKS iter  12:  -364.33147619538283   -3.97904e-13   2.48404e-10 DIIS
   @DF-RKS iter  13:  -364.33147619538266    1.70530e-13   1.78232e-11 DIIS
  Energy and wave function converged.


  ==> Post-Iterations <==

    Orbital Energies [Eh]
    ---------------------

    Doubly Occupied:                                                      

       1A1   -67.877435     2A1   -20.023150     3A1    -5.864788  
       1B1    -4.060513     1B2    -4.060513     4A1    -4.056944  
       5A1    -1.149017     6A1    -0.550124     2B1    -0.426035  
       2B2    -0.426035     7A1    -0.397766  

    Virtual:                                                              

       3B1    -0.014707     3B2    -0.014707     8A1     0.023166  
       9A1     0.039818     4B1     0.050781     4B2     0.050781  
      10A1     0.092298    11A1     0.098740     1A2     0.098740  
       5B1     0.114094     5B2     0.114094    12A1     0.120872  
      13A1     0.183695     6B1     0.185931     6B2     0.185931  
      14A1     0.229192     7B1     0.261367     7B2     0.261367  
      15A1     0.287730    16A1     0.289451     2A2     0.289451  
       3A2     0.300391    17A1     0.300391     8B1     0.302094  
       8B2     0.302094     9B1     0.333829     9B2     0.333829  
      18A1     0.376965    19A1     0.398043    10B1     0.430260  
      10B2     0.430260    11B1     0.557686    11B2     0.557686  
      20A1     0.562615    21A1     0.617137     4A2     0.617137  
      22A1     0.627880    23A1     0.760611     5A2     0.760612  
      12B1     0.795289    12B2     0.795289    24A1     0.826757  
      13B1     0.884258    13B2     0.884258    25A1     0.887081  
       6A2     0.887081    26A1     0.897650    14B1     0.936370  
      14B2     0.936370    27A1     0.962168     7A2     0.962168  
      15B2     0.970220    15B1     0.970220    16B1     0.988560  
      16B2     0.988560    28A1     1.079106    17B1     1.091547  
      17B2     1.091547     8A2     1.119374    29A1     1.119375  
      30A1     1.157609    31A1     1.247439    18B1     1.288036  
      18B2     1.288036    32A1     1.489571    19B1     1.527251  
      19B2     1.527251    33A1     1.617980     9A2     1.617980  
      34A1     1.629183    20B1     1.685177    20B2     1.685177  
      10A2     1.808990    35A1     1.808991    36A1     1.825203  
      11A2     1.967131    37A1     1.967131    21B1     2.033328  
      21B2     2.033328    38A1     2.055032    22B1     2.177451  
      22B2     2.177451    23B2     2.271058    23B1     2.271058  
      39A1     2.315338    12A2     2.315338    40A1     2.425368  
      41A1     2.553314    13A2     2.553314    24B1     2.555452  
      24B2     2.555452    25B1     2.588296    25B2     2.588296  
      26B1     2.734336    26B2     2.734336    42A1     2.747960  
      14A2     2.758405    43A1     2.758405    44A1     2.926526  
      27B1     3.370059    27B2     3.370059    15A2     3.614655  
      45A1     3.614673    46A1     3.760891    28B2     3.859672  
      28B1     3.859672    29B2     4.115927    29B1     4.115927  
      47A1     4.189335    48A1     4.215976    16A2     4.215986  
      30B1     4.308602    30B2     4.308602    17A2     4.427665  
      49A1     4.427665    50A1     4.508902    31B1     4.543901  
      31B2     4.543901    51A1     4.689191    18A2     4.689194  
      32B1     4.989455    32B2     4.989455    52A1     5.170927  
      53A1     5.363828    33B1     5.762699    33B2     5.762699  
      19A2     5.968656    54A1     5.968658    55A1     6.418524  
      34B1     6.872036    34B2     6.872036    56A1     8.161777  
      20A2    10.506051    57A1    10.506295    35B2    10.600362  
      35B1    10.600362    58A1    10.676679    36B1    10.705175  
      36B2    10.705175    59A1    10.822394    21A2    10.822406  
      37B1    10.882894    37B2    10.882894    60A1    11.001533  
      38B1    11.774272    38B2    11.774272    22A2    11.952064  
      61A1    11.952098    62A1    12.094747    39B1    12.282756  
      39B2    12.282756    63A1    12.693178    23A2    12.693255  
      64A1    13.136010    40B1    13.150143    40B2    13.150143  
      65A1    13.965953    66A1    41.978419  

    Final Occupation by Irrep:
             A1    A2    B1    B2 
    DOCC [     7,    0,    2,    2 ]

  @DF-RKS Final Energy:  -364.33147619538266

   => Energetics <=

    Nuclear Repulsion Energy =             39.1878961873696241
    One-Electron Energy =                -582.9708081673236393
    Two-Electron Energy =                 188.2130855015755060
    DFT Exchange-Correlation Energy =      -8.7604778470041076
    Empirical Dispersion Energy =          -0.0011718700000000
    VV10 Nonlocal Energy =                  0.0000000000000000
    Total Energy =                       -364.3314761953826633

Computation Completed


Properties will be evaluated at   0.000000,   0.000000,   0.000000 [a0]

Properties computed using the SCF density matrix

  Nuclear Dipole Moment: [e a0]
     X:     0.0000      Y:     0.0000      Z:    -0.0074

  Electronic Dipole Moment: [e a0]
     X:     0.0000      Y:     0.0000      Z:    -1.4095

  Dipole Moment: [e a0]
     X:     0.0000      Y:     0.0000      Z:    -1.4168     Total:     1.4168

  Dipole Moment: [D]
     X:     0.0000      Y:     0.0000      Z:    -3.6012     Total:     3.6012


*** tstop() called on bp1-compute00191.data.bp.acrc.priv at Mon Apr 19 15:48:49 2021
Module time:
	user time   =      43.95 seconds =       0.73 minutes
	system time =       1.34 seconds =       0.02 minutes
	total time  =          2 seconds =       0.03 minutes
Total time:
	user time   =     577.56 seconds =       9.63 minutes
	system time =      21.01 seconds =       0.35 minutes
	total time  =         28 seconds =       0.47 minutes

*** tstart() called on bp1-compute00191.data.bp.acrc.priv
*** at Mon Apr 19 15:48:49 2021

   => Loading Basis Set <=

    Name: (AUG-CC-PV(Q+D)Z AUX)
    Role: RIFIT
    Keyword: DF_BASIS_MP2
    atoms 1 entry SI         line   644 file /work/zw18965/.conda/envs/p4env/share/psi4/basis/aug-cc-pvqz-ri.gbs 
    atoms 2 entry O          line   332 file /work/zw18965/.conda/envs/p4env/share/psi4/basis/aug-cc-pvqz-ri.gbs 

	 --------------------------------------------------------
	                          DF-MP2                         
	      2nd-Order Density-Fitted Moller-Plesset Theory     
	              RMP2 Wavefunction,  24 Threads             
	                                                         
	        Rob Parrish, Justin Turney, Andy Simmonett,      
	           Ed Hohenstein, and C. David Sherrill          
	 --------------------------------------------------------

   => Auxiliary Basis Set <=

  Basis Set: (AUG-CC-PV(Q+D)Z AUX)
    Blend: AUG-CC-PVQZ-RI
    Number of shells: 80
    Number of basis function: 362
    Number of Cartesian functions: 505
    Spherical Harmonics?: true
    Max angular momentum: 5

	 --------------------------------------------------------
	                 NBF =   169, NAUX =   362
	 --------------------------------------------------------
	   CLASS    FOCC     OCC    AOCC    AVIR     VIR    FVIR
	   PAIRS       0      11      11     158     158       0
	 --------------------------------------------------------

	-----------------------------------------------------------
	 ==================> DF-MP2 Energies <==================== 
	-----------------------------------------------------------
	 Reference Energy          =    -364.3314761953826633 [Eh]
	 Singles Energy            =      -0.0000000000000000 [Eh]
	 Same-Spin Energy          =      -0.1419854075467185 [Eh]
	 Opposite-Spin Energy      =      -0.4137149024358844 [Eh]
	 Correlation Energy        =      -0.5557003099826029 [Eh]
	 Total Energy              =    -364.8871765053652894 [Eh]
	-----------------------------------------------------------
	 ================> DF-SCS-MP2 Energies <================== 
	-----------------------------------------------------------
	 SCS Same-Spin Scale       =       0.4000000000000000 [-]
	 SCS Opposite-Spin Scale   =       0.4700000000000000 [-]
	 SCS Same-Spin Energy      =      -0.0567941630186874 [Eh]
	 SCS Opposite-Spin Energy  =      -0.1944460041448657 [Eh]
	 SCS Correlation Energy    =      -0.2512401671635530 [Eh]
	 SCS Total Energy          =    -364.5827163625461935 [Eh]
	-----------------------------------------------------------



    DSD-BLYP-D3BJ Energy Summary
    ----------------------------
    DFT Reference Energy                  =  -364.3314761953826633
    Scaled MP2 Correlation                =    -0.2512401671635530
    @Final double-hybrid DFT total energy =  -364.5827163625461935


*** tstop() called on bp1-compute00191.data.bp.acrc.priv at Mon Apr 19 15:48:50 2021
Module time:
	user time   =      11.30 seconds =       0.19 minutes
	system time =       0.39 seconds =       0.01 minutes
	total time  =          1 seconds =       0.02 minutes
Total time:
	user time   =     588.88 seconds =       9.81 minutes
	system time =      21.40 seconds =       0.36 minutes
	total time  =         29 seconds =       0.48 minutes

         ----------------------------------------------------------
                                   FINDIF
                     R. A. King and Jonathon Misiewicz
         ---------------------------------------------------------

  Computing second-derivative from energies using projected, 
  symmetry-adapted, cartesian coordinates.

  3 energies passed in, including the reference geometry.
    Using 3-point formula.
    Energy without displacement: -364.5827168251
    Check energies below for precision!
    0: -1 :      -364.5827158425
    0: 1  :      -364.5827163625

-------------------------------------------------------------


  ==> Harmonic Vibrational Analysis <==

  non-mass-weighted Hessian:       Symmetric? True   Hermitian? True   Lin Dep Dim?  5 (0)
  projection of translations (True) and rotations (True) removed 5 degrees of freedom (5)
  total projector:                 Symmetric? True   Hermitian? True   Lin Dep Dim?  5 (5)
  mass-weighted Hessian:           Symmetric? True   Hermitian? True   Lin Dep Dim?  5 (0)
  pre-proj  low-frequency mode:    0.0000  [cm^-1]
  pre-proj  low-frequency mode:    0.0000  [cm^-1]
  pre-proj  low-frequency mode:    0.0000  [cm^-1]
  pre-proj  low-frequency mode:    0.0000  [cm^-1]
  pre-proj  low-frequency mode:    0.0000  [cm^-1]
  pre-proj  all modes:['0.0000' '0.0000' '0.0000' '0.0000' '0.0000' '1235.9120']
  projected mass-weighted Hessian: Symmetric? True   Hermitian? True   Lin Dep Dim?  5 (5)
  post-proj low-frequency mode:    0.0000i [cm^-1] (TR)
  post-proj low-frequency mode:    0.0000  [cm^-1] (TR)
  post-proj low-frequency mode:    0.0000  [cm^-1] (TR)
  post-proj low-frequency mode:    0.0000  [cm^-1] (TR)
  post-proj low-frequency mode:    0.0000  [cm^-1] (TR)
  post-proj  all modes:['0.0000i' '0.0000' '0.0000' '0.0000' '0.0000' '1235.9120']

  Vibration                       6           
  Freq [cm^-1]                1235.9120       
  Irrep                           A1          
  Reduced mass [u]             18.9466        
  Force const [mDyne/A]        17.0513        
  Turning point v=0 [a0]        0.0717        
  RMS dev v=0 [a0 u^1/2]        0.2207        
  Char temp [K]               1778.2022       
  ----------------------------------------------------------------------------------
      1   SI               0.00  0.00 -0.50   
      2   O                0.00  0.00  0.87   

  ==> Thermochemistry Components <==

  Entropy, S
    Electronic S            0.000 [cal/(mol K)]        0.000 [J/(mol K)]       0.00000000 [mEh/K] (multiplicity = 1)
    Translational S        37.269 [cal/(mol K)]      155.933 [J/(mol K)]       0.05939177 [mEh/K] (mol. weight = 43.9718 [u], P = 101325.00 [Pa])
    Rotational S           13.230 [cal/(mol K)]       55.354 [J/(mol K)]       0.02108334 [mEh/K] (symmetry no. = 1)
    Vibrational S           0.036 [cal/(mol K)]        0.149 [J/(mol K)]       0.00005680 [mEh/K]
  Total S                  50.535 [cal/(mol K)]      211.437 [J/(mol K)]       0.08053192 [mEh/K]
  Correction S              0.000 [cal/(mol K)]        0.000 [J/(mol K)]       0.00000000 [mEh/K]

  Constant volume heat capacity, Cv
    Electronic Cv           0.000 [cal/(mol K)]        0.000 [J/(mol K)]       0.00000000 [mEh/K]
    Translational Cv        2.981 [cal/(mol K)]       12.472 [J/(mol K)]       0.00475022 [mEh/K]
    Rotational Cv           1.987 [cal/(mol K)]        8.314 [J/(mol K)]       0.00316681 [mEh/K]
    Vibrational Cv          0.183 [cal/(mol K)]        0.764 [J/(mol K)]       0.00029091 [mEh/K]
  Total Cv                  5.151 [cal/(mol K)]       21.550 [J/(mol K)]       0.00820794 [mEh/K]
  Correction Cv             0.000 [cal/(mol K)]        0.000 [J/(mol K)]       0.00000000 [mEh/K]

  Constant pressure heat capacity, Cp
    Electronic Cp           0.000 [cal/(mol K)]        0.000 [J/(mol K)]       0.00000000 [mEh/K]
    Translational Cp        4.968 [cal/(mol K)]       20.786 [J/(mol K)]       0.00791703 [mEh/K]
    Rotational Cp           1.987 [cal/(mol K)]        8.314 [J/(mol K)]       0.00316681 [mEh/K]
    Vibrational Cp          0.183 [cal/(mol K)]        0.764 [J/(mol K)]       0.00029091 [mEh/K]
  Total Cp                  7.138 [cal/(mol K)]       29.864 [J/(mol K)]       0.01137475 [mEh/K]
  Correction Cp             0.000 [cal/(mol K)]        0.000 [J/(mol K)]       0.00000000 [mEh/K]

  ==> Thermochemistry Energy Analysis <==

  Raw electronic energy, E0
  Total E0, Electronic energy at well bottom at 0 [K]                 -364.58271683 [Eh]

  Zero-point energy, ZPE_vib = Sum_i nu_i / 2
    Electronic ZPE          0.000 [kcal/mol]        0.000 [kJ/mol]       0.00000000 [Eh]
    Translational ZPE       0.000 [kcal/mol]        0.000 [kJ/mol]       0.00000000 [Eh]
    Rotational ZPE          0.000 [kcal/mol]        0.000 [kJ/mol]       0.00000000 [Eh]
    Vibrational ZPE         1.767 [kcal/mol]        7.392 [kJ/mol]       0.00281561 [Eh]         617.956 [cm^-1]
  Correction ZPE            1.767 [kcal/mol]        7.392 [kJ/mol]       0.00281561 [Eh]         617.956 [cm^-1]
  Total ZPE, Electronic energy at 0 [K]                               -364.57990121 [Eh]

  Thermal Energy, E (includes ZPE)
    Electronic E            0.000 [kcal/mol]        0.000 [kJ/mol]       0.00000000 [Eh]
    Translational E         0.889 [kcal/mol]        3.718 [kJ/mol]       0.00141628 [Eh]
    Rotational E            0.592 [kcal/mol]        2.479 [kJ/mol]       0.00094418 [Eh]
    Vibrational E           1.776 [kcal/mol]        7.430 [kJ/mol]       0.00283012 [Eh]
  Correction E              3.257 [kcal/mol]       13.628 [kJ/mol]       0.00519058 [Eh]
  Total E, Electronic energy at  298.15 [K]                           -364.57752624 [Eh]

  Enthalpy, H_trans = E_trans + k_B * T
    Electronic H            0.000 [kcal/mol]        0.000 [kJ/mol]       0.00000000 [Eh]
    Translational H         1.481 [kcal/mol]        6.197 [kJ/mol]       0.00236046 [Eh]
    Rotational H            0.592 [kcal/mol]        2.479 [kJ/mol]       0.00094418 [Eh]
    Vibrational H           1.776 [kcal/mol]        7.430 [kJ/mol]       0.00283012 [Eh]
  Correction H              3.850 [kcal/mol]       16.107 [kJ/mol]       0.00613477 [Eh]
  Total H, Enthalpy at  298.15 [K]                                    -364.57658206 [Eh]

  Gibbs free energy, G = H - T * S
    Electronic G            0.000 [kcal/mol]        0.000 [kJ/mol]       0.00000000 [Eh]
    Translational G        -9.631 [kcal/mol]      -40.294 [kJ/mol]      -0.01534720 [Eh]
    Rotational G           -3.352 [kcal/mol]      -14.025 [kJ/mol]      -0.00534181 [Eh]
    Vibrational G           1.765 [kcal/mol]        7.386 [kJ/mol]       0.00281319 [Eh]
  Correction G            -11.217 [kcal/mol]      -46.933 [kJ/mol]      -0.01787582 [Eh]
  Total G, Free enthalpy at  298.15 [K]                               -364.60059265 [Eh]

    Psi4 stopped on: Monday, 19 April 2021 03:48PM
    Psi4 wall time for execution: 0:00:28.83

*** Psi4 exiting successfully. Buy a developer a beer!
