
                                 *****************
                                 * O   R   C   A *
                                 *****************

           --- An Ab Initio, DFT and Semiempirical electronic structure package ---

                  #######################################################
                  #                        -***-                        #
                  #          Department of theory and spectroscopy      #
                  #               Directorship: Frank Neese             #
                  #        Max Planck Institute fuer Kohlenforschung    #
                  #                Kaiser Wilhelm Platz 1               #
                  #                 D-45470 Muelheim/Ruhr               #
                  #                      Germany                        #
                  #                                                     #
                  #                  All rights reserved                #
                  #                        -***-                        #
                  #######################################################


                         Program Version 4.2.0 -  RELEASE  -


 With contributions from (in alphabetic order):
   Daniel Aravena         : Magnetic Suceptibility
   Michael Atanasov       : Ab Initio Ligand Field Theory (pilot matlab implementation)
   Alexander A. Auer      : GIAO ZORA, VPT2
   Ute Becker             : Parallelization
   Giovanni Bistoni       : ED, misc. LED, open-shell LED, HFLED
   Martin Brehm           : Molecular dynamics
   Dmytro Bykov           : SCF Hessian
   Vijay G. Chilkuri      : MRCI spin determinant printing, contributions to CSF-ICE
   Dipayan Datta          : RHF DLPNO-CCSD density
   Achintya Kumar Dutta   : EOM-CC, STEOM-CC
   Dmitry Ganyushin       : Spin-Orbit,Spin-Spin,Magnetic field MRCI
   Miquel Garcia          : C-PCM Hessian, Gaussian charge scheme
   Yang Guo               : DLPNO-NEVPT2, CIM, IAO-localization
   Andreas Hansen         : Spin unrestricted coupled pair/coupled cluster methods
   Benjamin Helmich-Paris : CASSCF linear response (MC-RPA)
   Lee Huntington         : MR-EOM, pCC
   Robert Izsak           : Overlap fitted RIJCOSX, COSX-SCS-MP3, EOM
   Christian Kollmar      : KDIIS, OOCD, Brueckner-CCSD(T), CCSD density
   Simone Kossmann        : Meta GGA functionals, TD-DFT gradient, OOMP2, MP2 Hessian
   Martin Krupicka        : AUTO-CI
   Lucas Lang             : DCDCAS
   Dagmar Lenk            : GEPOL surface, SMD
   Dimitrios Liakos       : Extrapolation schemes; Compound Job, initial MDCI parallelization
   Dimitrios Manganas     : Further ROCIS development; embedding schemes
   Dimitrios Pantazis     : SARC Basis sets
   Taras Petrenko         : DFT Hessian,TD-DFT gradient, ASA, ECA, R-Raman, ABS, FL, XAS/XES, NRVS
   Peter Pinski           : DLPNO-MP2, DLPNO-MP2 Gradient
   Christoph Reimann      : Effective Core Potentials
   Marius Retegan         : Local ZFS, SOC
   Christoph Riplinger    : Optimizer, TS searches, QM/MM, DLPNO-CCSD(T), (RO)-DLPNO pert. Triples
   Tobias Risthaus        : Range-separated hybrids, TD-DFT gradient, RPA, STAB
   Michael Roemelt        : Original ROCIS implementation
   Masaaki Saitow         : Open-shell DLPNO-CCSD energy and density
   Barbara Sandhoefer     : DKH picture change effects
   Avijit Sen             : IP-ROCIS
   Kantharuban Sivalingam : CASSCF convergence, NEVPT2, FIC-MRCI
   Bernardo de Souza      : ESD, SOC TD-DFT
   Georgi Stoychev        : AutoAux, RI-MP2 NMR
   Willem Van den Heuvel  : Paramagnetic NMR
   Boris Wezisla          : Elementary symmetry handling
   Frank Wennmohs         : Technical directorship


 We gratefully acknowledge several colleagues who have allowed us to
 interface, adapt or use parts of their codes:
   Stefan Grimme, W. Hujo, H. Kruse,             : VdW corrections, initial TS optimization,
                  C. Bannwarth                     DFT functionals, gCP, sTDA/sTD-DF
   Ed Valeev, F. Pavosevic, A. Kumar             : LibInt (2-el integral package), F12 methods
   Garnet Chan, S. Sharma, J. Yang, R. Olivares  : DMRG
   Ulf Ekstrom                                   : XCFun DFT Library
   Mihaly Kallay                                 : mrcc  (arbitrary order and MRCC methods)
   Andreas Klamt, Michael Diedenhofen            : otool_cosmo (COSMO solvation model)
   Jiri Pittner, Ondrej Demel                    : Mk-CCSD
   Frank Weinhold                                : gennbo (NPA and NBO analysis)
   Christopher J. Cramer and Donald G. Truhlar   : smd solvation model
   Lars Goerigk                                  : TD-DFT with DH, B97 family of functionals
   V. Asgeirsson, H. Jonsson                     : NEB implementation
   FAccTs GmbH                                   : IRC, NEB, NEB-TS, Multilevel, MM, QM/MM, CI optimization
   S Lehtola, MJT Oliveira, MAL Marques          : LibXC Library


 Your calculation uses the libint2 library for the computation of 2-el integrals
 For citations please refer to: http://libint.valeyev.net

 Your ORCA version has been built with support for libXC version: 4.2.3
 For citations please refer to: https://tddft.org/programs/libxc/

 This ORCA versions uses:
   CBLAS   interface :  Fast vector & matrix operations
   LAPACKE interface :  Fast linear algebra routines
   SCALAPACK package :  Parallel linear algebra routines


Your calculation utilizes the atom-pairwise dispersion correction
with the Becke-Johnson damping scheme (D3BJ)
Cite in your paper:
S.Grimme, S.Ehrlich, L.Goerigk, J Comput Chem, (2011), 32, 1456–1465 
S.Grimme, J.Antony, S.Ehrlich and H.Krieg, J.Chem.Phys., 132, (2010), 154104 
   

----- Orbital basis set information -----
Your calculation utilizes the basis: aug-cc-pV(T+d)Z 
             Al - Ar: T.H. Dunning, Jr., K. A. Peterson and A. K. Wilson, J. Chem. Phys.
                      114, 9244 (2001)

----- AuxJ basis set information -----
Your calculation utilizes the auxiliary basis: def2/J
   F. Weigend, Phys. Chem. Chem. Phys. 8, 1057 (2006).

================================================================================
                                        WARNINGS
                       Please study these warnings very carefully!
================================================================================


WARNING: Geometry Optimization
  ===> : Switching off AutoStart
         For restart on a previous wavefunction, please use MOREAD

WARNING: The SCAN functional is very grid-sensitive!
         Use at least GRID5 and a higher intacc

INFO   : the flag for use of LIBINT has been found!

================================================================================
                                       INPUT FILE
================================================================================
NAME = 10_CO2.in
|  1> #
|  2> # 10_CO2 scanfunc/aug-cc-pvt(+d)z
|  3> #
|  4> ! scanfunc d3bj aug-cc-pvt(+d)z def2/j opt xyzfile numfreq
|  5> 
|  6> *xyz 0 1
|  7> O           -1.161057866         -0.000000006         -0.000000007
|  8> O            1.161057864          0.000000007          0.000000007
|  9> C            0.000000003         -0.000000000         -0.000000000
| 10> *
| 11> 
| 12> %pal
| 13> nprocs 24
| 14> end
| 15> 
| 16> 
| 17>                          ****END OF INPUT****
================================================================================

                       *****************************
                       * Geometry Optimization Run *
                       *****************************

Geometry optimization settings:
Update method            Update   .... BFGS
Choice of coordinates    CoordSys .... Z-matrix Internals
Initial Hessian          InHess   .... Almoef's Model

Convergence Tolerances:
Energy Change            TolE     ....  5.0000e-06 Eh
Max. Gradient            TolMAXG  ....  3.0000e-04 Eh/bohr
RMS Gradient             TolRMSG  ....  1.0000e-04 Eh/bohr
Max. Displacement        TolMAXD  ....  4.0000e-03 bohr
RMS Displacement         TolRMSD  ....  2.0000e-03 bohr
Strict Convergence                ....  False
------------------------------------------------------------------------------
                        ORCA OPTIMIZATION COORDINATE SETUP
------------------------------------------------------------------------------

The optimization will be done in new redundant internal coordinates
Making redundant internal coordinates   ...  (new redundants) done
Evaluating the initial hessian          ...  (Almloef) done
Evaluating the coordinates              ...  done
Calculating the B-matrix                .... done
Calculating the G-matrix                .... done
Diagonalizing the G-matrix              .... done
The first mode is                       ....    0
The number of degrees of freedom        ....    4

    -----------------------------------------------------------------
                    Redundant Internal Coordinates


    -----------------------------------------------------------------
         Definition                    Initial Value    Approx d2E/dq
    -----------------------------------------------------------------
      1. B(C   2,O   1)                  1.1611         1.297592   
      2. B(C   2,O   0)                  1.1611         1.297592   
      3. L(O   0,C   2,O   1, 2)       180.0000         0.563154   
      4. L(O   0,C   2,O   1, 1)       180.0000         0.563154   
    -----------------------------------------------------------------

Number of atoms                         .... 3
Number of degrees of freedom            .... 4

         *************************************************************
         *                GEOMETRY OPTIMIZATION CYCLE   1            *
         *************************************************************
---------------------------------
CARTESIAN COORDINATES (ANGSTROEM)
---------------------------------
  O     -1.161058   -0.000000   -0.000000
  O      1.161058    0.000000    0.000000
  C      0.000000   -0.000000   -0.000000

----------------------------
CARTESIAN COORDINATES (A.U.)
----------------------------
  NO LB      ZA    FRAG     MASS         X           Y           Z
   0 O     8.0000    0    15.999   -2.194081   -0.000000   -0.000000
   1 O     8.0000    0    15.999    2.194081    0.000000    0.000000
   2 C     6.0000    0    12.011    0.000000   -0.000000   -0.000000

--------------------------------
INTERNAL COORDINATES (ANGSTROEM)
--------------------------------
 O      0   0   0     0.000000000000     0.00000000     0.00000000
 O      1   0   0     2.322115730000     0.00000000     0.00000000
 C      2   1   0     1.161057861000     0.00000000     0.00000000

---------------------------
INTERNAL COORDINATES (A.U.)
---------------------------
 O      0   0   0     0.000000000000     0.00000000     0.00000000
 O      1   0   0     4.388162780971     0.00000000     0.00000000
 C      2   1   0     2.194081382926     0.00000000     0.00000000

---------------------
BASIS SET INFORMATION
---------------------
There are 2 groups of distinct atoms

 Group   1 Type O   : 19s6p3d2f contracted to 5s4p3d2f pattern {88111/3111/111/11}
 Group   2 Type C   : 19s6p3d2f contracted to 5s4p3d2f pattern {88111/3111/111/11}

Atom   0O    basis set group =>   1
Atom   1O    basis set group =>   1
Atom   2C    basis set group =>   2
---------------------------------
AUXILIARY/J BASIS SET INFORMATION
---------------------------------
There are 2 groups of distinct atoms

 Group   1 Type O   : 12s5p4d2f1g contracted to 6s4p3d1f1g pattern {711111/2111/211/2/1}
 Group   2 Type C   : 12s5p4d2f1g contracted to 6s4p3d1f1g pattern {711111/2111/211/2/1}

Atom   0O    basis set group =>   1
Atom   1O    basis set group =>   1
Atom   2C    basis set group =>   2


           ************************************************************
           *        Program running with 24 parallel MPI-processes    *
           *              working on a common directory               *
           ************************************************************
------------------------------------------------------------------------------
                           ORCA GTO INTEGRAL CALCULATION
                           -- RI-GTO INTEGRALS CHOSEN --
------------------------------------------------------------------------------

                         BASIS SET STATISTICS AND STARTUP INFO

Gaussian basis set:
 # of primitive gaussian shells          ...   90
 # of primitive gaussian functions       ...  198
 # of contracted shells                  ...   42
 # of contracted basis functions         ...  138
 Highest angular momentum                ...    3
 Maximum contraction depth               ...    8
Auxiliary gaussian basis set:
 # of primitive gaussian shells          ...   72
 # of primitive gaussian functions       ...  210
 # of contracted shells                  ...   45
 # of contracted aux-basis functions     ...  147
 Highest angular momentum                ...    4
 Maximum contraction depth               ...    7
Ratio of auxiliary to basis functions    ...  1.07
Integral package used                  ... LIBINT
 One Electron integrals                  ... done
 Ordering auxiliary basis shells         ... done
 Integral threshhold             Thresh  ...  2.500e-11
 Primitive cut-off               TCut    ...  2.500e-12
 Pre-screening matrix                    ... done
 Shell pair data                         ... 
 Ordering of the shell pairs             ... done (   0.000 sec) 903 of 903 pairs
 Determination of significant pairs      ... done (   0.000 sec)
 Creation of shell pair data             ... done (   0.000 sec)
 Storage of shell pair data              ... done (   0.000 sec)
 Shell pair data done in (   0.001 sec)
 Computing two index integrals           ... done
 Cholesky decomposition of the V-matrix  ... done


Timings:
 Total evaluation time                   ...   0.166 sec (  0.003 min)
 One electron matrix time                ...   0.012 sec (  0.000 min) =  7.2%
 Schwartz matrix evaluation time         ...   0.130 sec (  0.002 min) = 78.2%
 Two index repulsion integral time       ...   0.001 sec (  0.000 min) =  0.3%
 Cholesky decomposition of V             ...   0.001 sec (  0.000 min) =  0.5%
 Three index repulsion integral time     ...   0.000 sec (  0.000 min) =  0.0%



           ************************************************************
           *        Program running with 24 parallel MPI-processes    *
           *              working on a common directory               *
           ************************************************************
-------------------------------------------------------------------------------
                                 ORCA SCF
-------------------------------------------------------------------------------

------------
SCF SETTINGS
------------
Hamiltonian:
 Density Functional     Method          .... DFT(GTOs)
 Exchange Functional    Exchange        .... SCAN
 Correlation Functional Correlation     .... SCAN
 Gradients option       PostSCFGGA      .... off
   Density functional embedding theory  .... OFF
   NL short-range parameter             ....  6.400000
 RI-approximation to the Coulomb term is turned on
   Number of auxiliary basis functions  .... 147


General Settings:
 Integral files         IntName         .... 10_CO2
 Hartree-Fock type      HFTyp           .... RHF
 Total Charge           Charge          ....    0
 Multiplicity           Mult            ....    1
 Number of Electrons    NEL             ....   22
 Basis Dimension        Dim             ....  138
 Nuclear Repulsion      ENuc            ....     58.3387656242 Eh

Convergence Acceleration:
 DIIS                   CNVDIIS         .... on
   Start iteration      DIISMaxIt       ....    12
   Startup error        DIISStart       ....  0.200000
   # of expansion vecs  DIISMaxEq       ....     5
   Bias factor          DIISBfac        ....   1.050
   Max. coefficient     DIISMaxC        ....  10.000
 Newton-Raphson         CNVNR           .... off
 SOSCF                  CNVSOSCF        .... on
   Start iteration      SOSCFMaxIt      ....   150
   Startup grad/error   SOSCFStart      ....  0.003300
 Level Shifting         CNVShift        .... on
   Level shift para.    LevelShift      ....    0.2500
   Turn off err/grad.   ShiftErr        ....    0.0010
 Zerner damping         CNVZerner       .... off
 Static damping         CNVDamp         .... on
   Fraction old density DampFac         ....    0.7000
   Max. Damping (<1)    DampMax         ....    0.9800
   Min. Damping (>=0)   DampMin         ....    0.0000
   Turn off err/grad.   DampErr         ....    0.1000
 Fernandez-Rico         CNVRico         .... off

SCF Procedure:
 Maximum # iterations   MaxIter         ....   125
 SCF integral mode      SCFMode         .... Direct
   Integral package                     .... LIBINT
 Reset frequency        DirectResetFreq ....    20
 Integral Threshold     Thresh          ....  2.500e-11 Eh
 Primitive CutOff       TCut            ....  2.500e-12 Eh

Convergence Tolerance:
 Convergence Check Mode ConvCheckMode   .... Total+1el-Energy
 Convergence forced     ConvForced      .... 0
 Energy Change          TolE            ....  1.000e-08 Eh
 1-El. energy change                    ....  1.000e-05 Eh
 Orbital Gradient       TolG            ....  1.000e-05
 Orbital Rotation angle TolX            ....  1.000e-05
 DIIS Error             TolErr          ....  5.000e-07


Diagonalization of the overlap matrix:
Smallest eigenvalue                        ... 3.511e-04
Time for diagonalization                   ...    0.005 sec
Threshold for overlap eigenvalues          ... 1.000e-08
Number of eigenvalues below threshold      ... 0
Time for construction of square roots      ...    0.002 sec
Total time needed                          ...    0.008 sec

-------------------
DFT GRID GENERATION
-------------------

General Integration Accuracy     IntAcc      ...  4.340
Radial Grid Type                 RadialGrid  ... Gauss-Chebyshev
Angular Grid (max. acc.)         AngularGrid ... Lebedev-110
Angular grid pruning method      GridPruning ... 3 (G Style)
Weight generation scheme         WeightScheme... Becke
Basis function cutoff            BFCut       ...    1.0000e-11
Integration weight cutoff        WCut        ...    1.0000e-14
Grids for H and He will be reduced by one unit

# of grid points (after initial pruning)     ...   5088 (   0.0 sec)
# of grid points (after weights+screening)   ...   5034 (   0.0 sec)
nearest neighbour list constructed           ...    0.0 sec
Grid point re-assignment to atoms done       ...    0.0 sec
Grid point division into batches done        ...    0.0 sec
Reduced shell lists constructed in    0.0 sec

Total number of grid points                  ...     5034
Total number of batches                      ...       81
Average number of points per batch           ...       62
Average number of grid points per atom       ...     1678
Average number of shells per batch           ...    20.40 (48.57%)
Average number of basis functions per batch  ...    66.00 (47.83%)
Average number of large shells per batch     ...    15.60 (76.47%)
Average number of large basis fcns per batch ...    49.60 (75.15%)
Maximum spatial batch extension              ...  12.41, 19.31, 19.31 au
Average spatial batch extension              ...   0.55,  0.81,  0.87 au

Time for grid setup =    0.016 sec

------------------------------
INITIAL GUESS: MODEL POTENTIAL
------------------------------
Loading Hartree-Fock densities                     ... done
Calculating cut-offs                               ... done
Setting up the integral package                    ... done
Initializing the effective Hamiltonian             ... done
Starting the Coulomb interaction                   ... done (   0.0 sec)
Reading the grid                                   ... done
Mapping shells                                     ... done
Starting the XC term evaluation                    ... done (   0.0 sec)
  promolecular density results
     # of electrons  =     22.000117319
     EX              =    -23.573808063
     EC              =     -0.360801389
     EX+EC           =    -23.934609452
Transforming the Hamiltonian                       ... done (   0.0 sec)
Diagonalizing the Hamiltonian                      ... done (   0.0 sec)
Back transforming the eigenvectors                 ... done (   0.0 sec)
Now organizing SCF variables                       ... done
                      ------------------
                      INITIAL GUESS DONE (   0.1 sec)
                      ------------------
--------------
SCF ITERATIONS
--------------
ITER       Energy         Delta-E        Max-DP      RMS-DP      [F,P]     Damp
               ***  Starting incremental Fock matrix formation  ***
  0   -188.2889129955   0.000000000000 0.05671431  0.00171213  0.4513587 0.7000
  1   -188.4465664584  -0.157653462917 0.02541127  0.00085432  0.1813965 0.7000
                               ***Turning on DIIS***
  2   -188.4908694802  -0.044303021746 0.02763606  0.00109497  0.0526778 0.0000
  3   -188.5893698667  -0.098500386583 0.01694441  0.00063580  0.0780603 0.0000
  4   -188.5981291119  -0.008759245197 0.01080458  0.00020997  0.0288348 0.0000
  5   -188.5999633391  -0.001834227138 0.00188426  0.00004510  0.0045415 0.0000
                      *** Initiating the SOSCF procedure ***
                           *** Shutting down DIIS ***
                      *** Re-Reading the Fockian *** 
                      *** Removing any level shift *** 
ITER      Energy       Delta-E        Grad      Rot      Max-DP    RMS-DP
  6   -188.60002228  -0.0000589427  0.000321  0.000321  0.000676  0.000014
               *** Restarting incremental Fock matrix formation ***
  7   -188.60002541  -0.0000031318  0.000202  0.000413  0.000215  0.000008
  8   -188.60002504   0.0000003757  0.000344  0.000220  0.000145  0.000004
  9   -188.60002564  -0.0000006016  0.000008  0.000012  0.000025  0.000001
 10   -188.60002564  -0.0000000023  0.000003  0.000002  0.000004  0.000000
                  ***Gradient check signals convergence***
              ***Rediagonalizing the Fockian in SOSCF/NRSCF***

               *****************************************************
               *                     SUCCESS                       *
               *           SCF CONVERGED AFTER  11 CYCLES          *
               *****************************************************

Setting up the final grid:

General Integration Accuracy     IntAcc      ...  4.670
Radial Grid Type                 RadialGrid  ... Gauss-Chebyshev
Angular Grid (max. acc.)         AngularGrid ... Lebedev-302
Angular grid pruning method      GridPruning ... 3 (G Style)
Weight generation scheme         WeightScheme... Becke
Basis function cutoff            BFCut       ...    1.0000e-11
Integration weight cutoff        WCut        ...    1.0000e-14
Grids for H and He will be reduced by one unit

# of grid points (after initial pruning)     ...  18636 (   0.0 sec)
# of grid points (after weights+screening)   ...  18438 (   0.0 sec)
nearest neighbour list constructed           ...    0.0 sec
Grid point re-assignment to atoms done       ...    0.0 sec
Grid point division into batches done        ...    0.1 sec
Reduced shell lists constructed in    0.1 sec

Total number of grid points                  ...    18438
Total number of batches                      ...      289
Average number of points per batch           ...       63
Average number of grid points per atom       ...     6146
Average number of shells per batch           ...    10.93 (26.02%)
Average number of basis functions per batch  ...    30.36 (22.00%)
Average number of large shells per batch     ...     6.93 (63.40%)
Average number of large basis fcns per batch ...    17.07 (56.24%)
Maximum spatial batch extension              ...  12.96, 16.88, 16.05 au
Average spatial batch extension              ...   0.45,  0.66,  0.64 au

Final grid set up in    0.1 sec
Final integration                            ... done (   0.0 sec)
Change in XC energy                          ...     0.012071106
Integrated number of electrons               ...    21.999989888
Previous integrated no of electrons          ...    22.000019816

----------------
TOTAL SCF ENERGY
----------------

Total Energy       :         -188.58795453 Eh           -5131.73914 eV

Components:
Nuclear Repulsion  :           58.33876562 Eh            1587.47852 eV
Electronic Energy  :         -246.92672016 Eh           -6719.21765 eV
One Electron Energy:         -372.78039017 Eh          -10143.87012 eV
Two Electron Energy:          125.85367001 Eh            3424.65247 eV

Virial components:
Potential Energy   :         -376.10504859 Eh          -10234.33868 eV
Kinetic Energy     :          187.51709406 Eh            5102.59954 eV
Virial Ratio       :            2.00571074


DFT components:
N(Alpha)           :       10.999994944060 electrons
N(Beta)            :       10.999994944060 electrons
N(Total)           :       21.999989888120 electrons
E(X)               :      -21.745678173008 Eh       
E(C)               :       -0.736146059089 Eh       
E(XC)              :      -22.481824232097 Eh       
DFET-embed. en.    :        0.000000000000 Eh       

---------------
SCF CONVERGENCE
---------------

  Last Energy change         ...    2.1874e-09  Tolerance :   1.0000e-08
  Last MAX-Density change    ...    1.6468e-06  Tolerance :   1.0000e-07
  Last RMS-Density change    ...    4.8352e-08  Tolerance :   5.0000e-09
  Last Orbital Gradient      ...    7.4296e-07  Tolerance :   1.0000e-05
  Last Orbital Rotation      ...    5.0050e-07  Tolerance :   1.0000e-05

             **** THE GBW FILE WAS UPDATED (10_CO2.gbw) ****
             **** DENSITY FILE WAS UPDATED (10_CO2.scfp) ****
             **** ENERGY FILE WAS UPDATED (10_CO2.en.tmp) ****
             **** THE GBW FILE WAS UPDATED (10_CO2.gbw) ****
             **** DENSITY FILE WAS UPDATED (10_CO2.scfp) ****
----------------
ORBITAL ENERGIES
----------------

  NO   OCC          E(Eh)            E(eV) 
   0   2.0000     -19.062570      -518.7189 
   1   2.0000     -19.062551      -518.7184 
   2   2.0000     -10.216414      -278.0028 
   3   2.0000      -1.136924       -30.9373 
   4   2.0000      -1.100205       -29.9381 
   5   2.0000      -0.528410       -14.3788 
   6   2.0000      -0.485785       -13.2189 
   7   2.0000      -0.485785       -13.2189 
   8   2.0000      -0.485423       -13.2090 
   9   2.0000      -0.348356        -9.4792 
  10   2.0000      -0.348356        -9.4792 
  11   0.0000      -0.011299        -0.3075 
  12   0.0000       0.003047         0.0829 
  13   0.0000       0.003047         0.0829 
  14   0.0000       0.054531         1.4839 
  15   0.0000       0.054531         1.4839 
  16   0.0000       0.059307         1.6138 
  17   0.0000       0.105550         2.8722 
  18   0.0000       0.138073         3.7572 
  19   0.0000       0.138073         3.7572 
  20   0.0000       0.140490         3.8229 
  21   0.0000       0.198960         5.4140 
  22   0.0000       0.203843         5.5469 
  23   0.0000       0.203843         5.5469 
  24   0.0000       0.210332         5.7234 
  25   0.0000       0.211349         5.7511 
  26   0.0000       0.244525         6.6539 
  27   0.0000       0.291549         7.9334 
  28   0.0000       0.368908        10.0385 
  29   0.0000       0.368908        10.0385 
  30   0.0000       0.415243        11.2993 
  31   0.0000       0.415243        11.2993 
  32   0.0000       0.433389        11.7931 
  33   0.0000       0.507317        13.8048 
  34   0.0000       0.552604        15.0371 
  35   0.0000       0.553158        15.0522 
  36   0.0000       0.596214        16.2238 
  37   0.0000       0.657190        17.8830 
  38   0.0000       0.658159        17.9094 
  39   0.0000       0.686615        18.6837 
  40   0.0000       0.686615        18.6837 
  41   0.0000       0.738502        20.0957 
  42   0.0000       0.751136        20.4395 
  43   0.0000       0.751136        20.4395 
  44   0.0000       0.816492        22.2179 
  45   0.0000       0.925240        25.1771 
  46   0.0000       0.925240        25.1771 
  47   0.0000       0.938428        25.5359 
  48   0.0000       0.939653        25.5693 
  49   0.0000       0.944088        25.6900 
  50   0.0000       0.962548        26.1923 
  51   0.0000       0.962548        26.1923 
  52   0.0000       1.016508        27.6606 
  53   0.0000       1.054670        28.6990 
  54   0.0000       1.054670        28.6990 
  55   0.0000       1.222206        33.2579 
  56   0.0000       1.225790        33.3554 
  57   0.0000       1.227936        33.4138 
  58   0.0000       1.315349        35.7925 
  59   0.0000       1.315349        35.7925 
  60   0.0000       1.340344        36.4726 
  61   0.0000       1.462149        39.7871 
  62   0.0000       1.462149        39.7871 
  63   0.0000       1.607402        43.7396 
  64   0.0000       1.871417        50.9238 
  65   0.0000       1.871417        50.9238 
  66   0.0000       1.971111        53.6366 
  67   0.0000       1.972010        53.6611 
  68   0.0000       2.010882        54.7189 
  69   0.0000       2.011628        54.7392 
  70   0.0000       2.090249        56.8786 
  71   0.0000       2.090249        56.8786 
  72   0.0000       2.136515        58.1375 
  73   0.0000       2.136515        58.1375 
  74   0.0000       2.144637        58.3585 
  75   0.0000       2.220105        60.4121 
  76   0.0000       2.279135        62.0184 
  77   0.0000       2.319772        63.1242 
  78   0.0000       2.319772        63.1242 
  79   0.0000       2.356348        64.1195 
  80   0.0000       2.475866        67.3717 
  81   0.0000       2.477428        67.4142 
  82   0.0000       2.629681        71.5573 
  83   0.0000       2.630537        71.5805 
  84   0.0000       2.689719        73.1910 
  85   0.0000       2.689719        73.1910 
  86   0.0000       2.714870        73.8754 
  87   0.0000       2.714870        73.8754 
  88   0.0000       2.738985        74.5316 
  89   0.0000       2.890410        78.6521 
  90   0.0000       2.890410        78.6521 
  91   0.0000       3.076656        83.7201 
  92   0.0000       3.077283        83.7371 
  93   0.0000       3.138590        85.4054 
  94   0.0000       3.138590        85.4054 
  95   0.0000       3.478391        94.6518 
  96   0.0000       3.621091        98.5349 
  97   0.0000       3.633497        98.8725 
  98   0.0000       3.633497        98.8725 
  99   0.0000       3.787430       103.0612 
 100   0.0000       3.791035       103.1593 
 101   0.0000       3.819933       103.9457 
 102   0.0000       3.819933       103.9457 
 103   0.0000       4.233077       115.1879 
 104   0.0000       4.594337       125.0183 
 105   0.0000       4.594337       125.0183 
 106   0.0000       4.925386       134.0266 
 107   0.0000       5.150388       140.1492 
 108   0.0000       5.448106       148.2505 
 109   0.0000       5.448106       148.2505 
 110   0.0000       5.464190       148.6882 
 111   0.0000       6.163795       167.7254 
 112   0.0000       6.163795       167.7254 
 113   0.0000       6.287405       171.0890 
 114   0.0000       6.287405       171.0890 
 115   0.0000       6.414362       174.5437 
 116   0.0000       6.422459       174.7640 
 117   0.0000       6.595809       179.4811 
 118   0.0000       6.604844       179.7269 
 119   0.0000       6.649832       180.9511 
 120   0.0000       6.653664       181.0554 
 121   0.0000       6.858815       186.6378 
 122   0.0000       6.862229       186.7307 
 123   0.0000       6.862229       186.7307 
 124   0.0000       6.864166       186.7835 
 125   0.0000       6.892333       187.5499 
 126   0.0000       6.908629       187.9933 
 127   0.0000       6.908629       187.9933 
 128   0.0000       7.016922       190.9402 
 129   0.0000       7.178016       195.3237 
 130   0.0000       7.361993       200.3300 
 131   0.0000       7.361993       200.3300 
 132   0.0000       7.657918       208.3825 
 133   0.0000       7.860392       213.8921 
 134   0.0000       7.860392       213.8921 
 135   0.0000      13.480381       366.8198 
 136   0.0000      15.547315       423.0640 
 137   0.0000      20.644805       561.7737 

                    ********************************
                    * MULLIKEN POPULATION ANALYSIS *
                    ********************************

-----------------------
MULLIKEN ATOMIC CHARGES
-----------------------
   0 O :   -0.214886
   1 O :   -0.214886
   2 C :    0.429772
Sum of atomic charges:   -0.0000000

--------------------------------
MULLIKEN REDUCED ORBITAL CHARGES
--------------------------------
  0 O s       :     3.868352  s :     3.868352
      pz      :     1.535201  p :     4.320565
      px      :     1.250164
      py      :     1.535201
      dz2     :     0.000644  d :     0.026218
      dxz     :     0.011822
      dyz     :     0.000000
      dx2y2   :     0.001931
      dxy     :     0.011822
      f0      :     0.000160  f :    -0.000249
      f+1     :    -0.000443
      f-1     :     0.000036
      f+2     :     0.000306
      f-2     :     0.000000
      f+3     :    -0.000738
      f-3     :     0.000430
  1 O s       :     3.868352  s :     3.868352
      pz      :     1.535201  p :     4.320565
      px      :     1.250164
      py      :     1.535201
      dz2     :     0.000644  d :     0.026218
      dxz     :     0.011822
      dyz     :     0.000000
      dx2y2   :     0.001931
      dxy     :     0.011822
      f0      :     0.000160  f :    -0.000249
      f+1     :    -0.000443
      f-1     :     0.000036
      f+2     :     0.000306
      f-2     :     0.000000
      f+3     :    -0.000738
      f-3     :     0.000430
  2 C s       :     3.112682  s :     3.112682
      pz      :     0.793155  p :     2.187191
      px      :     0.600880
      py      :     0.793155
      dz2     :     0.008367  d :     0.220579
      dxz     :     0.093555
      dyz     :     0.000000
      dx2y2   :     0.025102
      dxy     :     0.093555
      f0      :     0.006855  f :     0.049776
      f+1     :     0.004931
      f-1     :     0.001151
      f+2     :     0.011459
      f-2     :     0.000000
      f+3     :     0.008219
      f-3     :     0.017162


                     *******************************
                     * LOEWDIN POPULATION ANALYSIS *
                     *******************************

----------------------
LOEWDIN ATOMIC CHARGES
----------------------
   0 O :    0.367881
   1 O :    0.367881
   2 C :   -0.735763

-------------------------------
LOEWDIN REDUCED ORBITAL CHARGES
-------------------------------
  0 O s       :     3.268944  s :     3.268944
      pz      :     1.324351  p :     4.078543
      px      :     1.429841
      py      :     1.324351
      dz2     :     0.022166  d :     0.205471
      dxz     :     0.058403
      dyz     :     0.000000
      dx2y2   :     0.066499
      dxy     :     0.058403
      f0      :     0.009191  f :     0.079160
      f+1     :     0.011277
      f-1     :     0.001541
      f+2     :     0.015354
      f-2     :     0.000000
      f+3     :     0.018794
      f-3     :     0.023004
  1 O s       :     3.268944  s :     3.268944
      pz      :     1.324351  p :     4.078543
      px      :     1.429841
      py      :     1.324351
      dz2     :     0.022166  d :     0.205471
      dxz     :     0.058403
      dyz     :     0.000000
      dx2y2   :     0.066499
      dxy     :     0.058403
      f0      :     0.009191  f :     0.079160
      f+1     :     0.011277
      f-1     :     0.001541
      f+2     :     0.015354
      f-2     :     0.000000
      f+3     :     0.018794
      f-3     :     0.023004
  2 C s       :     2.605753  s :     2.605753
      pz      :     0.651033  p :     2.428973
      px      :     1.126908
      py      :     0.651033
      dz2     :     0.107009  d :     1.255189
      dxz     :     0.413576
      dyz     :     0.000000
      dx2y2   :     0.321028
      dxy     :     0.413576
      f0      :     0.045271  f :     0.445847
      f+1     :     0.076597
      f-1     :     0.007563
      f+2     :     0.075523
      f-2     :     0.000000
      f+3     :     0.127662
      f-3     :     0.113231


                      *****************************
                      * MAYER POPULATION ANALYSIS *
                      *****************************

  NA   - Mulliken gross atomic population
  ZA   - Total nuclear charge
  QA   - Mulliken gross atomic charge
  VA   - Mayer's total valence
  BVA  - Mayer's bonded valence
  FA   - Mayer's free valence

  ATOM       NA         ZA         QA         VA         BVA        FA
  0 O      8.2149     8.0000    -0.2149     2.0875     2.0875     0.0000
  1 O      8.2149     8.0000    -0.2149     2.0875     2.0875    -0.0000
  2 C      5.5702     6.0000     0.4298     3.9807     3.9807    -0.0000

  Mayer bond orders larger than 0.100000
B(  0-O ,  2-C ) :   1.9903 B(  1-O ,  2-C ) :   1.9903 

-------
TIMINGS
-------

Total SCF time: 0 days 0 hours 0 min 1 sec 

Total time                  ....       1.547 sec
Sum of individual times     ....       1.436 sec  ( 92.8%)

Fock matrix formation       ....       1.176 sec  ( 76.0%)
  Split-RI-J                ....       0.958 sec  ( 81.5% of F)
  XC integration            ....       0.149 sec  ( 12.6% of F)
    Basis function eval.    ....       0.013 sec  (  8.7% of XC)
    Density eval.           ....       0.021 sec  ( 14.4% of XC)
    XC-Functional eval.     ....       0.005 sec  (  3.6% of XC)
    XC-Potential eval.      ....       0.049 sec  ( 33.1% of XC)
Diagonalization             ....       0.018 sec  (  1.1%)
Density matrix formation    ....       0.004 sec  (  0.3%)
Population analysis         ....       0.004 sec  (  0.2%)
Initial guess               ....       0.111 sec  (  7.2%)
Orbital Transformation      ....       0.000 sec  (  0.0%)
Orbital Orthonormalization  ....       0.000 sec  (  0.0%)
DIIS solution               ....       0.006 sec  (  0.4%)
SOSCF solution              ....       0.007 sec  (  0.4%)
Grid generation             ....       0.111 sec  (  7.1%)


-------------------------------------------------------------------------------
                          DFT DISPERSION CORRECTION                            
                                                                               
                              DFTD3 V3.1  Rev 1                                
                          USING Becke-Johnson damping                          
-------------------------------------------------------------------------------
The SCAN functional is recognized
Active option DFTDOPT                   ...         4   

molecular C6(AA) [au] = 156.409964 


            DFT-D V3
 parameters
 s6 scaling factor         :     1.0000 
 a1 scaling factor         :     0.5380 
 s8 scaling factor         :     0.0000 
 a2 scaling factor         :     5.4200 
 ad hoc parameters k1-k3   :    16.0000     1.3333    -4.0000 

 Edisp/kcal,au: -0.119971510971  -0.000191186752 
 E6   /kcal   :  -0.119971511 
 E8   /kcal   :  -0.000000000 
 % E8         :   0.000000000 

-------------------------   ----------------
Dispersion correction           -0.000191187
-------------------------   ----------------


-------------------------   --------------------
FINAL SINGLE POINT ENERGY      -188.588145720672
-------------------------   --------------------



           ************************************************************
           *        Program running with 24 parallel MPI-processes    *
           *              working on a common directory               *
           ************************************************************
------------------------------------------------------------------------------
                         ORCA SCF GRADIENT CALCULATION
------------------------------------------------------------------------------

Gradient of the Kohn-Sham DFT energy:
Kohn-Sham wavefunction type      ... RKS
Hartree-Fock exchange scaling    ...    0.000
Number of operators              ...    1
Number of atoms                  ...    3
Basis set dimensions             ...  138
Integral neglect threshold       ... 2.5e-11
Integral primitive cutoff        ... 2.5e-12

Nuclear repulsion gradient       ... done
One Electron Gradient            ... done
Pre-screening matrix             ... done
RI-J gradient                    ... done
Exchange-correlation gradient    ... done
Dispersion correction            ... done

------------------
CARTESIAN GRADIENT
------------------

   1   O   :   -0.100909338   -0.000000007    0.000000001
   2   O   :    0.100909319    0.000000008    0.000000008
   3   C   :    0.000000010   -0.000000003   -0.000000007

Difference to translation invariance:
           :   -0.0000000098   -0.0000000022    0.0000000023

Norm of the cartesian gradient     ...    0.1427073406
RMS gradient                       ...    0.0475691135
MAX gradient                       ...    0.1009093380

-------
TIMINGS
-------

Total SCF gradient time            ...        0.356 sec

One electron gradient       ....       0.019 sec  (  5.2%)
Prescreening matrices       ....       0.027 sec  (  7.7%)
RI-J Coulomb gradient       ....       0.093 sec  ( 26.0%)
XC gradient                 ....       0.037 sec  ( 10.3%)
------------------------------------------------------------------------------
                         ORCA GEOMETRY RELAXATION STEP
------------------------------------------------------------------------------

Reading the OPT-File                    .... done
Getting information on internals        .... done
Copying old internal coords+grads       .... done
Making the new internal coordinates     .... (new redundants).... done
Validating the new internal coordinates .... (new redundants).... done
Calculating the B-matrix                .... done
Calculating the G,G- and P matrices     .... done
Transforming gradient to internals      .... done
Projecting the internal gradient        .... done
Number of atoms                         ....   3
Number of internal coordinates          ....   4
Current Energy                          ....  -188.588145721 Eh
Current gradient norm                   ....     0.142707341 Eh/bohr
Maximum allowed component of the step   ....  0.300
Current trust radius                    ....  0.300
Evaluating the initial hessian          ....  (Almloef) done
Projecting the Hessian                  .... done
Forming the augmented Hessian           .... done
Diagonalizing the augmented Hessian     .... done
Last element of RFO vector              ....  0.994146173
Lowest eigenvalues of augmented Hessian:
 -0.015509382  0.563153802  0.563153802  1.297591626
Length of the computed step             ....  0.108679637
The final length of the internal step   ....  0.108679637
Converting the step to cartesian space:
 Initial RMS(Int)=    0.0543398184
Transforming coordinates:
 Iter   0:  RMS(Cart)=    0.0362265456 RMS(Int)=    0.0543398184
 Iter   1:  RMS(Cart)=    0.0000000055 RMS(Int)=    0.0000000254
done
Storing new coordinates                 .... done

                                .--------------------.
          ----------------------|Geometry convergence|-------------------------
          Item                value                   Tolerance       Converged
          ---------------------------------------------------------------------
          RMS gradient        0.0713536703            0.0001000000      NO
          MAX gradient        0.1009093347            0.0003000000      NO
          RMS step            0.0543398184            0.0020000000      NO
          MAX step            0.0768481142            0.0040000000      NO
          ........................................................
          Max(Bonds)      0.0407      Max(Angles)    0.00
          Max(Dihed)        0.00      Max(Improp)    0.00
          ---------------------------------------------------------------------

The optimization has not yet converged - more geometry cycles are needed


    ---------------------------------------------------------------------------
                         Redundant Internal Coordinates
                            (Angstroem and degrees)

        Definition                    Value    dE/dq     Step     New-Value
    ----------------------------------------------------------------------------
     1. B(C   2,O   1)                1.1611  0.100909 -0.0407    1.1204   
     2. B(C   2,O   0)                1.1611  0.100909 -0.0407    1.1204   
     3. L(O   0,C   2,O   1, 2)       180.00 -0.000000    0.00    180.00   
     4. L(O   0,C   2,O   1, 1)       180.00  0.000000   -0.00    180.00   
    ----------------------------------------------------------------------------

         *************************************************************
         *                GEOMETRY OPTIMIZATION CYCLE   2            *
         *************************************************************
---------------------------------
CARTESIAN COORDINATES (ANGSTROEM)
---------------------------------
  O     -1.120392   -0.000000   -0.000000
  O      1.120392    0.000000    0.000000
  C      0.000000   -0.000000    0.000000

----------------------------
CARTESIAN COORDINATES (A.U.)
----------------------------
  NO LB      ZA    FRAG     MASS         X           Y           Z
   0 O     8.0000    0    15.999   -2.117233   -0.000000   -0.000000
   1 O     8.0000    0    15.999    2.117233    0.000000    0.000000
   2 C     6.0000    0    12.011    0.000000   -0.000000    0.000000

--------------------------------
INTERNAL COORDINATES (ANGSTROEM)
--------------------------------
 O      0   0   0     0.000000000000     0.00000000     0.00000000
 O      1   0   0     2.240783195359     0.00000000     0.00000000
 C      2   1   0     1.120391596869     0.00000121     0.00000000

---------------------------
INTERNAL COORDINATES (A.U.)
---------------------------
 O      0   0   0     0.000000000000     0.00000000     0.00000000
 O      1   0   0     4.234466564722     0.00000000     0.00000000
 C      2   1   0     2.117233280829     0.00000121     0.00000000



           ************************************************************
           *        Program running with 24 parallel MPI-processes    *
           *              working on a common directory               *
           ************************************************************
 One Electron integrals                  ... done
 Pre-screening matrix                    ... done


           ************************************************************
           *        Program running with 24 parallel MPI-processes    *
           *              working on a common directory               *
           ************************************************************

Diagonalization of the overlap matrix:
Smallest eigenvalue                        ... 3.177e-04
Time for diagonalization                   ...    0.005 sec
Threshold for overlap eigenvalues          ... 1.000e-08
Number of eigenvalues below threshold      ... 0
Time for construction of square roots      ...    0.002 sec
Total time needed                          ...    0.007 sec

-------------------
DFT GRID GENERATION
-------------------

General Integration Accuracy     IntAcc      ...  4.340
Radial Grid Type                 RadialGrid  ... Gauss-Chebyshev
Angular Grid (max. acc.)         AngularGrid ... Lebedev-110
Angular grid pruning method      GridPruning ... 3 (G Style)
Weight generation scheme         WeightScheme... Becke
Basis function cutoff            BFCut       ...    1.0000e-11
Integration weight cutoff        WCut        ...    1.0000e-14
Grids for H and He will be reduced by one unit

# of grid points (after initial pruning)     ...   5088 (   0.0 sec)
# of grid points (after weights+screening)   ...   5034 (   0.0 sec)
nearest neighbour list constructed           ...    0.0 sec
Grid point re-assignment to atoms done       ...    0.0 sec
Grid point division into batches done        ...    0.0 sec
Reduced shell lists constructed in    0.0 sec

Total number of grid points                  ...     5034
Total number of batches                      ...       81
Average number of points per batch           ...       62
Average number of grid points per atom       ...     1678
Average number of shells per batch           ...    21.20 (50.48%)
Average number of basis functions per batch  ...    69.20 (50.14%)
Average number of large shells per batch     ...    15.40 (72.64%)
Average number of large basis fcns per batch ...    49.00 (70.81%)
Maximum spatial batch extension              ...  12.41, 16.34, 19.31 au
Average spatial batch extension              ...   0.55,  0.75,  0.87 au

Time for grid setup =    0.021 sec

--------------
SCF ITERATIONS
--------------
ITER       Energy         Delta-E        Max-DP      RMS-DP      [F,P]     Damp
               ***  Starting incremental Fock matrix formation  ***
  0   -188.5912349806   0.000000000000 0.00765332  0.00018442  0.0281946 0.7000
                      *** Initiating the SOSCF procedure ***
                      *** Re-Reading the Fockian *** 
                      *** Removing any level shift *** 
ITER      Energy       Delta-E        Grad      Rot      Max-DP    RMS-DP
  1   -188.59207370  -0.0008387227  0.002299  0.002299  0.015840  0.000465
               *** Restarting incremental Fock matrix formation ***
  2   -188.59359835  -0.0015246455  0.003002  0.002788  0.004346  0.000128
  3   -188.59364635  -0.0000480029  0.002461  0.001335  0.001744  0.000058
  4   -188.59374203  -0.0000956832  0.000309  0.000579  0.000384  0.000010
  5   -188.59374077   0.0000012676  0.000601  0.000388  0.000260  0.000007
  6   -188.59374253  -0.0000017654  0.000004  0.000002  0.000016  0.000000
                 **** Energy Check signals convergence ****
              ***Rediagonalizing the Fockian in SOSCF/NRSCF***

               *****************************************************
               *                     SUCCESS                       *
               *           SCF CONVERGED AFTER   7 CYCLES          *
               *****************************************************

Setting up the final grid:

General Integration Accuracy     IntAcc      ...  4.670
Radial Grid Type                 RadialGrid  ... Gauss-Chebyshev
Angular Grid (max. acc.)         AngularGrid ... Lebedev-302
Angular grid pruning method      GridPruning ... 3 (G Style)
Weight generation scheme         WeightScheme... Becke
Basis function cutoff            BFCut       ...    1.0000e-11
Integration weight cutoff        WCut        ...    1.0000e-14
Grids for H and He will be reduced by one unit

# of grid points (after initial pruning)     ...  18636 (   0.0 sec)
# of grid points (after weights+screening)   ...  18430 (   0.0 sec)
nearest neighbour list constructed           ...    0.0 sec
Grid point re-assignment to atoms done       ...    0.0 sec
Grid point division into batches done        ...    0.1 sec
Reduced shell lists constructed in    0.1 sec

Total number of grid points                  ...    18430
Total number of batches                      ...      289
Average number of points per batch           ...       63
Average number of grid points per atom       ...     6143
Average number of shells per batch           ...    10.93 (26.02%)
Average number of basis functions per batch  ...    30.36 (22.00%)
Average number of large shells per batch     ...     7.00 (64.05%)
Average number of large basis fcns per batch ...    17.43 (57.41%)
Maximum spatial batch extension              ...  12.96, 16.05, 16.88 au
Average spatial batch extension              ...   0.45,  0.65,  0.66 au

Final grid set up in    0.1 sec
Final integration                            ... done (   0.1 sec)
Change in XC energy                          ...     0.013415801
Integrated number of electrons               ...    21.999993479
Previous integrated no of electrons          ...    22.000080573
Total Energy       :         -188.58032673 Eh           -5131.53157 eV
  Last Energy change         ...    2.8063e-09  Tolerance :   1.0000e-08
  Last MAX-Density change    ...    1.4085e-06  Tolerance :   1.0000e-07
             **** THE GBW FILE WAS UPDATED (10_CO2.gbw) ****
             **** DENSITY FILE WAS UPDATED (10_CO2.scfp) ****
             **** ENERGY FILE WAS UPDATED (10_CO2.en.tmp) ****
             **** THE GBW FILE WAS UPDATED (10_CO2.gbw) ****
             **** DENSITY FILE WAS UPDATED (10_CO2.scfp) ****
Total SCF time: 0 days 0 hours 0 min 1 sec 


-------------------------------------------------------------------------------
                          DFT DISPERSION CORRECTION                            
                                                                               
                              DFTD3 V3.1  Rev 1                                
                          USING Becke-Johnson damping                          
-------------------------------------------------------------------------------
-------------------------   ----------------
Dispersion correction           -0.000191460
-------------------------   ----------------


-------------------------   --------------------
FINAL SINGLE POINT ENERGY      -188.580518188606
-------------------------   --------------------



           ************************************************************
           *        Program running with 24 parallel MPI-processes    *
           *              working on a common directory               *
           ************************************************************
------------------------------------------------------------------------------
                         ORCA SCF GRADIENT CALCULATION
------------------------------------------------------------------------------

Gradient of the Kohn-Sham DFT energy:
Kohn-Sham wavefunction type      ... RKS
Hartree-Fock exchange scaling    ...    0.000
Number of operators              ...    1
Number of atoms                  ...    3
Basis set dimensions             ...  138
Integral neglect threshold       ... 2.5e-11
Integral primitive cutoff        ... 2.5e-12

Nuclear repulsion gradient       ... done
One Electron Gradient            ... done
Pre-screening matrix             ... done
RI-J gradient                    ... done
Exchange-correlation gradient    ... done
Dispersion correction            ... done

------------------
CARTESIAN GRADIENT
------------------

   1   O   :    0.014165242    0.000000010   -0.000000005
   2   O   :   -0.014165246    0.000000022   -0.000000004
   3   C   :    0.000000005   -0.000000024    0.000000009

Difference to translation invariance:
           :    0.0000000011    0.0000000084   -0.0000000000

Norm of the cartesian gradient     ...    0.0200326801
RMS gradient                       ...    0.0066775600
MAX gradient                       ...    0.0141652459

-------
TIMINGS
-------

Total SCF gradient time            ...        0.417 sec

One electron gradient       ....       0.013 sec  (  3.1%)
Prescreening matrices       ....       0.027 sec  (  6.6%)
RI-J Coulomb gradient       ....       0.111 sec  ( 26.7%)
XC gradient                 ....       0.038 sec  (  9.0%)
------------------------------------------------------------------------------
                         ORCA GEOMETRY RELAXATION STEP
------------------------------------------------------------------------------

Reading the OPT-File                    .... done
Getting information on internals        .... done
Copying old internal coords+grads       .... done
Making the new internal coordinates     .... (new redundants).... done
Validating the new internal coordinates .... (new redundants).... done
Calculating the B-matrix                .... done
Calculating the G,G- and P matrices     .... done
Transforming gradient to internals      .... done
Projecting the internal gradient        .... done
Number of atoms                         ....   3
Number of internal coordinates          ....   4
Current Energy                          ....  -188.580518189 Eh
Current gradient norm                   ....     0.020032680 Eh/bohr
Maximum allowed component of the step   ....  0.300
Current trust radius                    ....  0.300
Updating the Hessian (BFGS)             .... done
Forming the augmented Hessian           .... done
Diagonalizing the augmented Hessian     .... done
Last element of RFO vector              ....  0.999910558
Lowest eigenvalues of augmented Hessian:
 -0.000267950  0.563153802  0.563153802  1.297591626
Length of the computed step             ....  0.013375658
The final length of the internal step   ....  0.013375658
Converting the step to cartesian space:
 Initial RMS(Int)=    0.0066878291
Transforming coordinates:
 Iter   0:  RMS(Cart)=    0.0044585527 RMS(Int)=    0.0066878291
 Iter   1:  RMS(Cart)=    0.0000000032 RMS(Int)=    0.0000000000
done
Storing new coordinates                 .... done

                                .--------------------.
          ----------------------|Geometry convergence|-------------------------
          Item                value                   Tolerance       Converged
          ---------------------------------------------------------------------
          Energy change       0.0076275321            0.0000050000      NO
          RMS gradient        0.0100163400            0.0001000000      NO
          MAX gradient        0.0141652463            0.0003000000      NO
          RMS step            0.0066878291            0.0020000000      NO
          MAX step            0.0094580200            0.0040000000      NO
          ........................................................
          Max(Bonds)      0.0050      Max(Angles)    0.00
          Max(Dihed)        0.00      Max(Improp)    0.00
          ---------------------------------------------------------------------

The optimization has not yet converged - more geometry cycles are needed


    ---------------------------------------------------------------------------
                         Redundant Internal Coordinates
                            (Angstroem and degrees)

        Definition                    Value    dE/dq     Step     New-Value
    ----------------------------------------------------------------------------
     1. B(C   2,O   1)                1.1204 -0.014165  0.0050    1.1254   
     2. B(C   2,O   0)                1.1204 -0.014165  0.0050    1.1254   
     3. L(O   0,C   2,O   1, 2)       180.00 -0.000000    0.00    180.00   
     4. L(O   0,C   2,O   1, 1)       180.00 -0.000000    0.00    180.00   
    ----------------------------------------------------------------------------

         *************************************************************
         *                GEOMETRY OPTIMIZATION CYCLE   3            *
         *************************************************************
---------------------------------
CARTESIAN COORDINATES (ANGSTROEM)
---------------------------------
  O     -1.125397   -0.000000   -0.000000
  O      1.125397    0.000000    0.000000
  C      0.000000   -0.000000    0.000000

----------------------------
CARTESIAN COORDINATES (A.U.)
----------------------------
  NO LB      ZA    FRAG     MASS         X           Y           Z
   0 O     8.0000    0    15.999   -2.126691   -0.000000   -0.000000
   1 O     8.0000    0    15.999    2.126691    0.000000    0.000000
   2 C     6.0000    0    12.011    0.000000   -0.000000    0.000000

--------------------------------
INTERNAL COORDINATES (ANGSTROEM)
--------------------------------
 O      0   0   0     0.000000000000     0.00000000     0.00000000
 O      1   0   0     2.250793131094     0.00000000     0.00000000
 C      2   1   0     1.125396565505     0.00000000     0.00000000

---------------------------
INTERNAL COORDINATES (A.U.)
---------------------------
 O      0   0   0     0.000000000000     0.00000000     0.00000000
 O      1   0   0     4.253382601879     0.00000000     0.00000000
 C      2   1   0     2.126691300860     0.00000000     0.00000000



           ************************************************************
           *        Program running with 24 parallel MPI-processes    *
           *              working on a common directory               *
           ************************************************************
 One Electron integrals                  ... done
 Pre-screening matrix                    ... done


           ************************************************************
           *        Program running with 24 parallel MPI-processes    *
           *              working on a common directory               *
           ************************************************************

Diagonalization of the overlap matrix:
Smallest eigenvalue                        ... 3.214e-04
Time for diagonalization                   ...    0.004 sec
Threshold for overlap eigenvalues          ... 1.000e-08
Number of eigenvalues below threshold      ... 0
Time for construction of square roots      ...    0.002 sec
Total time needed                          ...    0.007 sec

-------------------
DFT GRID GENERATION
-------------------

General Integration Accuracy     IntAcc      ...  4.340
Radial Grid Type                 RadialGrid  ... Gauss-Chebyshev
Angular Grid (max. acc.)         AngularGrid ... Lebedev-110
Angular grid pruning method      GridPruning ... 3 (G Style)
Weight generation scheme         WeightScheme... Becke
Basis function cutoff            BFCut       ...    1.0000e-11
Integration weight cutoff        WCut        ...    1.0000e-14
Grids for H and He will be reduced by one unit

# of grid points (after initial pruning)     ...   5088 (   0.0 sec)
# of grid points (after weights+screening)   ...   5034 (   0.0 sec)
nearest neighbour list constructed           ...    0.0 sec
Grid point re-assignment to atoms done       ...    0.0 sec
Grid point division into batches done        ...    0.0 sec
Reduced shell lists constructed in    0.0 sec

Total number of grid points                  ...     5034
Total number of batches                      ...       81
Average number of points per batch           ...       62
Average number of grid points per atom       ...     1678
Average number of shells per batch           ...    21.20 (50.48%)
Average number of basis functions per batch  ...    69.20 (50.14%)
Average number of large shells per batch     ...    15.40 (72.64%)
Average number of large basis fcns per batch ...    49.00 (70.81%)
Maximum spatial batch extension              ...  12.41, 19.31, 19.31 au
Average spatial batch extension              ...   0.55,  0.81,  0.87 au

Time for grid setup =    0.015 sec

--------------
SCF ITERATIONS
--------------
ITER       Energy         Delta-E        Max-DP      RMS-DP      [F,P]     Damp
               ***  Starting incremental Fock matrix formation  ***
                      *** Initiating the SOSCF procedure ***
                      *** Re-Reading the Fockian *** 
                      *** Removing any level shift *** 
ITER      Energy       Delta-E        Grad      Rot      Max-DP    RMS-DP
  0   -188.59530526 -188.5953052612  0.001976  0.001976  0.003616  0.000080
               *** Restarting incremental Fock matrix formation ***
  1   -188.59534188  -0.0000366194  0.000565  0.000592  0.000840  0.000021
  2   -188.59534363  -0.0000017500  0.000359  0.000175  0.000224  0.000009
  3   -188.59534572  -0.0000020854  0.000010  0.000012  0.000015  0.000000
  4   -188.59534572  -0.0000000007  0.000003  0.000005  0.000003  0.000000
  5   -188.59534572  -0.0000000003  0.000005  0.000003  0.000003  0.000000
                 **** Energy Check signals convergence ****
              ***Rediagonalizing the Fockian in SOSCF/NRSCF***

               *****************************************************
               *                     SUCCESS                       *
               *           SCF CONVERGED AFTER   6 CYCLES          *
               *****************************************************

Setting up the final grid:

General Integration Accuracy     IntAcc      ...  4.670
Radial Grid Type                 RadialGrid  ... Gauss-Chebyshev
Angular Grid (max. acc.)         AngularGrid ... Lebedev-302
Angular grid pruning method      GridPruning ... 3 (G Style)
Weight generation scheme         WeightScheme... Becke
Basis function cutoff            BFCut       ...    1.0000e-11
Integration weight cutoff        WCut        ...    1.0000e-14
Grids for H and He will be reduced by one unit

# of grid points (after initial pruning)     ...  18636 (   0.0 sec)
# of grid points (after weights+screening)   ...  18430 (   0.0 sec)
nearest neighbour list constructed           ...    0.0 sec
Grid point re-assignment to atoms done       ...    0.0 sec
Grid point division into batches done        ...    0.1 sec
Reduced shell lists constructed in    0.1 sec

Total number of grid points                  ...    18430
Total number of batches                      ...      289
Average number of points per batch           ...       63
Average number of grid points per atom       ...     6143
Average number of shells per batch           ...    10.93 (26.02%)
Average number of basis functions per batch  ...    30.36 (22.00%)
Average number of large shells per batch     ...     7.00 (64.05%)
Average number of large basis fcns per batch ...    17.43 (57.41%)
Maximum spatial batch extension              ...  12.96, 16.05, 16.88 au
Average spatial batch extension              ...   0.45,  0.65,  0.66 au

Final grid set up in    0.1 sec
Final integration                            ... done (   0.0 sec)
Change in XC energy                          ...     0.013239280
Integrated number of electrons               ...    21.999991680
Previous integrated no of electrons          ...    22.000070890
Total Energy       :         -188.58210644 Eh           -5131.58000 eV
  Last Energy change         ...   -8.7866e-10  Tolerance :   1.0000e-08
  Last MAX-Density change    ...    5.0562e-07  Tolerance :   1.0000e-07
             **** THE GBW FILE WAS UPDATED (10_CO2.gbw) ****
             **** DENSITY FILE WAS UPDATED (10_CO2.scfp) ****
             **** ENERGY FILE WAS UPDATED (10_CO2.en.tmp) ****
             **** THE GBW FILE WAS UPDATED (10_CO2.gbw) ****
             **** DENSITY FILE WAS UPDATED (10_CO2.scfp) ****
Total SCF time: 0 days 0 hours 0 min 1 sec 


-------------------------------------------------------------------------------
                          DFT DISPERSION CORRECTION                            
                                                                               
                              DFTD3 V3.1  Rev 1                                
                          USING Becke-Johnson damping                          
-------------------------------------------------------------------------------
-------------------------   ----------------
Dispersion correction           -0.000191430
-------------------------   ----------------


-------------------------   --------------------
FINAL SINGLE POINT ENERGY      -188.582297868912
-------------------------   --------------------



           ************************************************************
           *        Program running with 24 parallel MPI-processes    *
           *              working on a common directory               *
           ************************************************************
------------------------------------------------------------------------------
                         ORCA SCF GRADIENT CALCULATION
------------------------------------------------------------------------------

Gradient of the Kohn-Sham DFT energy:
Kohn-Sham wavefunction type      ... RKS
Hartree-Fock exchange scaling    ...    0.000
Number of operators              ...    1
Number of atoms                  ...    3
Basis set dimensions             ...  138
Integral neglect threshold       ... 2.5e-11
Integral primitive cutoff        ... 2.5e-12

Nuclear repulsion gradient       ... done
One Electron Gradient            ... done
Pre-screening matrix             ... done
RI-J gradient                    ... done
Exchange-correlation gradient    ... done
Dispersion correction            ... done

------------------
CARTESIAN GRADIENT
------------------

   1   O   :   -0.001680060   -0.000000004   -0.000000012
   2   O   :    0.001680059    0.000000010   -0.000000007
   3   C   :    0.000000001   -0.000000001    0.000000014

Difference to translation invariance:
           :   -0.0000000004    0.0000000048   -0.0000000052

Norm of the cartesian gradient     ...    0.0023759626
RMS gradient                       ...    0.0007919875
MAX gradient                       ...    0.0016800600

-------
TIMINGS
-------

Total SCF gradient time            ...        0.364 sec

One electron gradient       ....       0.020 sec  (  5.6%)
Prescreening matrices       ....       0.028 sec  (  7.6%)
RI-J Coulomb gradient       ....       0.093 sec  ( 25.5%)
XC gradient                 ....       0.038 sec  ( 10.3%)
------------------------------------------------------------------------------
                         ORCA GEOMETRY RELAXATION STEP
------------------------------------------------------------------------------

Reading the OPT-File                    .... done
Getting information on internals        .... done
Copying old internal coords+grads       .... done
Making the new internal coordinates     .... (new redundants).... done
Validating the new internal coordinates .... (new redundants).... done
Calculating the B-matrix                .... done
Calculating the G,G- and P matrices     .... done
Transforming gradient to internals      .... done
Projecting the internal gradient        .... done
Number of atoms                         ....   3
Number of internal coordinates          ....   4
Current Energy                          ....  -188.582297869 Eh
Current gradient norm                   ....     0.002375963 Eh/bohr
Maximum allowed component of the step   ....  0.300
Current trust radius                    ....  0.300
Updating the Hessian (BFGS)             .... done
Forming the augmented Hessian           .... done
Diagonalizing the augmented Hessian     .... done
Last element of RFO vector              ....  0.999998994
Lowest eigenvalues of augmented Hessian:
 -0.000003370  0.563153802  0.563153802  1.297591626
Length of the computed step             ....  0.001418203
The final length of the internal step   ....  0.001418203
Converting the step to cartesian space:
 Initial RMS(Int)=    0.0007091014
Transforming coordinates:
 Iter   0:  RMS(Cart)=    0.0004727343 RMS(Int)=    0.0007091014
 Iter   1:  RMS(Cart)=    0.0000000056 RMS(Int)=    0.0000000434
done
Storing new coordinates                 .... done

                                .--------------------.
          ----------------------|Geometry convergence|-------------------------
          Item                value                   Tolerance       Converged
          ---------------------------------------------------------------------
          Energy change      -0.0017796803            0.0000050000      NO
          RMS gradient        0.0011879813            0.0001000000      NO
          MAX gradient        0.0016800599            0.0003000000      NO
          RMS step            0.0007091014            0.0020000000      YES
          MAX step            0.0010028213            0.0040000000      YES
          ........................................................
          Max(Bonds)      0.0005      Max(Angles)    0.00
          Max(Dihed)        0.00      Max(Improp)    0.00
          ---------------------------------------------------------------------

The optimization has not yet converged - more geometry cycles are needed


    ---------------------------------------------------------------------------
                         Redundant Internal Coordinates
                            (Angstroem and degrees)

        Definition                    Value    dE/dq     Step     New-Value
    ----------------------------------------------------------------------------
     1. B(C   2,O   1)                1.1254  0.001680 -0.0005    1.1249   
     2. B(C   2,O   0)                1.1254  0.001680 -0.0005    1.1249   
     3. L(O   0,C   2,O   1, 2)       180.00 -0.000000    0.00    180.00   
     4. L(O   0,C   2,O   1, 1)       180.00 -0.000000    0.00    180.00   
    ----------------------------------------------------------------------------

         *************************************************************
         *                GEOMETRY OPTIMIZATION CYCLE   4            *
         *************************************************************
---------------------------------
CARTESIAN COORDINATES (ANGSTROEM)
---------------------------------
  O     -1.124866   -0.000000   -0.000000
  O      1.124866    0.000000    0.000000
  C      0.000000    0.000000   -0.000000

----------------------------
CARTESIAN COORDINATES (A.U.)
----------------------------
  NO LB      ZA    FRAG     MASS         X           Y           Z
   0 O     8.0000    0    15.999   -2.125688   -0.000000   -0.000000
   1 O     8.0000    0    15.999    2.125688    0.000000    0.000000
   2 C     6.0000    0    12.011    0.000000    0.000000   -0.000000

--------------------------------
INTERNAL COORDINATES (ANGSTROEM)
--------------------------------
 O      0   0   0     0.000000000000     0.00000000     0.00000000
 O      1   0   0     2.249731791255     0.00000000     0.00000000
 C      1   2   0     1.124865895431     0.00000121     0.00000000

---------------------------
INTERNAL COORDINATES (A.U.)
---------------------------
 O      0   0   0     0.000000000000     0.00000000     0.00000000
 O      1   0   0     4.251376960249     0.00000000     0.00000000
 C      1   2   0     2.125688479753     0.00000121     0.00000000



           ************************************************************
           *        Program running with 24 parallel MPI-processes    *
           *              working on a common directory               *
           ************************************************************
 One Electron integrals                  ... done
 Pre-screening matrix                    ... done


           ************************************************************
           *        Program running with 24 parallel MPI-processes    *
           *              working on a common directory               *
           ************************************************************

Diagonalization of the overlap matrix:
Smallest eigenvalue                        ... 3.210e-04
Time for diagonalization                   ...    0.005 sec
Threshold for overlap eigenvalues          ... 1.000e-08
Number of eigenvalues below threshold      ... 0
Time for construction of square roots      ...    0.002 sec
Total time needed                          ...    0.007 sec

-------------------
DFT GRID GENERATION
-------------------

General Integration Accuracy     IntAcc      ...  4.340
Radial Grid Type                 RadialGrid  ... Gauss-Chebyshev
Angular Grid (max. acc.)         AngularGrid ... Lebedev-110
Angular grid pruning method      GridPruning ... 3 (G Style)
Weight generation scheme         WeightScheme... Becke
Basis function cutoff            BFCut       ...    1.0000e-11
Integration weight cutoff        WCut        ...    1.0000e-14
Grids for H and He will be reduced by one unit

# of grid points (after initial pruning)     ...   5088 (   0.0 sec)
# of grid points (after weights+screening)   ...   5034 (   0.0 sec)
nearest neighbour list constructed           ...    0.0 sec
Grid point re-assignment to atoms done       ...    0.0 sec
Grid point division into batches done        ...    0.0 sec
Reduced shell lists constructed in    0.0 sec

Total number of grid points                  ...     5034
Total number of batches                      ...       81
Average number of points per batch           ...       62
Average number of grid points per atom       ...     1678
Average number of shells per batch           ...    21.20 (50.48%)
Average number of basis functions per batch  ...    69.20 (50.14%)
Average number of large shells per batch     ...    15.40 (72.64%)
Average number of large basis fcns per batch ...    49.00 (70.81%)
Maximum spatial batch extension              ...  12.41, 19.31, 19.31 au
Average spatial batch extension              ...   0.55,  0.81,  0.87 au

Time for grid setup =    0.015 sec

--------------
SCF ITERATIONS
--------------
ITER       Energy         Delta-E        Max-DP      RMS-DP      [F,P]     Damp
               ***  Starting incremental Fock matrix formation  ***
                      *** Initiating the SOSCF procedure ***
                      *** Re-Reading the Fockian *** 
                      *** Removing any level shift *** 
ITER      Energy       Delta-E        Grad      Rot      Max-DP    RMS-DP
  0   -188.59518722 -188.5951872222  0.000209  0.000209  0.000376  0.000008
               *** Restarting incremental Fock matrix formation ***
  1   -188.59518763  -0.0000004084  0.000060  0.000063  0.000089  0.000002
  2   -188.59518765  -0.0000000189  0.000038  0.000020  0.000024  0.000001
                  ***Gradient check signals convergence***
              ***Rediagonalizing the Fockian in SOSCF/NRSCF***

               *****************************************************
               *                     SUCCESS                       *
               *           SCF CONVERGED AFTER   3 CYCLES          *
               *****************************************************

Setting up the final grid:

General Integration Accuracy     IntAcc      ...  4.670
Radial Grid Type                 RadialGrid  ... Gauss-Chebyshev
Angular Grid (max. acc.)         AngularGrid ... Lebedev-302
Angular grid pruning method      GridPruning ... 3 (G Style)
Weight generation scheme         WeightScheme... Becke
Basis function cutoff            BFCut       ...    1.0000e-11
Integration weight cutoff        WCut        ...    1.0000e-14
Grids for H and He will be reduced by one unit

# of grid points (after initial pruning)     ...  18636 (   0.0 sec)
# of grid points (after weights+screening)   ...  18430 (   0.0 sec)
nearest neighbour list constructed           ...    0.0 sec
Grid point re-assignment to atoms done       ...    0.0 sec
Grid point division into batches done        ...    0.1 sec
Reduced shell lists constructed in    0.1 sec

Total number of grid points                  ...    18430
Total number of batches                      ...      289
Average number of points per batch           ...       63
Average number of grid points per atom       ...     6143
Average number of shells per batch           ...    10.93 (26.02%)
Average number of basis functions per batch  ...    30.36 (22.00%)
Average number of large shells per batch     ...     7.00 (64.05%)
Average number of large basis fcns per batch ...    17.43 (57.41%)
Maximum spatial batch extension              ...  12.96, 16.05, 16.88 au
Average spatial batch extension              ...   0.45,  0.65,  0.66 au

Final grid set up in    0.1 sec
Final integration                            ... done (   0.1 sec)
Change in XC energy                          ...     0.013257762
Integrated number of electrons               ...    21.999991857
[...]
 130   0.0000       7.369825       200.5431 
 131   0.0000       7.369825       200.5431 
 132   0.0000       7.773978       211.5407 
 133   0.0000       7.972319       216.9378 
 134   0.0000       7.972319       216.9378 
 135   0.0000      14.295409       388.9979 
 136   0.0000      16.572658       450.9650 
 137   0.0000      22.306426       606.9887 

                    ********************************
                    * MULLIKEN POPULATION ANALYSIS *
                    ********************************

-----------------------
MULLIKEN ATOMIC CHARGES
-----------------------
   0 O :   -0.179631
   1 O :   -0.179631
   2 C :    0.359261
Sum of atomic charges:   -0.0000000

--------------------------------
MULLIKEN REDUCED ORBITAL CHARGES
--------------------------------
  0 O s       :     3.854759  s :     3.854759
      pz      :     1.524025  p :     4.302320
      px      :     1.254270
      py      :     1.524025
      dz2     :     0.000179  d :     0.023209
      dxz     :     0.011246
      dyz     :     0.000000
      dx2y2   :     0.000538
      dxy     :     0.011246
      f0      :     0.000132  f :    -0.000658
      f+1     :    -0.000539
      f-1     :     0.000031
      f+2     :     0.000258
      f-2     :     0.000000
      f+3     :    -0.000898
      f-3     :     0.000358
  1 O s       :     3.854759  s :     3.854759
      pz      :     1.524025  p :     4.302320
      px      :     1.254270
      py      :     1.524025
      dz2     :     0.000179  d :     0.023209
      dxz     :     0.011246
      dyz     :     0.000000
      dx2y2   :     0.000538
      dxy     :     0.011246
      f0      :     0.000132  f :    -0.000658
      f+1     :    -0.000539
      f-1     :     0.000031
      f+2     :     0.000258
      f-2     :    -0.000000
      f+3     :    -0.000898
      f-3     :     0.000358
  2 C s       :     3.124613  s :     3.124613
      pz      :     0.807101  p :     2.221282
      px      :     0.607079
      py      :     0.807101
      dz2     :     0.009230  d :     0.240036
      dxz     :     0.101558
      dyz     :     0.000000
      dx2y2   :     0.027690
      dxy     :     0.101558
      f0      :     0.007504  f :     0.054807
      f+1     :     0.005538
      f-1     :     0.001253
      f+2     :     0.012515
      f-2     :     0.000000
      f+3     :     0.009231
      f-3     :     0.018766


                     *******************************
                     * LOEWDIN POPULATION ANALYSIS *
                     *******************************

----------------------
LOEWDIN ATOMIC CHARGES
----------------------
   0 O :    0.395600
   1 O :    0.395600
   2 C :   -0.791199

-------------------------------
LOEWDIN REDUCED ORBITAL CHARGES
-------------------------------
  0 O s       :     3.242342  s :     3.242342
      pz      :     1.307581  p :     4.060601
      px      :     1.445439
      py      :     1.307581
      dz2     :     0.022639  d :     0.216129
      dxz     :     0.062786
      dyz     :     0.000000
      dx2y2   :     0.067918
      dxy     :     0.062786
      f0      :     0.009876  f :     0.085328
      f+1     :     0.012221
      f-1     :     0.001654
      f+2     :     0.016494
      f-2     :     0.000000
      f+3     :     0.020368
      f-3     :     0.024715
  1 O s       :     3.242342  s :     3.242342
      pz      :     1.307581  p :     4.060601
      px      :     1.445439
      py      :     1.307581
      dz2     :     0.022639  d :     0.216129
      dxz     :     0.062786
      dyz     :     0.000000
      dx2y2   :     0.067918
      dxy     :     0.062786
      f0      :     0.009876  f :     0.085328
      f+1     :     0.012221
      f-1     :     0.001654
      f+2     :     0.016494
      f-2     :     0.000000
      f+3     :     0.020368
      f-3     :     0.024715
  2 C s       :     2.593356  s :     2.593356
      pz      :     0.648986  p :     2.445201
      px      :     1.147228
      py      :     0.648986
      dz2     :     0.108627  d :     1.300987
      dxz     :     0.433239
      dyz     :     0.000000
      dx2y2   :     0.325882
      dxy     :     0.433239
      f0      :     0.046595  f :     0.451655
      f+1     :     0.076144
      f-1     :     0.007778
      f+2     :     0.077707
      f-2     :     0.000000
      f+3     :     0.126907
      f-3     :     0.116524


                      *****************************
                      * MAYER POPULATION ANALYSIS *
                      *****************************

  NA   - Mulliken gross atomic population
  ZA   - Total nuclear charge
  QA   - Mulliken gross atomic charge
  VA   - Mayer's total valence
  BVA  - Mayer's bonded valence
  FA   - Mayer's free valence

  ATOM       NA         ZA         QA         VA         BVA        FA
  0 O      8.1796     8.0000    -0.1796     2.0822     2.0822    -0.0000
  1 O      8.1796     8.0000    -0.1796     2.0822     2.0822    -0.0000
  2 C      5.6407     6.0000     0.3593     4.0139     4.0139    -0.0000

  Mayer bond orders larger than 0.100000
B(  0-O ,  2-C ) :   2.0069 B(  1-O ,  2-C ) :   2.0069 

-------
TIMINGS
-------

Total SCF time: 0 days 0 hours 0 min 0 sec 

Total time                  ....       0.618 sec
Sum of individual times     ....       0.478 sec  ( 77.4%)

Fock matrix formation       ....       0.346 sec  ( 56.0%)
  Split-RI-J                ....       0.168 sec  ( 48.6% of F)
  XC integration            ....       0.066 sec  ( 19.0% of F)
    Basis function eval.    ....       0.004 sec  (  6.3% of XC)
    Density eval.           ....       0.006 sec  (  9.6% of XC)
    XC-Functional eval.     ....       0.002 sec  (  2.5% of XC)
    XC-Potential eval.      ....       0.015 sec  ( 23.0% of XC)
Diagonalization             ....       0.002 sec  (  0.4%)
Density matrix formation    ....       0.001 sec  (  0.2%)
Population analysis         ....       0.004 sec  (  0.7%)
Initial guess               ....       0.010 sec  (  1.6%)
Orbital Transformation      ....       0.000 sec  (  0.0%)
Orbital Orthonormalization  ....       0.006 sec  (  1.0%)
DIIS solution               ....       0.000 sec  (  0.1%)
SOSCF solution              ....       0.002 sec  (  0.3%)
Grid generation             ....       0.112 sec  ( 18.1%)


-------------------------------------------------------------------------------
                          DFT DISPERSION CORRECTION                            
                                                                               
                              DFTD3 V3.1  Rev 1                                
                          USING Becke-Johnson damping                          
-------------------------------------------------------------------------------
The SCAN functional is recognized
Active option DFTDOPT                   ...         4   

molecular C6(AA) [au] = 156.380043 


            DFT-D V3
 parameters
 s6 scaling factor         :     1.0000 
 a1 scaling factor         :     0.5380 
 s8 scaling factor         :     0.0000 
 a2 scaling factor         :     5.4200 
 ad hoc parameters k1-k3   :    16.0000     1.3333    -4.0000 

 Edisp/kcal,au: -0.120126473292  -0.000191433700 
 E6   /kcal   :  -0.120126473 
 E8   /kcal   :  -0.000000000 
 % E8         :   0.000000000 

-------------------------   ----------------
Dispersion correction           -0.000191434
-------------------------   ----------------


-------------------------   --------------------
FINAL SINGLE POINT ENERGY      -188.582118798614
-------------------------   --------------------

                                *** OPTIMIZATION RUN DONE ***

                            ***************************************
                            *     ORCA property calculations      *
                            ***************************************

                                    ---------------------
                                    Active property flags
                                    ---------------------
   (+) Dipole Moment


------------------------------------------------------------------------------
                       ORCA ELECTRIC PROPERTIES CALCULATION
------------------------------------------------------------------------------

Dipole Moment Calculation                       ... on
Quadrupole Moment Calculation                   ... off
Polarizability Calculation                      ... off
GBWName                                         ... 10_CO2.gbw
Electron density file                           ... 10_CO2.scfp
The origin for moment calculation is the CENTER OF MASS  = ( 0.000000,  0.000000  0.000000)

-------------
DIPOLE MOMENT
-------------
                                X             Y             Z
Electronic contribution:      0.00000      -0.00000      -0.00000
Nuclear contribution   :     -0.00000       0.00000       0.00000
                        -----------------------------------------
Total Dipole Moment    :      0.00000      -0.00000      -0.00000
                        -----------------------------------------
Magnitude (a.u.)       :      0.00000
Magnitude (Debye)      :      0.00000



--------------------
Rotational spectrum 
--------------------
 
Rotational constants in cm-1:     0.000000     0.416369     0.416369 
Rotational constants in MHz :     0.000000 12482.432829 12482.432829 

 Dipole components along the rotational axes: 
x,y,z [a.u.] :     0.000000    -0.000000    -0.000000 
x,y,z [Debye]:     0.000000    -0.000000    -0.000000 

 

----------------------------------------------------------------------------
                           ORCA NUMERICAL FREQUENCIES
                              (24-process run)
----------------------------------------------------------------------------

Number of atoms                ... 3
Central differences            ... used
Number of displacements        ... 18
Numerical increment            ... 5.000e-03 bohr
IR-spectrum generation         ... on
Raman-spectrum generation      ... off
Surface Crossing Hessian       ... off

 WARNING: There are more processes than displacements to do
  ====> : Reducing number of processes to   9

The output will be reduced. Please look at the following files:
SCF program output             ... >10_CO2.lastscf
Integral program output        ... >10_CO2.lastint
Gradient program output        ... >10_CO2.lastgrad
Dipole moment program output   ... >10_CO2.lastmom
AutoCI program output          ... >10_CO2.lastautoci


         <<< Energy and Gradient at the input geometry >>>

        <<< Energy and Gradient at displaced geometries >>>
             <<<Displacing   1/coordinate 1 (+)>>>
             <<<Displacing   2/coordinate 3 (+)>>>
             <<<Displacing   2/coordinate 2 (+)>>>
             <<<Displacing   1/coordinate 3 (+)>>>
             <<<Displacing   2/coordinate 1 (+)>>>
             <<<Displacing   3/coordinate 1 (+)>>>
             <<<Displacing   3/coordinate 3 (+)>>>
             <<<Displacing   3/coordinate 2 (+)>>>
             <<<Displacing   1/coordinate 2 (+)>>>
             <<<Displacing   2/coordinate 1 (-)>>>
             <<<Displacing   1/coordinate 1 (-)>>>
             <<<Displacing   1/coordinate 3 (-)>>>
             <<<Displacing   3/coordinate 3 (-)>>>
             <<<Displacing   3/coordinate 1 (-)>>>
             <<<Displacing   2/coordinate 2 (-)>>>
             <<<Displacing   2/coordinate 3 (-)>>>
             <<<Displacing   3/coordinate 2 (-)>>>
             <<<Displacing   1/coordinate 2 (-)>>>
Warning: T+R mode no 3 is zero 

-----------------------
VIBRATIONAL FREQUENCIES
-----------------------

Scaling factor for frequencies =  1.000000000 (already applied!)

   0:         0.00 cm**-1
   1:         0.00 cm**-1
   2:         0.00 cm**-1
   3:         0.00 cm**-1
   4:         0.00 cm**-1
   5:       800.41 cm**-1
   6:       800.41 cm**-1
   7:      1653.15 cm**-1
   8:      2805.48 cm**-1


------------
NORMAL MODES
------------

These modes are the cartesian displacements weighted by the diagonal matrix
M(i,i)=1/sqrt(m[i]) where m[i] is the mass of the displaced atom
Thus, these vectors are normalized but *not* orthogonal

                  0          1          2          3          4          5    
      0       0.000000   0.000000   0.000000   0.000000   0.000000  -0.000000
      1       0.000000   0.000000   0.000000   0.000000   0.000000   0.007906
      2       0.000000   0.000000   0.000000   0.000000   0.000000  -0.331453
      3       0.000000   0.000000   0.000000   0.000000   0.000000   0.000000
      4       0.000000   0.000000   0.000000   0.000000   0.000000   0.007906
      5       0.000000   0.000000   0.000000   0.000000   0.000000  -0.331453
      6       0.000000   0.000000   0.000000   0.000000   0.000000   0.000000
      7       0.000000   0.000000   0.000000   0.000000   0.000000  -0.021063
      8       0.000000   0.000000   0.000000   0.000000   0.000000   0.883011
                   6          7          8    
      0       0.000000  -0.707107   0.331548
      1      -0.331453  -0.000000   0.000000
      2      -0.007906   0.000000  -0.000000
      3      -0.000000   0.707107   0.331548
      4      -0.331453  -0.000000   0.000000
      5      -0.007906   0.000000  -0.000000
      6      -0.000000  -0.000000  -0.883262
      7       0.883011   0.000000  -0.000000
      8       0.021063  -0.000000   0.000000


-----------
IR SPECTRUM  
-----------

 Mode    freq (cm**-1)   T**2         TX         TY         TZ
-------------------------------------------------------------------
   5:       800.41   31.403729  (  0.000004  -0.133634   5.602309)
   6:       800.41   31.403733  ( -0.000003   5.602310   0.133635)
   7:      1653.15    0.000000  ( -0.000000   0.000001  -0.000003)
   8:      2805.48  648.340857  (-25.462538  -0.000001   0.000005)

The first frequency considered to be a vibration is 5
The total number of vibrations considered is 4


--------------------------
THERMOCHEMISTRY AT 298.15K
--------------------------

Temperature         ... 298.15 K
Pressure            ... 1.00 atm
Total Mass          ... 44.01 AMU
The molecule is recognized as being linear

Throughout the following assumptions are being made:
  (1) The electronic state is orbitally nondegenerate
  (2) There are no thermally accessible electronically excited states
  (3) Hindered rotations indicated by low frequency modes are not
      treated as such but are treated as vibrations and this may
      cause some error
  (4) All equations used are the standard statistical mechanics
      equations for an ideal gas
  (5) All vibrations are strictly harmonic

freq.     800.41  E(vib)   ...       0.05 
freq.     800.41  E(vib)   ...       0.05 
freq.    1653.15  E(vib)   ...       0.00 
freq.    2805.48  E(vib)   ...       0.00 

------------
INNER ENERGY
------------

The inner energy is: U= E(el) + E(ZPE) + E(vib) + E(rot) + E(trans)
    E(el)   - is the total energy from the electronic structure calculation
              = E(kin-el) + E(nuc-el) + E(el-el) + E(nuc-nuc)
    E(ZPE)  - the the zero temperature vibrational energy from the frequency calculation
    E(vib)  - the the finite temperature correction to E(ZPE) due to population
              of excited vibrational states
    E(rot)  - is the rotational thermal energy
    E(trans)- is the translational thermal energy

Summary of contributions to the inner energy U:
Electronic energy                ...   -188.58211873 Eh
Zero point energy                ...      0.01380444 Eh       8.66 kcal/mol
Thermal vibrational correction   ...      0.00015919 Eh       0.10 kcal/mol
Thermal rotational correction    ...      0.00094418 Eh       0.59 kcal/mol
Thermal translational correction ...      0.00141627 Eh       0.89 kcal/mol
-----------------------------------------------------------------------
Total thermal energy                   -188.56579464 Eh


Summary of corrections to the electronic energy:
(perhaps to be used in another calculation)
Total thermal correction                  0.00251964 Eh       1.58 kcal/mol
Non-thermal (ZPE) correction              0.01380444 Eh       8.66 kcal/mol
-----------------------------------------------------------------------
Total correction                          0.01632408 Eh      10.24 kcal/mol


--------
ENTHALPY
--------

The enthalpy is H = U + kB*T
                kB is Boltzmann's constant
Total free energy                 ...   -188.56579464 Eh 
Thermal Enthalpy correction       ...      0.00094421 Eh       0.59 kcal/mol
-----------------------------------------------------------------------
Total Enthalpy                    ...   -188.56485043 Eh


Note: Rotational entropy computed according to Herzberg 
Infrared and Raman Spectra, Chapter V,1, Van Nostrand Reinhold, 1945 
Point Group:  Dinfh, Symmetry Number:   2  
Rotational constants in cm-1:     0.000000     0.416369     0.416369 

Vibrational entropy computed according to the QRRHO of S. Grimme
Chem.Eur.J. 2012 18 9955


-------
ENTROPY
-------

The entropy contributions are T*S = T*(S(el)+S(vib)+S(rot)+S(trans))
     S(el)   - electronic entropy
     S(vib)  - vibrational entropy
     S(rot)  - rotational entropy
     S(trans)- translational entropy
The entropies will be listed as mutliplied by the temperature to get
units of energy

Electronic entropy                ...      0.00000000 Eh      0.00 kcal/mol
Vibrational entropy               ...      0.00019976 Eh      0.13 kcal/mol
Rotational entropy                ...      0.00615308 Eh      3.86 kcal/mol
Translational entropy             ...      0.01770880 Eh     11.11 kcal/mol
-----------------------------------------------------------------------
Final entropy term                ...      0.02406164 Eh     15.10 kcal/mol

In case the symmetry of your molecule has not been determined correctly
or in case you have a reason to use a different symmetry number we print 
out the resulting rotational entropy values for sn=1,12 :
 --------------------------------------------------------
|  sn= 1 | S(rot)=      -0.00622054 Eh     -3.90 kcal/mol|
|  sn= 2 | S(rot)=      -0.00687499 Eh     -4.31 kcal/mol|
|  sn= 3 | S(rot)=      -0.00725783 Eh     -4.55 kcal/mol|
|  sn= 4 | S(rot)=      -0.00752945 Eh     -4.72 kcal/mol|
|  sn= 5 | S(rot)=      -0.00774014 Eh     -4.86 kcal/mol|
|  sn= 6 | S(rot)=      -0.00791228 Eh     -4.97 kcal/mol|
|  sn= 7 | S(rot)=      -0.00805783 Eh     -5.06 kcal/mol|
|  sn= 8 | S(rot)=      -0.00818391 Eh     -5.14 kcal/mol|
|  sn= 9 | S(rot)=      -0.00829512 Eh     -5.21 kcal/mol|
|  sn=10 | S(rot)=      -0.00839459 Eh     -5.27 kcal/mol|
|  sn=11 | S(rot)=      -0.00848458 Eh     -5.32 kcal/mol|
|  sn=12 | S(rot)=      -0.00856674 Eh     -5.38 kcal/mol|
 --------------------------------------------------------


-------------------
GIBBS FREE ENERGY
-------------------

The Gibbs free energy is G = H - T*S

Total enthalpy                    ...   -188.56485043 Eh 
Total entropy correction          ...     -0.02406164 Eh    -15.10 kcal/mol
-----------------------------------------------------------------------
Final Gibbs free energy         ...   -188.58891207 Eh

For completeness - the Gibbs free energy minus the electronic energy
G-E(el)                           ...     -0.00679334 Eh     -4.26 kcal/mol


Total Time for Numerical Frequencies  :        13.745 sec

Timings for individual modules:

Sum of individual times         ...       17.485 sec (=   0.291 min)
GTO integral calculation        ...        3.835 sec (=   0.064 min)  21.9 %
SCF iterations                  ...        9.159 sec (=   0.153 min)  52.4 %
SCF Gradient evaluation         ...        4.323 sec (=   0.072 min)  24.7 %
Geometry relaxation             ...        0.168 sec (=   0.003 min)   1.0 %
                             ****ORCA TERMINATED NORMALLY****
TOTAL RUN TIME: 0 days 0 hours 0 minutes 29 seconds 671 msec
