
                                 *****************
                                 * O   R   C   A *
                                 *****************

           --- An Ab Initio, DFT and Semiempirical electronic structure package ---

                  #######################################################
                  #                        -***-                        #
                  #          Department of theory and spectroscopy      #
                  #               Directorship: Frank Neese             #
                  #        Max Planck Institute fuer Kohlenforschung    #
                  #                Kaiser Wilhelm Platz 1               #
                  #                 D-45470 Muelheim/Ruhr               #
                  #                      Germany                        #
                  #                                                     #
                  #                  All rights reserved                #
                  #                        -***-                        #
                  #######################################################


                         Program Version 4.2.0 -  RELEASE  -


 With contributions from (in alphabetic order):
   Daniel Aravena         : Magnetic Suceptibility
   Michael Atanasov       : Ab Initio Ligand Field Theory (pilot matlab implementation)
   Alexander A. Auer      : GIAO ZORA, VPT2
   Ute Becker             : Parallelization
   Giovanni Bistoni       : ED, misc. LED, open-shell LED, HFLED
   Martin Brehm           : Molecular dynamics
   Dmytro Bykov           : SCF Hessian
   Vijay G. Chilkuri      : MRCI spin determinant printing, contributions to CSF-ICE
   Dipayan Datta          : RHF DLPNO-CCSD density
   Achintya Kumar Dutta   : EOM-CC, STEOM-CC
   Dmitry Ganyushin       : Spin-Orbit,Spin-Spin,Magnetic field MRCI
   Miquel Garcia          : C-PCM Hessian, Gaussian charge scheme
   Yang Guo               : DLPNO-NEVPT2, CIM, IAO-localization
   Andreas Hansen         : Spin unrestricted coupled pair/coupled cluster methods
   Benjamin Helmich-Paris : CASSCF linear response (MC-RPA)
   Lee Huntington         : MR-EOM, pCC
   Robert Izsak           : Overlap fitted RIJCOSX, COSX-SCS-MP3, EOM
   Christian Kollmar      : KDIIS, OOCD, Brueckner-CCSD(T), CCSD density
   Simone Kossmann        : Meta GGA functionals, TD-DFT gradient, OOMP2, MP2 Hessian
   Martin Krupicka        : AUTO-CI
   Lucas Lang             : DCDCAS
   Dagmar Lenk            : GEPOL surface, SMD
   Dimitrios Liakos       : Extrapolation schemes; Compound Job, initial MDCI parallelization
   Dimitrios Manganas     : Further ROCIS development; embedding schemes
   Dimitrios Pantazis     : SARC Basis sets
   Taras Petrenko         : DFT Hessian,TD-DFT gradient, ASA, ECA, R-Raman, ABS, FL, XAS/XES, NRVS
   Peter Pinski           : DLPNO-MP2, DLPNO-MP2 Gradient
   Christoph Reimann      : Effective Core Potentials
   Marius Retegan         : Local ZFS, SOC
   Christoph Riplinger    : Optimizer, TS searches, QM/MM, DLPNO-CCSD(T), (RO)-DLPNO pert. Triples
   Tobias Risthaus        : Range-separated hybrids, TD-DFT gradient, RPA, STAB
   Michael Roemelt        : Original ROCIS implementation
   Masaaki Saitow         : Open-shell DLPNO-CCSD energy and density
   Barbara Sandhoefer     : DKH picture change effects
   Avijit Sen             : IP-ROCIS
   Kantharuban Sivalingam : CASSCF convergence, NEVPT2, FIC-MRCI
   Bernardo de Souza      : ESD, SOC TD-DFT
   Georgi Stoychev        : AutoAux, RI-MP2 NMR
   Willem Van den Heuvel  : Paramagnetic NMR
   Boris Wezisla          : Elementary symmetry handling
   Frank Wennmohs         : Technical directorship


 We gratefully acknowledge several colleagues who have allowed us to
 interface, adapt or use parts of their codes:
   Stefan Grimme, W. Hujo, H. Kruse,             : VdW corrections, initial TS optimization,
                  C. Bannwarth                     DFT functionals, gCP, sTDA/sTD-DF
   Ed Valeev, F. Pavosevic, A. Kumar             : LibInt (2-el integral package), F12 methods
   Garnet Chan, S. Sharma, J. Yang, R. Olivares  : DMRG
   Ulf Ekstrom                                   : XCFun DFT Library
   Mihaly Kallay                                 : mrcc  (arbitrary order and MRCC methods)
   Andreas Klamt, Michael Diedenhofen            : otool_cosmo (COSMO solvation model)
   Jiri Pittner, Ondrej Demel                    : Mk-CCSD
   Frank Weinhold                                : gennbo (NPA and NBO analysis)
   Christopher J. Cramer and Donald G. Truhlar   : smd solvation model
   Lars Goerigk                                  : TD-DFT with DH, B97 family of functionals
   V. Asgeirsson, H. Jonsson                     : NEB implementation
   FAccTs GmbH                                   : IRC, NEB, NEB-TS, Multilevel, MM, QM/MM, CI optimization
   S Lehtola, MJT Oliveira, MAL Marques          : LibXC Library


 Your calculation uses the libint2 library for the computation of 2-el integrals
 For citations please refer to: http://libint.valeyev.net

 Your ORCA version has been built with support for libXC version: 4.2.3
 For citations please refer to: https://tddft.org/programs/libxc/

 This ORCA versions uses:
   CBLAS   interface :  Fast vector & matrix operations
   LAPACKE interface :  Fast linear algebra routines
   SCALAPACK package :  Parallel linear algebra routines


Your calculation utilizes the atom-pairwise dispersion correction
with the Becke-Johnson damping scheme (D3BJ)
Cite in your paper:
S.Grimme, S.Ehrlich, L.Goerigk, J Comput Chem, (2011), 32, 1456–1465 
S.Grimme, J.Antony, S.Ehrlich and H.Krieg, J.Chem.Phys., 132, (2010), 154104 
   

----- Orbital basis set information -----
Your calculation utilizes the basis: aug-cc-pV(T+d)Z 
             Al - Ar: T.H. Dunning, Jr., K. A. Peterson and A. K. Wilson, J. Chem. Phys.
                      114, 9244 (2001)

----- AuxJ basis set information -----
Your calculation utilizes the auxiliary basis: def2/J
   F. Weigend, Phys. Chem. Chem. Phys. 8, 1057 (2006).

================================================================================
                                        WARNINGS
                       Please study these warnings very carefully!
================================================================================


WARNING: Geometry Optimization
  ===> : Switching off AutoStart
         For restart on a previous wavefunction, please use MOREAD

WARNING: The SCAN functional is very grid-sensitive!
         Use at least GRID5 and a higher intacc

INFO   : the flag for use of LIBINT has been found!

================================================================================
                                       INPUT FILE
================================================================================
NAME = 13_CS.in
|  1> #
|  2> # 13_CS scanfunc/aug-cc-pvt(+d)z
|  3> #
|  4> ! scanfunc d3bj aug-cc-pvt(+d)z def2/j opt xyzfile numfreq
|  5> 
|  6> *xyz 0 1
|  7> C           -0.000000200         -0.000000107          0.006732513
|  8> S            0.000000200          0.000000107          1.532967485
|  9> *
| 10> 
| 11> %pal
| 12> nprocs 24
| 13> end
| 14> 
| 15> 
| 16>                          ****END OF INPUT****
================================================================================

                       *****************************
                       * Geometry Optimization Run *
                       *****************************

Geometry optimization settings:
Update method            Update   .... BFGS
Choice of coordinates    CoordSys .... Z-matrix Internals
Initial Hessian          InHess   .... Almoef's Model

Convergence Tolerances:
Energy Change            TolE     ....  5.0000e-06 Eh
Max. Gradient            TolMAXG  ....  3.0000e-04 Eh/bohr
RMS Gradient             TolRMSG  ....  1.0000e-04 Eh/bohr
Max. Displacement        TolMAXD  ....  4.0000e-03 bohr
RMS Displacement         TolRMSD  ....  2.0000e-03 bohr
Strict Convergence                ....  False
------------------------------------------------------------------------------
                        ORCA OPTIMIZATION COORDINATE SETUP
------------------------------------------------------------------------------

The optimization will be done in new redundant internal coordinates
Making redundant internal coordinates   ...  (new redundants) done
Evaluating the initial hessian          ...  (Almloef) done
Evaluating the coordinates              ...  done
Calculating the B-matrix                .... done
Calculating the G-matrix                .... done
Diagonalizing the G-matrix              .... done
The first mode is                       ....    0
The number of degrees of freedom        ....    1

    -----------------------------------------------------------------
                    Redundant Internal Coordinates


    -----------------------------------------------------------------
         Definition                    Initial Value    Approx d2E/dq
    -----------------------------------------------------------------
      1. B(S   1,C   0)                  1.5262         1.021297   
    -----------------------------------------------------------------

Number of atoms                         .... 2
Number of degrees of freedom            .... 1

         *************************************************************
         *                GEOMETRY OPTIMIZATION CYCLE   1            *
         *************************************************************
---------------------------------
CARTESIAN COORDINATES (ANGSTROEM)
---------------------------------
  C     -0.000000   -0.000000    0.006733
  S      0.000000    0.000000    1.532967

----------------------------
CARTESIAN COORDINATES (A.U.)
----------------------------
  NO LB      ZA    FRAG     MASS         X           Y           Z
   0 C     6.0000    0    12.011   -0.000000   -0.000000    0.012723
   1 S    16.0000    0    32.060    0.000000    0.000000    2.896889

--------------------------------
INTERNAL COORDINATES (ANGSTROEM)
--------------------------------
 C      0   0   0     0.000000000000     0.00000000     0.00000000
 S      1   0   0     1.526234972000     0.00000000     0.00000000

---------------------------
INTERNAL COORDINATES (A.U.)
---------------------------
 C      0   0   0     0.000000000000     0.00000000     0.00000000
 S      1   0   0     2.884166113093     0.00000000     0.00000000

---------------------
BASIS SET INFORMATION
---------------------
There are 2 groups of distinct atoms

 Group   1 Type C   : 19s6p3d2f contracted to 5s4p3d2f pattern {88111/3111/111/11}
 Group   2 Type S   : 42s17p4d2f contracted to 6s5p4d2f pattern {131313111/77111/1111/11}

Atom   0C    basis set group =>   1
Atom   1S    basis set group =>   2
---------------------------------
AUXILIARY/J BASIS SET INFORMATION
---------------------------------
There are 2 groups of distinct atoms

 Group   1 Type C   : 12s5p4d2f1g contracted to 6s4p3d1f1g pattern {711111/2111/211/2/1}
 Group   2 Type S   : 14s5p5d2f1g contracted to 8s4p3d1f1g pattern {71111111/2111/311/2/1}

Atom   0C    basis set group =>   1
Atom   1S    basis set group =>   2


           ************************************************************
           *        Program running with 24 parallel MPI-processes    *
           *              working on a common directory               *
           ************************************************************
------------------------------------------------------------------------------
                           ORCA GTO INTEGRAL CALCULATION
                           -- RI-GTO INTEGRALS CHOSEN --
------------------------------------------------------------------------------

                         BASIS SET STATISTICS AND STARTUP INFO

Gaussian basis set:
 # of primitive gaussian shells          ...   95
 # of primitive gaussian functions       ...  193
 # of contracted shells                  ...   31
 # of contracted basis functions         ...  101
 Highest angular momentum                ...    3
 Maximum contraction depth               ...   13
Auxiliary gaussian basis set:
 # of primitive gaussian shells          ...   51
 # of primitive gaussian functions       ...  147
 # of contracted shells                  ...   32
 # of contracted aux-basis functions     ...  100
 Highest angular momentum                ...    4
 Maximum contraction depth               ...    7
Ratio of auxiliary to basis functions    ...  0.99
Integral package used                  ... LIBINT
 One Electron integrals                  ... done
 Ordering auxiliary basis shells         ... done
 Integral threshhold             Thresh  ...  2.500e-11
 Primitive cut-off               TCut    ...  2.500e-12
 Pre-screening matrix                    ... done
 Shell pair data                         ... 
 Ordering of the shell pairs             ... done (   0.000 sec) 496 of 496 pairs
 Determination of significant pairs      ... done (   0.000 sec)
 Creation of shell pair data             ... done (   0.000 sec)
 Storage of shell pair data              ... done (   0.001 sec)
 Shell pair data done in (   0.001 sec)
 Computing two index integrals           ... done
 Cholesky decomposition of the V-matrix  ... done


Timings:
 Total evaluation time                   ...   0.211 sec (  0.004 min)
 One electron matrix time                ...   0.010 sec (  0.000 min) =  4.9%
 Schwartz matrix evaluation time         ...   0.175 sec (  0.003 min) = 82.9%
 Two index repulsion integral time       ...   0.000 sec (  0.000 min) =  0.2%
 Cholesky decomposition of V             ...   0.001 sec (  0.000 min) =  0.3%
 Three index repulsion integral time     ...   0.000 sec (  0.000 min) =  0.0%



           ************************************************************
           *        Program running with 24 parallel MPI-processes    *
           *              working on a common directory               *
           ************************************************************
-------------------------------------------------------------------------------
                                 ORCA SCF
-------------------------------------------------------------------------------

------------
SCF SETTINGS
------------
Hamiltonian:
 Density Functional     Method          .... DFT(GTOs)
 Exchange Functional    Exchange        .... SCAN
 Correlation Functional Correlation     .... SCAN
 Gradients option       PostSCFGGA      .... off
   Density functional embedding theory  .... OFF
   NL short-range parameter             ....  6.400000
 RI-approximation to the Coulomb term is turned on
   Number of auxiliary basis functions  .... 100


General Settings:
 Integral files         IntName         .... 13_CS
 Hartree-Fock type      HFTyp           .... RHF
 Total Charge           Charge          ....    0
 Multiplicity           Mult            ....    1
 Number of Electrons    NEL             ....   22
 Basis Dimension        Dim             ....  101
 Nuclear Repulsion      ENuc            ....     33.2851840829 Eh

Convergence Acceleration:
 DIIS                   CNVDIIS         .... on
   Start iteration      DIISMaxIt       ....    12
   Startup error        DIISStart       ....  0.200000
   # of expansion vecs  DIISMaxEq       ....     5
   Bias factor          DIISBfac        ....   1.050
   Max. coefficient     DIISMaxC        ....  10.000
 Newton-Raphson         CNVNR           .... off
 SOSCF                  CNVSOSCF        .... on
   Start iteration      SOSCFMaxIt      ....   150
   Startup grad/error   SOSCFStart      ....  0.003300
 Level Shifting         CNVShift        .... on
   Level shift para.    LevelShift      ....    0.2500
   Turn off err/grad.   ShiftErr        ....    0.0010
 Zerner damping         CNVZerner       .... off
 Static damping         CNVDamp         .... on
   Fraction old density DampFac         ....    0.7000
   Max. Damping (<1)    DampMax         ....    0.9800
   Min. Damping (>=0)   DampMin         ....    0.0000
   Turn off err/grad.   DampErr         ....    0.1000
 Fernandez-Rico         CNVRico         .... off

SCF Procedure:
 Maximum # iterations   MaxIter         ....   125
 SCF integral mode      SCFMode         .... Direct
   Integral package                     .... LIBINT
 Reset frequency        DirectResetFreq ....    20
 Integral Threshold     Thresh          ....  2.500e-11 Eh
 Primitive CutOff       TCut            ....  2.500e-12 Eh

Convergence Tolerance:
 Convergence Check Mode ConvCheckMode   .... Total+1el-Energy
 Convergence forced     ConvForced      .... 0
 Energy Change          TolE            ....  1.000e-08 Eh
 1-El. energy change                    ....  1.000e-05 Eh
 Orbital Gradient       TolG            ....  1.000e-05
 Orbital Rotation angle TolX            ....  1.000e-05
 DIIS Error             TolErr          ....  5.000e-07


Diagonalization of the overlap matrix:
Smallest eigenvalue                        ... 1.478e-04
Time for diagonalization                   ...    0.003 sec
Threshold for overlap eigenvalues          ... 1.000e-08
Number of eigenvalues below threshold      ... 0
Time for construction of square roots      ...    0.001 sec
Total time needed                          ...    0.005 sec

-------------------
DFT GRID GENERATION
-------------------

General Integration Accuracy     IntAcc      ...  4.340
Radial Grid Type                 RadialGrid  ... Gauss-Chebyshev
Angular Grid (max. acc.)         AngularGrid ... Lebedev-110
Angular grid pruning method      GridPruning ... 3 (G Style)
Weight generation scheme         WeightScheme... Becke
Basis function cutoff            BFCut       ...    1.0000e-11
Integration weight cutoff        WCut        ...    1.0000e-14
Grids for H and He will be reduced by one unit

# of grid points (after initial pruning)     ...   3462 (   0.0 sec)
# of grid points (after weights+screening)   ...   3437 (   0.0 sec)
nearest neighbour list constructed           ...    0.0 sec
Grid point re-assignment to atoms done       ...    0.0 sec
Grid point division into batches done        ...    0.0 sec
Reduced shell lists constructed in    0.0 sec

Total number of grid points                  ...     3437
Total number of batches                      ...       55
Average number of points per batch           ...       62
Average number of grid points per atom       ...     1718
Average number of shells per batch           ...    18.25 (58.87%)
Average number of basis functions per batch  ...    59.75 (59.16%)
Average number of large shells per batch     ...    13.75 (75.34%)
Average number of large basis fcns per batch ...    45.25 (75.73%)
Maximum spatial batch extension              ...  18.60, 31.36, 16.88 au
Average spatial batch extension              ...   0.96,  1.45,  0.91 au

Time for grid setup =    0.017 sec

------------------------------
INITIAL GUESS: MODEL POTENTIAL
------------------------------
Loading Hartree-Fock densities                     ... done
Calculating cut-offs                               ... done
Setting up the integral package                    ... done
Initializing the effective Hamiltonian             ... done
Starting the Coulomb interaction                   ... done (   0.0 sec)
Reading the grid                                   ... done
Mapping shells                                     ... done
Starting the XC term evaluation                    ... done (   0.0 sec)
  promolecular density results
     # of electrons  =     22.000093300
     EX              =    -33.379173654
     EC              =     -0.367989854
     EX+EC           =    -33.747163508
Transforming the Hamiltonian                       ... done (   0.0 sec)
Diagonalizing the Hamiltonian                      ... done (   0.0 sec)
Back transforming the eigenvectors                 ... done (   0.0 sec)
Now organizing SCF variables                       ... done
                      ------------------
                      INITIAL GUESS DONE (   0.1 sec)
                      ------------------
--------------
SCF ITERATIONS
--------------
ITER       Energy         Delta-E        Max-DP      RMS-DP      [F,P]     Damp
               ***  Starting incremental Fock matrix formation  ***
  0   -436.1421037673   0.000000000000 0.05433768  0.00213214  0.2213791 0.7000
  1   -436.1943180399  -0.052214272504 0.03381627  0.00135590  0.0881089 0.7000
                               ***Turning on DIIS***
  2   -436.2080504602  -0.013732420326 0.09355162  0.00243558  0.0472884 0.0000
  3   -436.2363669983  -0.028316538088 0.02784925  0.00106119  0.0472252 0.0000
  4   -436.2403336438  -0.003966645504 0.02544090  0.00052139  0.0389891 0.0000
  5   -436.2429133926  -0.002579748832 0.00556835  0.00014263  0.0120604 0.0000
  6   -436.2431359827  -0.000222590136 0.00251949  0.00005759  0.0044713 0.0000
                      *** Initiating the SOSCF procedure ***
                           *** Shutting down DIIS ***
                      *** Re-Reading the Fockian *** 
                      *** Removing any level shift *** 
ITER      Energy       Delta-E        Grad      Rot      Max-DP    RMS-DP
  7   -436.24316500  -0.0000290145  0.000300  0.000300  0.000844  0.000021
               *** Restarting incremental Fock matrix formation ***
  8   -436.24316894  -0.0000039466  0.000458  0.002070  0.001427  0.000038
  9   -436.24315846   0.0000104858  0.001474  0.001459  0.001094  0.000029
 10   -436.24317005  -0.0000115871  0.000022  0.000016  0.000119  0.000002
 11   -436.24317003   0.0000000151  0.000006  0.000008  0.000018  0.000001
                  ***Gradient check signals convergence***
              ***Rediagonalizing the Fockian in SOSCF/NRSCF***

               *****************************************************
               *                     SUCCESS                       *
               *           SCF CONVERGED AFTER  12 CYCLES          *
               *****************************************************

Setting up the final grid:

General Integration Accuracy     IntAcc      ...  4.670
Radial Grid Type                 RadialGrid  ... Gauss-Chebyshev
Angular Grid (max. acc.)         AngularGrid ... Lebedev-302
Angular grid pruning method      GridPruning ... 3 (G Style)
Weight generation scheme         WeightScheme... Becke
Basis function cutoff            BFCut       ...    1.0000e-11
Integration weight cutoff        WCut        ...    1.0000e-14
Grids for H and He will be reduced by one unit

# of grid points (after initial pruning)     ...  13058 (   0.0 sec)
# of grid points (after weights+screening)   ...  13029 (   0.0 sec)
nearest neighbour list constructed           ...    0.0 sec
Grid point re-assignment to atoms done       ...    0.0 sec
Grid point division into batches done        ...    0.1 sec
Reduced shell lists constructed in    0.1 sec

Total number of grid points                  ...    13029
Total number of batches                      ...      205
Average number of points per batch           ...       63
Average number of grid points per atom       ...     6514
Average number of shells per batch           ...     8.60 (27.74%)
Average number of basis functions per batch  ...    23.60 (23.37%)
Average number of large shells per batch     ...     6.00 (69.77%)
Average number of large basis fcns per batch ...    17.40 (73.73%)
Maximum spatial batch extension              ...  23.02, 23.02, 13.86 au
Average spatial batch extension              ...   0.78,  0.78,  0.52 au

Final grid set up in    0.1 sec
Final integration                            ... done (   0.0 sec)
Change in XC energy                          ...    -0.044370194
Integrated number of electrons               ...    22.000003204
Previous integrated no of electrons          ...    22.000129924

----------------
TOTAL SCF ENERGY
----------------

Total Energy       :         -436.28754022 Eh          -11871.98753 eV

Components:
Nuclear Repulsion  :           33.28518408 Eh             905.73591 eV
Electronic Energy  :         -469.57272431 Eh          -12777.72344 eV
One Electron Energy:         -666.33228635 Eh          -18131.82332 eV
Two Electron Energy:          196.75956204 Eh            5354.09988 eV

Virial components:
Potential Energy   :         -871.42316509 Eh          -23712.62985 eV
Kinetic Energy     :          435.13562487 Eh           11840.64232 eV
Virial Ratio       :            2.00264726


DFT components:
N(Alpha)           :       11.000001602158 electrons
N(Beta)            :       11.000001602158 electrons
N(Total)           :       22.000003204316 electrons
E(X)               :      -30.242383442809 Eh       
E(C)               :       -0.782678599596 Eh       
E(XC)              :      -31.025062042405 Eh       
DFET-embed. en.    :        0.000000000000 Eh       

---------------
SCF CONVERGENCE
---------------

  Last Energy change         ...   -1.4836e-10  Tolerance :   1.0000e-08
  Last MAX-Density change    ...    6.4605e-06  Tolerance :   1.0000e-07
  Last RMS-Density change    ...    1.3631e-07  Tolerance :   5.0000e-09
  Last Orbital Gradient      ...    1.4037e-06  Tolerance :   1.0000e-05
  Last Orbital Rotation      ...    1.2781e-06  Tolerance :   1.0000e-05

             **** THE GBW FILE WAS UPDATED (13_CS.gbw) ****
             **** DENSITY FILE WAS UPDATED (13_CS.scfp) ****
             **** ENERGY FILE WAS UPDATED (13_CS.en.tmp) ****
             **** THE GBW FILE WAS UPDATED (13_CS.gbw) ****
             **** DENSITY FILE WAS UPDATED (13_CS.scfp) ****
----------------
ORBITAL ENERGIES
----------------

  NO   OCC          E(Eh)            E(eV) 
   0   2.0000     -88.582984     -2410.4655 
   1   2.0000     -10.113253      -275.1956 
   2   2.0000      -7.940057      -216.0599 
   3   2.0000      -5.878085      -159.9508 
   4   2.0000      -5.878085      -159.9508 
   5   2.0000      -5.873460      -159.8250 
   6   2.0000      -0.807755       -21.9801 
   7   2.0000      -0.499742       -13.5987 
   8   2.0000      -0.338873        -9.2212 
   9   2.0000      -0.338873        -9.2212 
  10   2.0000      -0.286274        -7.7899 
  11   0.0000      -0.117590        -3.1998 
  12   0.0000      -0.117590        -3.1998 
  13   0.0000       0.029771         0.8101 
  14   0.0000       0.034291         0.9331 
  15   0.0000       0.065059         1.7703 
  16   0.0000       0.065059         1.7703 
  17   0.0000       0.108910         2.9636 
  18   0.0000       0.108910         2.9636 
  19   0.0000       0.114714         3.1215 
  20   0.0000       0.130827         3.5600 
  21   0.0000       0.142595         3.8802 
  22   0.0000       0.142804         3.8859 
  23   0.0000       0.185057         5.0357 
  24   0.0000       0.255174         6.9436 
  25   0.0000       0.255174         6.9436 
  26   0.0000       0.306632         8.3439 
  27   0.0000       0.321590         8.7509 
  28   0.0000       0.324758         8.8371 
  29   0.0000       0.361212         9.8291 
  30   0.0000       0.361212         9.8291 
  31   0.0000       0.381109        10.3705 
  32   0.0000       0.408089        11.1047 
  33   0.0000       0.408089        11.1047 
  34   0.0000       0.496706        13.5160 
  35   0.0000       0.511164        13.9095 
  36   0.0000       0.511567        13.9205 
  37   0.0000       0.540314        14.7027 
  38   0.0000       0.556159        15.1338 
  39   0.0000       0.556159        15.1338 
  40   0.0000       0.636549        17.3214 
  41   0.0000       0.636549        17.3214 
  42   0.0000       0.658389        17.9157 
  43   0.0000       0.703543        19.1444 
  44   0.0000       0.703543        19.1444 
  45   0.0000       0.775104        21.0917 
  46   0.0000       0.777733        21.1632 
  47   0.0000       0.787796        21.4370 
  48   0.0000       0.946914        25.7668 
  49   0.0000       0.946914        25.7668 
  50   0.0000       0.989928        26.9373 
  51   0.0000       0.990113        26.9424 
  52   0.0000       1.027516        27.9601 
  53   0.0000       1.069085        29.0913 
  54   0.0000       1.069085        29.0913 
  55   0.0000       1.203086        32.7376 
  56   0.0000       1.203086        32.7376 
  57   0.0000       1.297183        35.2981 
  58   0.0000       1.340031        36.4641 
  59   0.0000       1.342931        36.5430 
  60   0.0000       1.420779        38.6614 
  61   0.0000       1.502763        40.8923 
  62   0.0000       1.548257        42.1302 
  63   0.0000       1.548257        42.1302 
  64   0.0000       1.679393        45.6986 
  65   0.0000       1.680562        45.7304 
  66   0.0000       1.734285        47.1923 
  67   0.0000       1.734285        47.1923 
  68   0.0000       1.890742        51.4497 
  69   0.0000       2.021250        55.0010 
  70   0.0000       2.021250        55.0010 
  71   0.0000       2.098267        57.0968 
  72   0.0000       2.098267        57.0968 
  73   0.0000       2.122866        57.7661 
  74   0.0000       2.126768        57.8723 
  75   0.0000       2.176546        59.2268 
  76   0.0000       2.176546        59.2268 
  77   0.0000       2.201428        59.9039 
  78   0.0000       2.754568        74.9556 
  79   0.0000       2.811108        76.4941 
  80   0.0000       2.811108        76.4941 
  81   0.0000       3.107289        84.5536 
  82   0.0000       3.208056        87.2957 
  83   0.0000       3.208979        87.3207 
  84   0.0000       3.292427        89.5915 
  85   0.0000       3.292427        89.5915 
  86   0.0000       3.450194        93.8845 
  87   0.0000       3.456313        94.0510 
  88   0.0000       3.521802        95.8331 
  89   0.0000       3.521802        95.8331 
  90   0.0000       3.555493        96.7499 
  91   0.0000       3.689141       100.3866 
  92   0.0000       3.689141       100.3866 
  93   0.0000       4.005977       109.0082 
  94   0.0000       5.348834       145.5492 
  95   0.0000       6.774851       184.3531 
  96   0.0000       6.776049       184.3857 
  97   0.0000       6.908182       187.9812 
  98   0.0000       6.908182       187.9812 
  99   0.0000       7.139428       194.2737 
 100   0.0000       8.998230       244.8543 

                    ********************************
                    * MULLIKEN POPULATION ANALYSIS *
                    ********************************

-----------------------
MULLIKEN ATOMIC CHARGES
-----------------------
   0 C :   -0.395362
   1 S :    0.395362
Sum of atomic charges:    0.0000000

--------------------------------
MULLIKEN REDUCED ORBITAL CHARGES
--------------------------------
  0 C s       :     4.023562  s :     4.023562
      pz      :     1.102836  p :     2.280040
      px      :     0.588602
      py      :     0.588602
      dz2     :     0.012018  d :     0.082961
      dxz     :     0.035472
      dyz     :     0.035472
      dx2y2   :     0.000000
      dxy     :     0.000000
      f0      :     0.001811  f :     0.008799
      f+1     :     0.003494
      f-1     :     0.003494
      f+2     :     0.000000
      f-2     :    -0.000000
      f+3     :     0.000000
      f-3     :     0.000000
  1 S s       :     5.837758  s :     5.837758
      pz      :     2.989260  p :     9.694017
      px      :     3.352379
      py      :     3.352379
      dz2     :     0.028687  d :     0.065740
      dxz     :     0.018526
      dyz     :     0.018526
      dx2y2   :     0.000000
      dxy     :     0.000000
      f0      :     0.004068  f :     0.007123
      f+1     :     0.001527
      f-1     :     0.001527
      f+2     :     0.000000
      f-2     :    -0.000000
      f+3     :     0.000000
      f-3     :     0.000000


                     *******************************
                     * LOEWDIN POPULATION ANALYSIS *
                     *******************************

----------------------
LOEWDIN ATOMIC CHARGES
----------------------
   0 C :   -0.686458
   1 S :    0.686458

-------------------------------
LOEWDIN REDUCED ORBITAL CHARGES
-------------------------------
  0 C s       :     3.336962  s :     3.336962
      pz      :     1.415866  p :     2.656689
      px      :     0.620412
      py      :     0.620412
      dz2     :     0.212686  d :     0.485727
      dxz     :     0.136520
      dyz     :     0.136520
      dx2y2   :     0.000000
      dxy     :     0.000000
      f0      :     0.067353  f :     0.207080
      f+1     :     0.069864
      f-1     :     0.069864
      f+2     :     0.000000
      f-2     :     0.000000
      f+3     :     0.000000
      f-3     :     0.000000
  1 S s       :     5.354490  s :     5.354490
      pz      :     3.310891  p :     9.561510
      px      :     3.125309
      py      :     3.125309
      dz2     :     0.230474  d :     0.285688
      dxz     :     0.027607
      dyz     :     0.027607
      dx2y2   :     0.000000
      dxy     :     0.000000
      f0      :     0.071278  f :     0.111855
      f+1     :     0.020288
      f-1     :     0.020288
      f+2     :     0.000000
      f-2     :     0.000000
      f+3     :     0.000000
      f-3     :     0.000000


                      *****************************
                      * MAYER POPULATION ANALYSIS *
                      *****************************

  NA   - Mulliken gross atomic population
  ZA   - Total nuclear charge
  QA   - Mulliken gross atomic charge
  VA   - Mayer's total valence
  BVA  - Mayer's bonded valence
  FA   - Mayer's free valence

  ATOM       NA         ZA         QA         VA         BVA        FA
  0 C      6.3954     6.0000    -0.3954     2.3359     2.3359    -0.0000
  1 S     15.6046    16.0000     0.3954     2.3359     2.3359     0.0000

  Mayer bond orders larger than 0.100000
B(  0-C ,  1-S ) :   2.3359 

-------
TIMINGS
-------

Total SCF time: 0 days 0 hours 0 min 1 sec 

Total time                  ....       1.349 sec
Sum of individual times     ....       1.259 sec  ( 93.3%)

Fock matrix formation       ....       1.021 sec  ( 75.7%)
  Split-RI-J                ....       0.886 sec  ( 86.8% of F)
  XC integration            ....       0.107 sec  ( 10.5% of F)
    Basis function eval.    ....       0.010 sec  (  9.2% of XC)
    Density eval.           ....       0.011 sec  ( 10.4% of XC)
    XC-Functional eval.     ....       0.004 sec  (  3.8% of XC)
    XC-Potential eval.      ....       0.025 sec  ( 23.4% of XC)
Diagonalization             ....       0.011 sec  (  0.8%)
Density matrix formation    ....       0.003 sec  (  0.2%)
Population analysis         ....       0.003 sec  (  0.2%)
Initial guess               ....       0.109 sec  (  8.1%)
Orbital Transformation      ....       0.000 sec  (  0.0%)
Orbital Orthonormalization  ....       0.000 sec  (  0.0%)
DIIS solution               ....       0.005 sec  (  0.3%)
SOSCF solution              ....       0.004 sec  (  0.3%)
Grid generation             ....       0.104 sec  (  7.7%)


-------------------------------------------------------------------------------
                          DFT DISPERSION CORRECTION                            
                                                                               
                              DFTD3 V3.1  Rev 1                                
                          USING Becke-Johnson damping                          
-------------------------------------------------------------------------------
The SCAN functional is recognized
Active option DFTDOPT                   ...         4   

molecular C6(AA) [au] = 324.100157 


            DFT-D V3
 parameters
 s6 scaling factor         :     1.0000 
 a1 scaling factor         :     0.5380 
 s8 scaling factor         :     0.0000 
 a2 scaling factor         :     5.4200 
 ad hoc parameters k1-k3   :    16.0000     1.3333    -4.0000 

 Edisp/kcal,au: -0.106908850030  -0.000170370079 
 E6   /kcal   :  -0.106908850 
 E8   /kcal   :  -0.000000000 
 % E8         :   0.000000000 

-------------------------   ----------------
Dispersion correction           -0.000170370
-------------------------   ----------------


-------------------------   --------------------
FINAL SINGLE POINT ENERGY      -436.287710594669
-------------------------   --------------------



           ************************************************************
           *        Program running with 24 parallel MPI-processes    *
           *              working on a common directory               *
           ************************************************************
------------------------------------------------------------------------------
                         ORCA SCF GRADIENT CALCULATION
------------------------------------------------------------------------------

Gradient of the Kohn-Sham DFT energy:
Kohn-Sham wavefunction type      ... RKS
Hartree-Fock exchange scaling    ...    0.000
Number of operators              ...    1
Number of atoms                  ...    2
Basis set dimensions             ...  101
Integral neglect threshold       ... 2.5e-11
Integral primitive cutoff        ... 2.5e-12

Nuclear repulsion gradient       ... done
One Electron Gradient            ... done
Pre-screening matrix             ... done
RI-J gradient                    ... done
Exchange-correlation gradient    ... done
Dispersion correction            ... done

------------------
CARTESIAN GRADIENT
------------------

   1   C   :   -0.000000025   -0.000000030    0.041510347
   2   S   :    0.000000023    0.000000029   -0.039702504

Difference to translation invariance:
           :   -0.0000000019   -0.0000000009    0.0018078434

Norm of the cartesian gradient     ...    0.0574403844
RMS gradient                       ...    0.0234499388
MAX gradient                       ...    0.0415103474

-------
TIMINGS
-------

Total SCF gradient time            ...        0.363 sec

One electron gradient       ....       0.011 sec  (  3.1%)
Prescreening matrices       ....       0.038 sec  ( 10.5%)
RI-J Coulomb gradient       ....       0.090 sec  ( 24.8%)
XC gradient                 ....       0.015 sec  (  4.2%)
------------------------------------------------------------------------------
                         ORCA GEOMETRY RELAXATION STEP
------------------------------------------------------------------------------

Reading the OPT-File                    .... done
Getting information on internals        .... done
Copying old internal coords+grads       .... done
Making the new internal coordinates     .... (new redundants).... done
Validating the new internal coordinates .... (new redundants).... done
Calculating the B-matrix                .... done
Calculating the G,G- and P matrices     .... done
Transforming gradient to internals      .... done
Projecting the internal gradient        .... done
Number of atoms                         ....   2
Number of internal coordinates          ....   1
Current Energy                          ....  -436.287710595 Eh
Current gradient norm                   ....     0.057440384 Eh/bohr
Maximum allowed component of the step   ....  0.300
Current trust radius                    ....  0.300
Evaluating the initial hessian          ....  (Almloef) done
Projecting the Hessian                  .... done
Forming the augmented Hessian           .... done
Diagonalizing the augmented Hessian     .... done
Last element of RFO vector              ....  0.999213004
Lowest eigenvalues of augmented Hessian:
 -0.001611953
Length of the computed step             ....  0.039697003
The final length of the internal step   ....  0.039697003
Converting the step to cartesian space:
 Initial RMS(Int)=    0.0396970031
Transforming coordinates:
 Iter   0:  RMS(Cart)=    0.0114595377 RMS(Int)=    0.0396970031
 Iter   1:  RMS(Cart)=    0.0000000000 RMS(Int)=    0.0000000000
done
Storing new coordinates                 .... done

                                .--------------------.
          ----------------------|Geometry convergence|-------------------------
          Item                value                   Tolerance       Converged
          ---------------------------------------------------------------------
          RMS gradient        0.0406064257            0.0001000000      NO
          MAX gradient        0.0406064257            0.0003000000      NO
          RMS step            0.0396970031            0.0020000000      NO
          MAX step            0.0396970031            0.0040000000      NO
          ........................................................
          Max(Bonds)      0.0210      Max(Angles)    0.00
          Max(Dihed)        0.00      Max(Improp)    0.00
          ---------------------------------------------------------------------

The optimization has not yet converged - more geometry cycles are needed


    ---------------------------------------------------------------------------
                         Redundant Internal Coordinates
                            (Angstroem and degrees)

        Definition                    Value    dE/dq     Step     New-Value
    ----------------------------------------------------------------------------
     1. B(S   1,C   0)                1.5262 -0.040606  0.0210    1.5472   
    ----------------------------------------------------------------------------

         *************************************************************
         *                GEOMETRY OPTIMIZATION CYCLE   2            *
         *************************************************************
---------------------------------
CARTESIAN COORDINATES (ANGSTROEM)
---------------------------------
  C     -0.000000   -0.000000   -0.003771
  S      0.000000    0.000000    1.543471

----------------------------
CARTESIAN COORDINATES (A.U.)
----------------------------
  NO LB      ZA    FRAG     MASS         X           Y           Z
   0 C     6.0000    0    12.011   -0.000000   -0.000000   -0.007126
   1 S    16.0000    0    32.060    0.000000    0.000000    2.916737

--------------------------------
INTERNAL COORDINATES (ANGSTROEM)
--------------------------------
 C      0   0   0     0.000000000000     0.00000000     0.00000000
 S      1   0   0     1.547241721271     0.00000000     0.00000000

---------------------------
INTERNAL COORDINATES (A.U.)
---------------------------
 C      0   0   0     0.000000000000     0.00000000     0.00000000
 S      1   0   0     2.923863116179     0.00000000     0.00000000



           ************************************************************
           *        Program running with 24 parallel MPI-processes    *
           *              working on a common directory               *
           ************************************************************
 One Electron integrals                  ... done
 Pre-screening matrix                    ... done


           ************************************************************
           *        Program running with 24 parallel MPI-processes    *
           *              working on a common directory               *
           ************************************************************

Diagonalization of the overlap matrix:
Smallest eigenvalue                        ... 1.552e-04
Time for diagonalization                   ...    0.003 sec
Threshold for overlap eigenvalues          ... 1.000e-08
Number of eigenvalues below threshold      ... 0
Time for construction of square roots      ...    0.001 sec
Total time needed                          ...    0.005 sec

-------------------
DFT GRID GENERATION
-------------------

General Integration Accuracy     IntAcc      ...  4.340
Radial Grid Type                 RadialGrid  ... Gauss-Chebyshev
Angular Grid (max. acc.)         AngularGrid ... Lebedev-110
Angular grid pruning method      GridPruning ... 3 (G Style)
Weight generation scheme         WeightScheme... Becke
Basis function cutoff            BFCut       ...    1.0000e-11
Integration weight cutoff        WCut        ...    1.0000e-14
Grids for H and He will be reduced by one unit

# of grid points (after initial pruning)     ...   3462 (   0.0 sec)
# of grid points (after weights+screening)   ...   3437 (   0.0 sec)
nearest neighbour list constructed           ...    0.0 sec
Grid point re-assignment to atoms done       ...    0.0 sec
Grid point division into batches done        ...    0.0 sec
Reduced shell lists constructed in    0.0 sec

Total number of grid points                  ...     3437
Total number of batches                      ...       55
Average number of points per batch           ...       62
Average number of grid points per atom       ...     1718
Average number of shells per batch           ...    18.25 (58.87%)
Average number of basis functions per batch  ...    59.75 (59.16%)
Average number of large shells per batch     ...    13.75 (75.34%)
Average number of large basis fcns per batch ...    45.25 (75.73%)
Maximum spatial batch extension              ...  18.60, 31.36, 16.92 au
Average spatial batch extension              ...   0.96,  1.45,  0.91 au

Time for grid setup =    0.013 sec

--------------
SCF ITERATIONS
--------------
ITER       Energy         Delta-E        Max-DP      RMS-DP      [F,P]     Damp
               ***  Starting incremental Fock matrix formation  ***
  0   -436.2427830007   0.000000000000 0.00192263  0.00008059  0.0095807 0.7000
                      *** Initiating the SOSCF procedure ***
                      *** Re-Reading the Fockian *** 
                      *** Removing any level shift *** 
ITER      Energy       Delta-E        Grad      Rot      Max-DP    RMS-DP
  1   -436.24283895  -0.0000559507  0.000549  0.000549  0.005374  0.000212
               *** Restarting incremental Fock matrix formation ***
  2   -436.24292011  -0.0000811607  0.001953  0.009081  0.006499  0.000195
  3   -436.24265940   0.0002607105  0.007308  0.007352  0.005324  0.000147
  4   -436.24294562  -0.0002862153  0.000227  0.000383  0.000703  0.000022
  5   -436.24294595  -0.0000003361  0.000190  0.000198  0.000315  0.000011
  6   -436.24294693  -0.0000009763  0.000005  0.000009  0.000019  0.000001
                  ***Gradient check signals convergence***
              ***Rediagonalizing the Fockian in SOSCF/NRSCF***

               *****************************************************
               *                     SUCCESS                       *
               *           SCF CONVERGED AFTER   7 CYCLES          *
               *****************************************************

Setting up the final grid:

General Integration Accuracy     IntAcc      ...  4.670
Radial Grid Type                 RadialGrid  ... Gauss-Chebyshev
Angular Grid (max. acc.)         AngularGrid ... Lebedev-302
Angular grid pruning method      GridPruning ... 3 (G Style)
Weight generation scheme         WeightScheme... Becke
Basis function cutoff            BFCut       ...    1.0000e-11
Integration weight cutoff        WCut        ...    1.0000e-14
Grids for H and He will be reduced by one unit

# of grid points (after initial pruning)     ...  13058 (   0.0 sec)
# of grid points (after weights+screening)   ...  13029 (   0.0 sec)
nearest neighbour list constructed           ...    0.0 sec
Grid point re-assignment to atoms done       ...    0.0 sec
Grid point division into batches done        ...    0.1 sec
Reduced shell lists constructed in    0.1 sec

Total number of grid points                  ...    13029
Total number of batches                      ...      205
Average number of points per batch           ...       63
Average number of grid points per atom       ...     6514
Average number of shells per batch           ...     8.60 (27.74%)
Average number of basis functions per batch  ...    23.60 (23.37%)
Average number of large shells per batch     ...     6.00 (69.77%)
Average number of large basis fcns per batch ...    17.40 (73.73%)
Maximum spatial batch extension              ...  23.02, 23.02, 13.86 au
Average spatial batch extension              ...   0.78,  0.78,  0.52 au

Final grid set up in    0.1 sec
Final integration                            ... done (   0.1 sec)
Change in XC energy                          ...    -0.044540871
Integrated number of electrons               ...    22.000001153
Previous integrated no of electrons          ...    22.000135706
Total Energy       :         -436.28748781 Eh          -11871.98610 eV
  Last Energy change         ...   -6.3905e-09  Tolerance :   1.0000e-08
  Last MAX-Density change    ...    1.5404e-05  Tolerance :   1.0000e-07
             **** THE GBW FILE WAS UPDATED (13_CS.gbw) ****
             **** DENSITY FILE WAS UPDATED (13_CS.scfp) ****
             **** ENERGY FILE WAS UPDATED (13_CS.en.tmp) ****
             **** THE GBW FILE WAS UPDATED (13_CS.gbw) ****
             **** DENSITY FILE WAS UPDATED (13_CS.scfp) ****
Total SCF time: 0 days 0 hours 0 min 1 sec 


-------------------------------------------------------------------------------
                          DFT DISPERSION CORRECTION                            
                                                                               
                              DFTD3 V3.1  Rev 1                                
                          USING Becke-Johnson damping                          
-------------------------------------------------------------------------------
-------------------------   ----------------
Dispersion correction           -0.000170351
-------------------------   ----------------


-------------------------   --------------------
FINAL SINGLE POINT ENERGY      -436.287658157751
-------------------------   --------------------



           ************************************************************
           *        Program running with 24 parallel MPI-processes    *
           *              working on a common directory               *
           ************************************************************
------------------------------------------------------------------------------
                         ORCA SCF GRADIENT CALCULATION
------------------------------------------------------------------------------

Gradient of the Kohn-Sham DFT energy:
Kohn-Sham wavefunction type      ... RKS
Hartree-Fock exchange scaling    ...    0.000
Number of operators              ...    1
Number of atoms                  ...    2
Basis set dimensions             ...  101
Integral neglect threshold       ... 2.5e-11
Integral primitive cutoff        ... 2.5e-12

Nuclear repulsion gradient       ... done
One Electron Gradient            ... done
Pre-screening matrix             ... done
RI-J gradient                    ... done
Exchange-correlation gradient    ... done
Dispersion correction            ... done

------------------
CARTESIAN GRADIENT
------------------

   1   C   :   -0.000000025   -0.000000035    0.024023605
   2   S   :    0.000000030    0.000000031   -0.021327054

Difference to translation invariance:
           :    0.0000000056   -0.0000000039    0.0026965511

Norm of the cartesian gradient     ...    0.0321243960
RMS gradient                       ...    0.0131147297
MAX gradient                       ...    0.0240236049

-------
TIMINGS
-------

Total SCF gradient time            ...        0.370 sec

One electron gradient       ....       0.004 sec  (  1.1%)
Prescreening matrices       ....       0.038 sec  ( 10.3%)
RI-J Coulomb gradient       ....       0.090 sec  ( 24.3%)
XC gradient                 ....       0.015 sec  (  4.0%)
------------------------------------------------------------------------------
                         ORCA GEOMETRY RELAXATION STEP
------------------------------------------------------------------------------

Reading the OPT-File                    .... done
Getting information on internals        .... done
Copying old internal coords+grads       .... done
Making the new internal coordinates     .... (new redundants).... done
Validating the new internal coordinates .... (new redundants).... done
Calculating the B-matrix                .... done
Calculating the G,G- and P matrices     .... done
Transforming gradient to internals      .... done
Projecting the internal gradient        .... done
Number of atoms                         ....   2
Number of internal coordinates          ....   1
Current Energy                          ....  -436.287658158 Eh
Current gradient norm                   ....     0.032124396 Eh/bohr
Maximum allowed component of the step   ....  0.300
Current trust radius                    ....  0.300
Updating the Hessian (BFGS)             .... done
Forming the augmented Hessian           .... done
Diagonalizing the augmented Hessian     .... done
Last element of RFO vector              ....  0.998748639
Lowest eigenvalues of augmented Hessian:
 -0.001135449
Length of the computed step             ....  0.050074215
The final length of the internal step   ....  0.050074215
Converting the step to cartesian space:
 Initial RMS(Int)=    0.0500742152
Transforming coordinates:
 Iter   0:  RMS(Cart)=    0.0144551808 RMS(Int)=    0.0500742152
 Iter   1:  RMS(Cart)=    0.0000000000 RMS(Int)=    0.0000000000
done
Storing new coordinates                 .... done

                                .--------------------.
          ----------------------|Geometry convergence|-------------------------
          Item                value                   Tolerance       Converged
          ---------------------------------------------------------------------
          Energy change       0.0000524369            0.0000050000      NO
          RMS gradient        0.0226753294            0.0001000000      NO
          MAX gradient        0.0226753294            0.0003000000      NO
          RMS step            0.0500742152            0.0020000000      NO
          MAX step            0.0500742152            0.0040000000      NO
          ........................................................
          Max(Bonds)      0.0265      Max(Angles)    0.00
          Max(Dihed)        0.00      Max(Improp)    0.00
          ---------------------------------------------------------------------

The optimization has not yet converged - more geometry cycles are needed


    ---------------------------------------------------------------------------
                         Redundant Internal Coordinates
                            (Angstroem and degrees)

        Definition                    Value    dE/dq     Step     New-Value
    ----------------------------------------------------------------------------
     1. B(S   1,C   0)                1.5472 -0.022675  0.0265    1.5737   
    ----------------------------------------------------------------------------

         *************************************************************
         *                GEOMETRY OPTIMIZATION CYCLE   3            *
         *************************************************************
---------------------------------
CARTESIAN COORDINATES (ANGSTROEM)
---------------------------------
  C     -0.000000   -0.000000   -0.017020
  S      0.000000    0.000000    1.556720

----------------------------
CARTESIAN COORDINATES (A.U.)
----------------------------
  NO LB      ZA    FRAG     MASS         X           Y           Z
   0 C     6.0000    0    12.011   -0.000000   -0.000000   -0.032163
   1 S    16.0000    0    32.060    0.000000    0.000000    2.941774

--------------------------------
INTERNAL COORDINATES (ANGSTROEM)
--------------------------------
 C      0   0   0     0.000000000000     0.00000000     0.00000000
 S      1   0   0     1.573739854685     0.00000000     0.00000000

---------------------------
INTERNAL COORDINATES (A.U.)
---------------------------
 C      0   0   0     0.000000000000     0.00000000     0.00000000
 S      1   0   0     2.973937331392     0.00000000     0.00000000



           ************************************************************
           *        Program running with 24 parallel MPI-processes    *
           *              working on a common directory               *
           ************************************************************
 One Electron integrals                  ... done
 Pre-screening matrix                    ... done


           ************************************************************
           *        Program running with 24 parallel MPI-processes    *
           *              working on a common directory               *
           ************************************************************

Diagonalization of the overlap matrix:
Smallest eigenvalue                        ... 1.651e-04
Time for diagonalization                   ...    0.003 sec
Threshold for overlap eigenvalues          ... 1.000e-08
Number of eigenvalues below threshold      ... 0
Time for construction of square roots      ...    0.002 sec
Total time needed                          ...    0.005 sec

-------------------
DFT GRID GENERATION
-------------------

General Integration Accuracy     IntAcc      ...  4.340
Radial Grid Type                 RadialGrid  ... Gauss-Chebyshev
Angular Grid (max. acc.)         AngularGrid ... Lebedev-110
Angular grid pruning method      GridPruning ... 3 (G Style)
Weight generation scheme         WeightScheme... Becke
Basis function cutoff            BFCut       ...    1.0000e-11
Integration weight cutoff        WCut        ...    1.0000e-14
Grids for H and He will be reduced by one unit

# of grid points (after initial pruning)     ...   3462 (   0.0 sec)
# of grid points (after weights+screening)   ...   3437 (   0.0 sec)
nearest neighbour list constructed           ...    0.0 sec
Grid point re-assignment to atoms done       ...    0.0 sec
Grid point division into batches done        ...    0.0 sec
Reduced shell lists constructed in    0.0 sec

Total number of grid points                  ...     3437
Total number of batches                      ...       54
Average number of points per batch           ...       63
Average number of grid points per atom       ...     1718
Average number of shells per batch           ...    18.25 (58.87%)
Average number of basis functions per batch  ...    59.75 (59.16%)
Average number of large shells per batch     ...    13.75 (75.34%)
Average number of large basis fcns per batch ...    45.25 (75.73%)
Maximum spatial batch extension              ...  18.60, 31.36, 16.97 au
Average spatial batch extension              ...   0.97,  1.48,  0.93 au

Time for grid setup =    0.013 sec

--------------
SCF ITERATIONS
--------------
ITER       Energy         Delta-E        Max-DP      RMS-DP      [F,P]     Damp
               ***  Starting incremental Fock matrix formation  ***
  0   -436.2412221063   0.000000000000 0.00240970  0.00009797  0.0119042 0.7000
                      *** Initiating the SOSCF procedure ***
                      *** Re-Reading the Fockian *** 
                      *** Removing any level shift *** 
ITER      Energy       Delta-E        Grad      Rot      Max-DP    RMS-DP
  1   -436.24130753  -0.0000854271  0.000666  0.000666  0.006510  0.000257
               *** Restarting incremental Fock matrix formation ***
  2   -436.24143661  -0.0001290768  0.002326  0.011208  0.007906  0.000238
  3   -436.24103803   0.0003985845  0.009047  0.009138  0.006579  0.000181
  4   -436.24147288  -0.0004348557  0.000300  0.000548  0.000910  0.000029
  5   -436.24147338  -0.0000005023  0.000266  0.000282  0.000418  0.000015
  6   -436.24147512  -0.0000017372  0.000007  0.000011  0.000029  0.000001
  7   -436.24147513  -0.0000000072  0.000003  0.000003  0.000019  0.000000
                 **** Energy Check signals convergence ****
              ***Rediagonalizing the Fockian in SOSCF/NRSCF***

               *****************************************************
               *                     SUCCESS                       *
               *           SCF CONVERGED AFTER   8 CYCLES          *
               *****************************************************

Setting up the final grid:

General Integration Accuracy     IntAcc      ...  4.670
Radial Grid Type                 RadialGrid  ... Gauss-Chebyshev
Angular Grid (max. acc.)         AngularGrid ... Lebedev-302
Angular grid pruning method      GridPruning ... 3 (G Style)
Weight generation scheme         WeightScheme... Becke
Basis function cutoff            BFCut       ...    1.0000e-11
Integration weight cutoff        WCut        ...    1.0000e-14
Grids for H and He will be reduced by one unit

# of grid points (after initial pruning)     ...  13058 (   0.0 sec)
# of grid points (after weights+screening)   ...  13029 (   0.0 sec)
nearest neighbour list constructed           ...    0.0 sec
Grid point re-assignment to atoms done       ...    0.0 sec
Grid point division into batches done        ...    0.1 sec
Reduced shell lists constructed in    0.1 sec

Total number of grid points                  ...    13029
Total number of batches                      ...      205
Average number of points per batch           ...       63
Average number of grid points per atom       ...     6514
Average number of shells per batch           ...     8.60 (27.74%)
Average number of basis functions per batch  ...    23.60 (23.37%)
Average number of large shells per batch     ...     6.00 (69.77%)
Average number of large basis fcns per batch ...    17.40 (73.73%)
Maximum spatial batch extension              ...  23.02, 23.02, 13.91 au
Average spatial batch extension              ...   0.78,  0.78,  0.53 au

Final grid set up in    0.1 sec
Final integration                            ... done (   0.1 sec)
Change in XC energy                          ...    -0.044744163
Integrated number of electrons               ...    21.999997607
Previous integrated no of electrons          ...    22.000131986
Total Energy       :         -436.28621929 Eh          -11871.95159 eV
  Last Energy change         ...   -4.3786e-10  Tolerance :   1.0000e-08
  Last MAX-Density change    ...    1.3522e-06  Tolerance :   1.0000e-07
             **** THE GBW FILE WAS UPDATED (13_CS.gbw) ****
             **** DENSITY FILE WAS UPDATED (13_CS.scfp) ****
             **** ENERGY FILE WAS UPDATED (13_CS.en.tmp) ****
             **** THE GBW FILE WAS UPDATED (13_CS.gbw) ****
             **** DENSITY FILE WAS UPDATED (13_CS.scfp) ****
Total SCF time: 0 days 0 hours 0 min 1 sec 


-------------------------------------------------------------------------------
                          DFT DISPERSION CORRECTION                            
                                                                               
                              DFTD3 V3.1  Rev 1                                
                          USING Becke-Johnson damping                          
-------------------------------------------------------------------------------
-------------------------   ----------------
Dispersion correction           -0.000170326
-------------------------   ----------------


-------------------------   --------------------
FINAL SINGLE POINT ENERGY      -436.286389617656
-------------------------   --------------------



           ************************************************************
           *        Program running with 24 parallel MPI-processes    *
           *              working on a common directory               *
           ************************************************************
------------------------------------------------------------------------------
                         ORCA SCF GRADIENT CALCULATION
------------------------------------------------------------------------------

Gradient of the Kohn-Sham DFT energy:
Kohn-Sham wavefunction type      ... RKS
Hartree-Fock exchange scaling    ...    0.000
Number of operators              ...    1
Number of atoms                  ...    2
Basis set dimensions             ...  101
Integral neglect threshold       ... 2.5e-11
Integral primitive cutoff        ... 2.5e-12

Nuclear repulsion gradient       ... done
One Electron Gradient            ... done
Pre-screening matrix             ... done
RI-J gradient                    ... done
Exchange-correlation gradient    ... done
Dispersion correction            ... done

------------------
CARTESIAN GRADIENT
------------------

   1   C   :   -0.000000036   -0.000000034    0.005458999
   2   S   :    0.000000038    0.000000031   -0.002536354

Difference to translation invariance:
           :    0.0000000021   -0.0000000025    0.0029226455

Norm of the cartesian gradient     ...    0.0060194485
RMS gradient                       ...    0.0024574295
MAX gradient                       ...    0.0054589990

-------
TIMINGS
-------

Total SCF gradient time            ...        0.379 sec

One electron gradient       ....       0.020 sec  (  5.2%)
Prescreening matrices       ....       0.038 sec  ( 10.0%)
RI-J Coulomb gradient       ....       0.091 sec  ( 23.9%)
XC gradient                 ....       0.015 sec  (  4.0%)
------------------------------------------------------------------------------
                         ORCA GEOMETRY RELAXATION STEP
------------------------------------------------------------------------------

Reading the OPT-File                    .... done
Getting information on internals        .... done
Copying old internal coords+grads       .... done
Making the new internal coordinates     .... (new redundants).... done
Validating the new internal coordinates .... (new redundants).... done
Calculating the B-matrix                .... done
Calculating the G,G- and P matrices     .... done
Transforming gradient to internals      .... done
Projecting the internal gradient        .... done
Number of atoms                         ....   2
Number of internal coordinates          ....   1
Current Energy                          ....  -436.286389618 Eh
Current gradient norm                   ....     0.006019448 Eh/bohr
Maximum allowed component of the step   ....  0.300
Current trust radius                    ....  0.300
Updating the Hessian (BFGS)             .... done
Forming the augmented Hessian           .... done
Diagonalizing the augmented Hessian     .... done
Last element of RFO vector              ....  0.999942584
Lowest eigenvalues of augmented Hessian:
 -0.000042841
Length of the computed step             ....  0.010716417
The final length of the internal step   ....  0.010716417
Converting the step to cartesian space:
 Initial RMS(Int)=    0.0107164167
Transforming coordinates:
 Iter   0:  RMS(Cart)=    0.0030935630 RMS(Int)=    0.0107164167
 Iter   1:  RMS(Cart)=    0.0000000000 RMS(Int)=    0.0000000000
done
Storing new coordinates                 .... done

                                .--------------------.
          ----------------------|Geometry convergence|-------------------------
          Item                value                   Tolerance       Converged
          ---------------------------------------------------------------------
          Energy change       0.0012685401            0.0000050000      NO
          RMS gradient        0.0039976763            0.0001000000      NO
          MAX gradient        0.0039976763            0.0003000000      NO
          RMS step            0.0107164167            0.0020000000      NO
          MAX step            0.0107164167            0.0040000000      NO
          ........................................................
          Max(Bonds)      0.0057      Max(Angles)    0.00
          Max(Dihed)        0.00      Max(Improp)    0.00
          ---------------------------------------------------------------------

The optimization has not yet converged - more geometry cycles are needed


    ---------------------------------------------------------------------------
                         Redundant Internal Coordinates
                            (Angstroem and degrees)

        Definition                    Value    dE/dq     Step     New-Value
    ----------------------------------------------------------------------------
     1. B(S   1,C   0)                1.5737 -0.003998  0.0057    1.5794   
    ----------------------------------------------------------------------------

         *************************************************************
         *                GEOMETRY OPTIMIZATION CYCLE   4            *
         *************************************************************
---------------------------------
CARTESIAN COORDINATES (ANGSTROEM)
---------------------------------
  C     -0.000000   -0.000000   -0.019855
  S      0.000000    0.000000    1.559555

----------------------------
CARTESIAN COORDINATES (A.U.)
----------------------------
  NO LB      ZA    FRAG     MASS         X           Y           Z
   0 C     6.0000    0    12.011   -0.000000   -0.000000   -0.037521
   1 S    16.0000    0    32.060    0.000000    0.000000    2.947133

--------------------------------
INTERNAL COORDINATES (ANGSTROEM)
--------------------------------
 C      0   0   0     0.000000000000     0.00000000     0.00000000
 S      1   0   0     1.579410738170     0.00000000     0.00000000

---------------------------
INTERNAL COORDINATES (A.U.)
---------------------------
 C      0   0   0     0.000000000000     0.00000000     0.00000000
 S      1   0   0     2.984653748115     0.00000000     0.00000000



           ************************************************************
           *        Program running with 24 parallel MPI-processes    *
           *              working on a common directory               *
           ************************************************************
 One Electron integrals                  ... done
 Pre-screening matrix                    ... done


           ************************************************************
           *        Program running with 24 parallel MPI-processes    *
           *              working on a common directory               *
           ************************************************************

Diagonalization of the overlap matrix:
Smallest eigenvalue                        ... 1.673e-04
Time for diagonalization                   ...    0.004 sec
Threshold for overlap eigenvalues          ... 1.000e-08
Number of eigenvalues below threshold      ... 0
Time for construction of square roots      ...    0.001 sec
Total time needed                          ...    0.005 sec

-------------------
DFT GRID GENERATION
-------------------

General Integration Accuracy     IntAcc      ...  4.340
Radial Grid Type                 RadialGrid  ... Gauss-Chebyshev
Angular Grid (max. acc.)         AngularGrid ... Lebedev-110
Angular grid pruning method      GridPruning ... 3 (G Style)
Weight generation scheme         WeightScheme... Becke
Basis function cutoff            BFCut       ...    1.0000e-11
Integration weight cutoff        WCut        ...    1.0000e-14
Grids for H and He will be reduced by one unit

# of grid points (after initial pruning)     ...   3462 (   0.0 sec)
# of grid points (after weights+screening)   ...   3437 (   0.0 sec)
nearest neighbour list constructed           ...    0.0 sec
Grid point re-assignment to atoms done       ...    0.0 sec
Grid point division into batches done        ...    0.0 sec
Reduced shell lists constructed in    0.0 sec

Total number of grid points                  ...     3437
Total number of batches                      ...       54
Average number of points per batch           ...       63
Average number of grid points per atom       ...     1718
Average number of shells per batch           ...    18.25 (58.87%)
Average number of basis functions per batch  ...    59.75 (59.16%)
Average number of large shells per batch     ...    13.75 (75.34%)
Average number of large basis fcns per batch ...    45.25 (75.73%)
Maximum spatial batch extension              ...  18.60, 31.36, 16.98 au
Average spatial batch extension              ...   0.97,  1.48,  0.93 au

Time for grid setup =    0.012 sec

--------------
SCF ITERATIONS
--------------
ITER       Energy         Delta-E        Max-DP      RMS-DP      [F,P]     Damp
               ***  Starting incremental Fock matrix formation  ***
                      *** Initiating the SOSCF procedure ***
                      *** Re-Reading the Fockian *** 
                      *** Removing any level shift *** 
ITER      Energy       Delta-E        Grad      Rot      Max-DP    RMS-DP
  0   -436.24097859 -436.2409785879  0.001071  0.001071  0.001696  0.000068
               *** Restarting incremental Fock matrix formation ***
  1   -436.24098700  -0.0000084130  0.000567  0.002753  0.002143  0.000061
  2   -436.24096162   0.0000253763  0.002285  0.002309  0.001662  0.000046
  3   -436.24098962  -0.0000280005  0.000056  0.000118  0.000178  0.000006
  4   -436.24098967  -0.0000000455  0.000051  0.000055  0.000080  0.000003
  5   -436.24098971  -0.0000000430  0.000003  0.000003  0.000008  0.000000
                  ***Gradient check signals convergence***
              ***Rediagonalizing the Fockian in SOSCF/NRSCF***

               *****************************************************
               *                     SUCCESS                       *
               *           SCF CONVERGED AFTER   6 CYCLES          *
               *****************************************************

Setting up the final grid:

General Integration Accuracy     IntAcc      ...  4.670
Radial Grid Type                 RadialGrid  ... Gauss-Chebyshev
Angular Grid (max. acc.)         AngularGrid ... Lebedev-302
Angular grid pruning method      GridPruning ... 3 (G Style)
Weight generation scheme         WeightScheme... Becke
Basis function cutoff            BFCut       ...    1.0000e-11
Integration weight cutoff        WCut        ...    1.0000e-14
Grids for H and He will be reduced by one unit

# of grid points (after initial pruning)     ...  13058 (   0.0 sec)
# of grid points (after weights+screening)   ...  13029 (   0.0 sec)
nearest neighbour list constructed           ...    0.0 sec
Grid point re-assignment to atoms done       ...    0.0 sec
Grid point division into batches done        ...    0.1 sec
Reduced shell lists constructed in    0.1 sec

Total number of grid points                  ...    13029
Total number of batches                      ...      205
Average number of points per batch           ...       63
Average number of grid points per atom       ...     6514
Average number of shells per batch           ...     8.60 (27.74%)
Average number of basis functions per batch  ...    23.60 (23.37%)
Average number of large shells per batch     ...     6.00 (69.77%)
Average number of large basis fcns per batch ...    17.40 (73.73%)
Maximum spatial batch extension              ...  23.02, 23.02, 13.92 au
Average spatial batch extension              ...   0.78,  0.78,  0.53 au

Final grid set up in    0.1 sec
Final integration                            ... done (   0.0 sec)
Change in XC energy                          ...    -0.044799968
Integrated number of electrons               ...    21.999996921
Previous integrated no of electrons          ...    22.000129690
Total Energy       :         -436.28578969 Eh          -11871.93990 eV
  Last Energy change         ...   -1.2774e-08  Tolerance :   1.0000e-08
  Last MAX-Density change    ...    5.7727e-06  Tolerance :   1.0000e-07
             **** THE GBW FILE WAS UPDATED (13_CS.gbw) ****
             **** DENSITY FILE WAS UPDATED (13_CS.scfp) ****
             **** ENERGY FILE WAS UPDATED (13_CS.en.tmp) ****
             **** THE GBW FILE WAS UPDATED (13_CS.gbw) ****
             **** DENSITY FILE WAS UPDATED (13_CS.scfp) ****
Total SCF time: 0 days 0 hours 0 min 0 sec 


-------------------------------------------------------------------------------
                          DFT DISPERSION CORRECTION                            
                                                                               
                              DFTD3 V3.1  Rev 1                                
                          USING Becke-Johnson damping                          
-------------------------------------------------------------------------------
-------------------------   ----------------
Dispersion correction           -0.000170321
-------------------------   ----------------


-------------------------   --------------------
FINAL SINGLE POINT ENERGY      -436.285960015457
-------------------------   --------------------



           ************************************************************
           *        Program running with 24 parallel MPI-processes    *
           *              working on a common directory               *
           ************************************************************
------------------------------------------------------------------------------
                         ORCA SCF GRADIENT CALCULATION
------------------------------------------------------------------------------

Gradient of the Kohn-Sham DFT energy:
Kohn-Sham wavefunction type      ... RKS
Hartree-Fock exchange scaling    ...    0.000
Number of operators              ...    1
Number of atoms                  ...    2
Basis set dimensions             ...  101
Integral neglect threshold       ... 2.5e-11
Integral primitive cutoff        ... 2.5e-12

Nuclear repulsion gradient       ... done
One Electron Gradient            ... done
Pre-screening matrix             ... done
RI-J gradient                    ... done
Exchange-correlation gradient    ... done
Dispersion correction            ... done

------------------
CARTESIAN GRADIENT
------------------

   1   C   :   -0.000000037   -0.000000033    0.001991828
   2   S   :    0.000000041    0.000000030    0.001073374

Difference to translation invariance:
           :    0.0000000044   -0.0000000029    0.0030652023

Norm of the cartesian gradient     ...    0.0022626338
RMS gradient                       ...    0.0009237164
MAX gradient                       ...    0.0019918284

-------
TIMINGS
-------

Total SCF gradient time            ...        0.365 sec

One electron gradient       ....       0.008 sec  (  2.2%)
Prescreening matrices       ....       0.038 sec  ( 10.5%)
RI-J Coulomb gradient       ....       0.090 sec  ( 24.7%)
XC gradient                 ....       0.015 sec  (  4.2%)
------------------------------------------------------------------------------
                         ORCA GEOMETRY RELAXATION STEP
------------------------------------------------------------------------------

Reading the OPT-File                    .... done
Getting information on internals        .... done
Copying old internal coords+grads       .... done
Making the new internal coordinates     .... (new redundants).... done
Validating the new internal coordinates .... (new redundants).... done
Calculating the B-matrix                .... done
Calculating the G,G- and P matrices     .... done
Transforming gradient to internals      .... done
Projecting the internal gradient        .... done
Number of atoms                         ....   2
Number of internal coordinates          ....   1
Current Energy                          ....  -436.285960015 Eh
Current gradient norm                   ....     0.002262634 Eh/bohr
Maximum allowed component of the step   ....  0.300
Current trust radius                    ....  0.300
Updating the Hessian (BFGS)             .... done
Forming the augmented Hessian           .... done
Diagonalizing the augmented Hessian     .... done
Last element of RFO vector              ....  0.999999033
Lowest eigenvalues of augmented Hessian:
 -0.000000639
Length of the computed step             ....  0.001390796
The final length of the internal step   ....  0.001390796
Converting the step to cartesian space:
 Initial RMS(Int)=    0.0013907961
[...]
  34   0.0000       0.501191        13.6381 
  35   0.0000       0.513874        13.9832 
  36   0.0000       0.514120        13.9899 
  37   0.0000       0.542576        14.7642 
  38   0.0000       0.550239        14.9728 
  39   0.0000       0.550239        14.9728 
  40   0.0000       0.629299        17.1241 
  41   0.0000       0.629299        17.1241 
  42   0.0000       0.650752        17.7079 
  43   0.0000       0.704654        19.1746 
  44   0.0000       0.704654        19.1746 
  45   0.0000       0.755791        20.5661 
  46   0.0000       0.772256        21.0142 
  47   0.0000       0.774687        21.0803 
  48   0.0000       0.935775        25.4637 
  49   0.0000       0.935775        25.4637 
  50   0.0000       0.978974        26.6392 
  51   0.0000       0.979161        26.6443 
  52   0.0000       1.024223        27.8705 
  53   0.0000       1.061929        28.8966 
  54   0.0000       1.061929        28.8966 
  55   0.0000       1.194235        32.4968 
  56   0.0000       1.194235        32.4968 
  57   0.0000       1.301920        35.4270 
  58   0.0000       1.322604        35.9899 
  59   0.0000       1.327765        36.1303 
  60   0.0000       1.377716        37.4896 
  61   0.0000       1.495029        40.6818 
  62   0.0000       1.550388        42.1882 
  63   0.0000       1.550388        42.1882 
  64   0.0000       1.680280        45.7227 
  65   0.0000       1.681827        45.7648 
  66   0.0000       1.723385        46.8957 
  67   0.0000       1.723385        46.8957 
  68   0.0000       1.895423        51.5771 
  69   0.0000       2.028480        55.1978 
  70   0.0000       2.028480        55.1978 
  71   0.0000       2.102309        57.2067 
  72   0.0000       2.102309        57.2067 
  73   0.0000       2.120491        57.7015 
  74   0.0000       2.123641        57.7872 
  75   0.0000       2.152611        58.5755 
  76   0.0000       2.152611        58.5755 
  77   0.0000       2.186912        59.5089 
  78   0.0000       2.654966        72.2453 
  79   0.0000       2.749292        74.8120 
  80   0.0000       2.749292        74.8120 
  81   0.0000       3.184088        86.6435 
  82   0.0000       3.195347        86.9498 
  83   0.0000       3.199111        87.0522 
  84   0.0000       3.290252        89.5323 
  85   0.0000       3.290252        89.5323 
  86   0.0000       3.432109        93.3924 
  87   0.0000       3.435826        93.4936 
  88   0.0000       3.507129        95.4338 
  89   0.0000       3.507129        95.4338 
  90   0.0000       3.533707        96.1571 
  91   0.0000       3.651349        99.3582 
  92   0.0000       3.651349        99.3582 
  93   0.0000       3.889613       105.8418 
  94   0.0000       5.265257       143.2749 
  95   0.0000       6.772864       184.2990 
  96   0.0000       6.773754       184.3232 
  97   0.0000       6.877876       187.1565 
  98   0.0000       6.877876       187.1565 
  99   0.0000       7.002827       190.5566 
 100   0.0000       8.335272       226.8143 

                    ********************************
                    * MULLIKEN POPULATION ANALYSIS *
                    ********************************

-----------------------
MULLIKEN ATOMIC CHARGES
-----------------------
   0 C :   -0.344468
   1 S :    0.344468
Sum of atomic charges:   -0.0000000

--------------------------------
MULLIKEN REDUCED ORBITAL CHARGES
--------------------------------
  0 C s       :     4.026463  s :     4.026463
      pz      :     1.080773  p :     2.230702
      px      :     0.574964
      py      :     0.574964
      dz2     :     0.012122  d :     0.078145
      dxz     :     0.033011
      dyz     :     0.033011
      dx2y2   :     0.000000
      dxy     :     0.000000
      f0      :     0.001907  f :     0.009158
      f+1     :     0.003625
      f-1     :     0.003625
      f+2     :     0.000000
      f-2     :    -0.000000
      f+3     :     0.000000
      f-3     :     0.000000
  1 S s       :     5.850528  s :     5.850528
      pz      :     2.998779  p :     9.737674
      px      :     3.369447
      py      :     3.369447
      dz2     :     0.025722  d :     0.060240
      dxz     :     0.017259
      dyz     :     0.017259
      dx2y2   :     0.000000
      dxy     :     0.000000
      f0      :     0.003705  f :     0.007090
      f+1     :     0.001693
      f-1     :     0.001693
      f+2     :     0.000000
      f-2     :    -0.000000
      f+3     :     0.000000
      f-3     :     0.000000


                     *******************************
                     * LOEWDIN POPULATION ANALYSIS *
                     *******************************

----------------------
LOEWDIN ATOMIC CHARGES
----------------------
   0 C :   -0.634459
   1 S :    0.634459

-------------------------------
LOEWDIN REDUCED ORBITAL CHARGES
-------------------------------
  0 C s       :     3.361033  s :     3.361033
      pz      :     1.390245  p :     2.606701
      px      :     0.608228
      py      :     0.608228
      dz2     :     0.209103  d :     0.468839
      dxz     :     0.129868
      dyz     :     0.129868
      dx2y2   :     0.000000
      dxy     :     0.000000
      f0      :     0.064350  f :     0.197887
      f+1     :     0.066768
      f-1     :     0.066768
      f+2     :     0.000000
      f-2     :     0.000000
      f+3     :     0.000000
      f-3     :     0.000000
  1 S s       :     5.379772  s :     5.379772
      pz      :     3.297883  p :     9.601084
      px      :     3.151601
      py      :     3.151601
      dz2     :     0.226850  d :     0.276330
      dxz     :     0.024740
      dyz     :     0.024740
      dx2y2   :     0.000000
      dxy     :     0.000000
      f0      :     0.070765  f :     0.108354
      f+1     :     0.018795
      f-1     :     0.018795
      f+2     :     0.000000
      f-2     :     0.000000
      f+3     :     0.000000
      f-3     :     0.000000


                      *****************************
                      * MAYER POPULATION ANALYSIS *
                      *****************************

  NA   - Mulliken gross atomic population
  ZA   - Total nuclear charge
  QA   - Mulliken gross atomic charge
  VA   - Mayer's total valence
  BVA  - Mayer's bonded valence
  FA   - Mayer's free valence

  ATOM       NA         ZA         QA         VA         BVA        FA
  0 C      6.3445     6.0000    -0.3445     2.3382     2.3382    -0.0000
  1 S     15.6555    16.0000     0.3445     2.3382     2.3382    -0.0000

  Mayer bond orders larger than 0.100000
B(  0-C ,  1-S ) :   2.3382 

-------
TIMINGS
-------

Total SCF time: 0 days 0 hours 0 min 0 sec 

Total time                  ....       0.515 sec
Sum of individual times     ....       0.377 sec  ( 73.2%)

Fock matrix formation       ....       0.283 sec  ( 55.0%)
  Split-RI-J                ....       0.169 sec  ( 59.7% of F)
  XC integration            ....       0.023 sec  (  8.1% of F)
    Basis function eval.    ....       0.003 sec  ( 13.4% of XC)
    Density eval.           ....       0.004 sec  ( 16.1% of XC)
    XC-Functional eval.     ....       0.001 sec  (  5.5% of XC)
    XC-Potential eval.      ....       0.007 sec  ( 32.3% of XC)
Diagonalization             ....       0.001 sec  (  0.3%)
Density matrix formation    ....       0.001 sec  (  0.3%)
Population analysis         ....       0.003 sec  (  0.5%)
Initial guess               ....       0.005 sec  (  1.0%)
Orbital Transformation      ....       0.000 sec  (  0.0%)
Orbital Orthonormalization  ....       0.002 sec  (  0.5%)
DIIS solution               ....       0.000 sec  (  0.0%)
SOSCF solution              ....       0.001 sec  (  0.3%)
Grid generation             ....       0.081 sec  ( 15.8%)


-------------------------------------------------------------------------------
                          DFT DISPERSION CORRECTION                            
                                                                               
                              DFTD3 V3.1  Rev 1                                
                          USING Becke-Johnson damping                          
-------------------------------------------------------------------------------
The SCAN functional is recognized
Active option DFTDOPT                   ...         4   

molecular C6(AA) [au] = 324.102311 


            DFT-D V3
 parameters
 s6 scaling factor         :     1.0000 
 a1 scaling factor         :     0.5380 
 s8 scaling factor         :     0.0000 
 a2 scaling factor         :     5.4200 
 ad hoc parameters k1-k3   :    16.0000     1.3333    -4.0000 

 Edisp/kcal,au: -0.106877393801  -0.000170319950 
 E6   /kcal   :  -0.106877394 
 E8   /kcal   :  -0.000000000 
 % E8         :   0.000000000 

-------------------------   ----------------
Dispersion correction           -0.000170320
-------------------------   ----------------


-------------------------   --------------------
FINAL SINGLE POINT ENERGY      -436.285899191865
-------------------------   --------------------

                                *** OPTIMIZATION RUN DONE ***

                            ***************************************
                            *     ORCA property calculations      *
                            ***************************************

                                    ---------------------
                                    Active property flags
                                    ---------------------
   (+) Dipole Moment


------------------------------------------------------------------------------
                       ORCA ELECTRIC PROPERTIES CALCULATION
------------------------------------------------------------------------------

Dipole Moment Calculation                       ... on
Quadrupole Moment Calculation                   ... off
Polarizability Calculation                      ... off
GBWName                                         ... 13_CS.gbw
Electron density file                           ... 13_CS.scfp
The origin for moment calculation is the CENTER OF MASS  = ( 0.000000,  0.000000  2.134025)

-------------
DIPOLE MOMENT
-------------
                                X             Y             Z
Electronic contribution:      0.00000       0.00000       0.71498
Nuclear contribution   :     -0.00000      -0.00000      -0.01247
                        -----------------------------------------
Total Dipole Moment    :      0.00000       0.00000       0.70251
                        -----------------------------------------
Magnitude (a.u.)       :      0.70251
Magnitude (Debye)      :      1.78565



--------------------
Rotational spectrum 
--------------------
 
Rotational constants in cm-1:     0.000000     0.772688     0.772688 
Rotational constants in MHz :     0.000000 23164.604843 23164.604843 

 Dipole components along the rotational axes: 
x,y,z [a.u.] :    -0.702514    -0.000000    -0.000000 
x,y,z [Debye]:    -1.785647    -0.000000    -0.000000 

 

----------------------------------------------------------------------------
                           ORCA NUMERICAL FREQUENCIES
                              (24-process run)
----------------------------------------------------------------------------

Number of atoms                ... 2
Central differences            ... used
Number of displacements        ... 12
Numerical increment            ... 5.000e-03 bohr
IR-spectrum generation         ... on
Raman-spectrum generation      ... off
Surface Crossing Hessian       ... off

 WARNING: There are more processes than displacements to do
  ====> : Reducing number of processes to   6

The output will be reduced. Please look at the following files:
SCF program output             ... >13_CS.lastscf
Integral program output        ... >13_CS.lastint
Gradient program output        ... >13_CS.lastgrad
Dipole moment program output   ... >13_CS.lastmom
AutoCI program output          ... >13_CS.lastautoci


         <<< Energy and Gradient at the input geometry >>>

        <<< Energy and Gradient at displaced geometries >>>
             <<<Displacing   1/coordinate 2 (+)>>>
             <<<Displacing   1/coordinate 1 (+)>>>
             <<<Displacing   1/coordinate 3 (+)>>>
             <<<Displacing   2/coordinate 3 (+)>>>
             <<<Displacing   2/coordinate 1 (+)>>>
             <<<Displacing   2/coordinate 2 (+)>>>
             <<<Displacing   2/coordinate 3 (-)>>>
             <<<Displacing   1/coordinate 3 (-)>>>
             <<<Displacing   1/coordinate 2 (-)>>>
             <<<Displacing   1/coordinate 1 (-)>>>
             <<<Displacing   2/coordinate 1 (-)>>>
             <<<Displacing   2/coordinate 2 (-)>>>

-----------------------
VIBRATIONAL FREQUENCIES
-----------------------

Scaling factor for frequencies =  1.000000000 (already applied!)

   0:         0.00 cm**-1
   1:         0.00 cm**-1
   2:         0.00 cm**-1
   3:         0.00 cm**-1
   4:         0.00 cm**-1
   5:       979.80 cm**-1


------------
NORMAL MODES
------------

These modes are the cartesian displacements weighted by the diagonal matrix
M(i,i)=1/sqrt(m[i]) where m[i] is the mass of the displaced atom
Thus, these vectors are normalized but *not* orthogonal

                  0          1          2          3          4          5    
      0       0.000000   0.000000   0.000000   0.000000   0.000000   0.000000
      1       0.000000   0.000000   0.000000   0.000000   0.000000   0.000000
      2       0.000000   0.000000   0.000000   0.000000   0.000000   0.936440
      3       0.000000   0.000000   0.000000   0.000000   0.000000  -0.000000
      4       0.000000   0.000000   0.000000   0.000000   0.000000  -0.000000
      5       0.000000   0.000000   0.000000   0.000000   0.000000  -0.350829


-----------
IR SPECTRUM  
-----------

 Mode    freq (cm**-1)   T**2         TX         TY         TZ
-------------------------------------------------------------------
   5:       979.80   79.165565  (  0.000002   0.000001   8.897503)

The first frequency considered to be a vibration is 5
The total number of vibrations considered is 1


--------------------------
THERMOCHEMISTRY AT 298.15K
--------------------------

Temperature         ... 298.15 K
Pressure            ... 1.00 atm
Total Mass          ... 44.07 AMU
The molecule is recognized as being linear

Throughout the following assumptions are being made:
  (1) The electronic state is orbitally nondegenerate
  (2) There are no thermally accessible electronically excited states
  (3) Hindered rotations indicated by low frequency modes are not
      treated as such but are treated as vibrations and this may
      cause some error
  (4) All equations used are the standard statistical mechanics
      equations for an ideal gas
  (5) All vibrations are strictly harmonic

freq.     979.80  E(vib)   ...       0.02 

------------
INNER ENERGY
------------

The inner energy is: U= E(el) + E(ZPE) + E(vib) + E(rot) + E(trans)
    E(el)   - is the total energy from the electronic structure calculation
              = E(kin-el) + E(nuc-el) + E(el-el) + E(nuc-nuc)
    E(ZPE)  - the the zero temperature vibrational energy from the frequency calculation
    E(vib)  - the the finite temperature correction to E(ZPE) due to population
              of excited vibrational states
    E(rot)  - is the rotational thermal energy
    E(trans)- is the translational thermal energy

Summary of contributions to the inner energy U:
Electronic energy                ...   -436.28589914 Eh
Zero point energy                ...      0.00223215 Eh       1.40 kcal/mol
Thermal vibrational correction   ...      0.00003983 Eh       0.02 kcal/mol
Thermal rotational correction    ...      0.00094418 Eh       0.59 kcal/mol
Thermal translational correction ...      0.00141627 Eh       0.89 kcal/mol
-----------------------------------------------------------------------
Total thermal energy                   -436.28126670 Eh


Summary of corrections to the electronic energy:
(perhaps to be used in another calculation)
Total thermal correction                  0.00240028 Eh       1.51 kcal/mol
Non-thermal (ZPE) correction              0.00223215 Eh       1.40 kcal/mol
-----------------------------------------------------------------------
Total correction                          0.00463243 Eh       2.91 kcal/mol


--------
ENTHALPY
--------

The enthalpy is H = U + kB*T
                kB is Boltzmann's constant
Total free energy                 ...   -436.28126670 Eh 
Thermal Enthalpy correction       ...      0.00094421 Eh       0.59 kcal/mol
-----------------------------------------------------------------------
Total Enthalpy                    ...   -436.28032249 Eh


Note: Rotational entropy computed according to Herzberg 
Infrared and Raman Spectra, Chapter V,1, Van Nostrand Reinhold, 1945 
Point Group:  Cinfv, Symmetry Number:   1  
Rotational constants in cm-1:     0.000000     0.772688     0.772688 

Vibrational entropy computed according to the QRRHO of S. Grimme
Chem.Eur.J. 2012 18 9955


-------
ENTROPY
-------

The entropy contributions are T*S = T*(S(el)+S(vib)+S(rot)+S(trans))
     S(el)   - electronic entropy
     S(vib)  - vibrational entropy
     S(rot)  - rotational entropy
     S(trans)- translational entropy
The entropies will be listed as mutliplied by the temperature to get
units of energy

Electronic entropy                ...      0.00000000 Eh      0.00 kcal/mol
Vibrational entropy               ...      0.00004824 Eh      0.03 kcal/mol
Rotational entropy                ...      0.00622375 Eh      3.91 kcal/mol
Translational entropy             ...      0.01771079 Eh     11.11 kcal/mol
-----------------------------------------------------------------------
Final entropy term                ...      0.02398279 Eh     15.05 kcal/mol

In case the symmetry of your molecule has not been determined correctly
or in case you have a reason to use a different symmetry number we print 
out the resulting rotational entropy values for sn=1,12 :
 --------------------------------------------------------
|  sn= 1 | S(rot)=      -0.02130348 Eh    -13.37 kcal/mol|
|  sn= 2 | S(rot)=      -0.02195794 Eh    -13.78 kcal/mol|
|  sn= 3 | S(rot)=      -0.02234077 Eh    -14.02 kcal/mol|
|  sn= 4 | S(rot)=      -0.02261240 Eh    -14.19 kcal/mol|
|  sn= 5 | S(rot)=      -0.02282308 Eh    -14.32 kcal/mol|
|  sn= 6 | S(rot)=      -0.02299523 Eh    -14.43 kcal/mol|
|  sn= 7 | S(rot)=      -0.02314077 Eh    -14.52 kcal/mol|
|  sn= 8 | S(rot)=      -0.02326685 Eh    -14.60 kcal/mol|
|  sn= 9 | S(rot)=      -0.02337806 Eh    -14.67 kcal/mol|
|  sn=10 | S(rot)=      -0.02347754 Eh    -14.73 kcal/mol|
|  sn=11 | S(rot)=      -0.02356753 Eh    -14.79 kcal/mol|
|  sn=12 | S(rot)=      -0.02364968 Eh    -14.84 kcal/mol|
 --------------------------------------------------------


-------------------
GIBBS FREE ENERGY
-------------------

The Gibbs free energy is G = H - T*S

Total enthalpy                    ...   -436.28032249 Eh 
Total entropy correction          ...     -0.02398279 Eh    -15.05 kcal/mol
-----------------------------------------------------------------------
Final Gibbs free energy         ...   -436.30430528 Eh

For completeness - the Gibbs free energy minus the electronic energy
G-E(el)                           ...     -0.01840614 Eh    -11.55 kcal/mol


Total Time for Numerical Frequencies  :        10.680 sec

Timings for individual modules:

Sum of individual times         ...       17.757 sec (=   0.296 min)
GTO integral calculation        ...        4.159 sec (=   0.069 min)  23.4 %
SCF iterations                  ...        9.038 sec (=   0.151 min)  50.9 %
SCF Gradient evaluation         ...        4.389 sec (=   0.073 min)  24.7 %
Geometry relaxation             ...        0.171 sec (=   0.003 min)   1.0 %
                             ****ORCA TERMINATED NORMALLY****
TOTAL RUN TIME: 0 days 0 hours 0 minutes 27 seconds 77 msec
