
                                 *****************
                                 * O   R   C   A *
                                 *****************

           --- An Ab Initio, DFT and Semiempirical electronic structure package ---

                  #######################################################
                  #                        -***-                        #
                  #          Department of theory and spectroscopy      #
                  #               Directorship: Frank Neese             #
                  #        Max Planck Institute fuer Kohlenforschung    #
                  #                Kaiser Wilhelm Platz 1               #
                  #                 D-45470 Muelheim/Ruhr               #
                  #                      Germany                        #
                  #                                                     #
                  #                  All rights reserved                #
                  #                        -***-                        #
                  #######################################################


                         Program Version 4.2.0 -  RELEASE  -


 With contributions from (in alphabetic order):
   Daniel Aravena         : Magnetic Suceptibility
   Michael Atanasov       : Ab Initio Ligand Field Theory (pilot matlab implementation)
   Alexander A. Auer      : GIAO ZORA, VPT2
   Ute Becker             : Parallelization
   Giovanni Bistoni       : ED, misc. LED, open-shell LED, HFLED
   Martin Brehm           : Molecular dynamics
   Dmytro Bykov           : SCF Hessian
   Vijay G. Chilkuri      : MRCI spin determinant printing, contributions to CSF-ICE
   Dipayan Datta          : RHF DLPNO-CCSD density
   Achintya Kumar Dutta   : EOM-CC, STEOM-CC
   Dmitry Ganyushin       : Spin-Orbit,Spin-Spin,Magnetic field MRCI
   Miquel Garcia          : C-PCM Hessian, Gaussian charge scheme
   Yang Guo               : DLPNO-NEVPT2, CIM, IAO-localization
   Andreas Hansen         : Spin unrestricted coupled pair/coupled cluster methods
   Benjamin Helmich-Paris : CASSCF linear response (MC-RPA)
   Lee Huntington         : MR-EOM, pCC
   Robert Izsak           : Overlap fitted RIJCOSX, COSX-SCS-MP3, EOM
   Christian Kollmar      : KDIIS, OOCD, Brueckner-CCSD(T), CCSD density
   Simone Kossmann        : Meta GGA functionals, TD-DFT gradient, OOMP2, MP2 Hessian
   Martin Krupicka        : AUTO-CI
   Lucas Lang             : DCDCAS
   Dagmar Lenk            : GEPOL surface, SMD
   Dimitrios Liakos       : Extrapolation schemes; Compound Job, initial MDCI parallelization
   Dimitrios Manganas     : Further ROCIS development; embedding schemes
   Dimitrios Pantazis     : SARC Basis sets
   Taras Petrenko         : DFT Hessian,TD-DFT gradient, ASA, ECA, R-Raman, ABS, FL, XAS/XES, NRVS
   Peter Pinski           : DLPNO-MP2, DLPNO-MP2 Gradient
   Christoph Reimann      : Effective Core Potentials
   Marius Retegan         : Local ZFS, SOC
   Christoph Riplinger    : Optimizer, TS searches, QM/MM, DLPNO-CCSD(T), (RO)-DLPNO pert. Triples
   Tobias Risthaus        : Range-separated hybrids, TD-DFT gradient, RPA, STAB
   Michael Roemelt        : Original ROCIS implementation
   Masaaki Saitow         : Open-shell DLPNO-CCSD energy and density
   Barbara Sandhoefer     : DKH picture change effects
   Avijit Sen             : IP-ROCIS
   Kantharuban Sivalingam : CASSCF convergence, NEVPT2, FIC-MRCI
   Bernardo de Souza      : ESD, SOC TD-DFT
   Georgi Stoychev        : AutoAux, RI-MP2 NMR
   Willem Van den Heuvel  : Paramagnetic NMR
   Boris Wezisla          : Elementary symmetry handling
   Frank Wennmohs         : Technical directorship


 We gratefully acknowledge several colleagues who have allowed us to
 interface, adapt or use parts of their codes:
   Stefan Grimme, W. Hujo, H. Kruse,             : VdW corrections, initial TS optimization,
                  C. Bannwarth                     DFT functionals, gCP, sTDA/sTD-DF
   Ed Valeev, F. Pavosevic, A. Kumar             : LibInt (2-el integral package), F12 methods
   Garnet Chan, S. Sharma, J. Yang, R. Olivares  : DMRG
   Ulf Ekstrom                                   : XCFun DFT Library
   Mihaly Kallay                                 : mrcc  (arbitrary order and MRCC methods)
   Andreas Klamt, Michael Diedenhofen            : otool_cosmo (COSMO solvation model)
   Jiri Pittner, Ondrej Demel                    : Mk-CCSD
   Frank Weinhold                                : gennbo (NPA and NBO analysis)
   Christopher J. Cramer and Donald G. Truhlar   : smd solvation model
   Lars Goerigk                                  : TD-DFT with DH, B97 family of functionals
   V. Asgeirsson, H. Jonsson                     : NEB implementation
   FAccTs GmbH                                   : IRC, NEB, NEB-TS, Multilevel, MM, QM/MM, CI optimization
   S Lehtola, MJT Oliveira, MAL Marques          : LibXC Library


 Your calculation uses the libint2 library for the computation of 2-el integrals
 For citations please refer to: http://libint.valeyev.net

 Your ORCA version has been built with support for libXC version: 4.2.3
 For citations please refer to: https://tddft.org/programs/libxc/

 This ORCA versions uses:
   CBLAS   interface :  Fast vector & matrix operations
   LAPACKE interface :  Fast linear algebra routines
   SCALAPACK package :  Parallel linear algebra routines


Your calculation utilizes the atom-pairwise dispersion correction
with the Becke-Johnson damping scheme (D3BJ)
Cite in your paper:
S.Grimme, S.Ehrlich, L.Goerigk, J Comput Chem, (2011), 32, 1456–1465 
S.Grimme, J.Antony, S.Ehrlich and H.Krieg, J.Chem.Phys., 132, (2010), 154104 
   

----- Orbital basis set information -----
Your calculation utilizes the basis: aug-cc-pV(T+d)Z 
             Al - Ar: T.H. Dunning, Jr., K. A. Peterson and A. K. Wilson, J. Chem. Phys.
                      114, 9244 (2001)

----- AuxJ basis set information -----
Your calculation utilizes the auxiliary basis: def2/J
   F. Weigend, Phys. Chem. Chem. Phys. 8, 1057 (2006).

================================================================================
                                        WARNINGS
                       Please study these warnings very carefully!
================================================================================


WARNING: Geometry Optimization
  ===> : Switching off AutoStart
         For restart on a previous wavefunction, please use MOREAD

WARNING: The SCAN functional is very grid-sensitive!
         Use at least GRID5 and a higher intacc

INFO   : the flag for use of LIBINT has been found!

================================================================================
                                       INPUT FILE
================================================================================
NAME = 14_F2.in
|  1> #
|  2> # 14_F2 scanfunc/aug-cc-pvt(+d)z
|  3> #
|  4> ! scanfunc d3bj aug-cc-pvt(+d)z def2/j opt xyzfile numfreq
|  5> 
|  6> *xyz 0 1
|  7> F           -0.000000102         -0.000000195         -0.694208668
|  8> F            0.000000102          0.000000195          0.694208668
|  9> *
| 10> 
| 11> %pal
| 12> nprocs 24
| 13> end
| 14> 
| 15> 
| 16>                          ****END OF INPUT****
================================================================================

                       *****************************
                       * Geometry Optimization Run *
                       *****************************

Geometry optimization settings:
Update method            Update   .... BFGS
Choice of coordinates    CoordSys .... Z-matrix Internals
Initial Hessian          InHess   .... Almoef's Model

Convergence Tolerances:
Energy Change            TolE     ....  5.0000e-06 Eh
Max. Gradient            TolMAXG  ....  3.0000e-04 Eh/bohr
RMS Gradient             TolRMSG  ....  1.0000e-04 Eh/bohr
Max. Displacement        TolMAXD  ....  4.0000e-03 bohr
RMS Displacement         TolRMSD  ....  2.0000e-03 bohr
Strict Convergence                ....  False
------------------------------------------------------------------------------
                        ORCA OPTIMIZATION COORDINATE SETUP
------------------------------------------------------------------------------

The optimization will be done in new redundant internal coordinates
Making redundant internal coordinates   ...  (new redundants) done
Evaluating the initial hessian          ...  (Almloef) done
Evaluating the coordinates              ...  done
Calculating the B-matrix                .... done
Calculating the G-matrix                .... done
Diagonalizing the G-matrix              .... done
The first mode is                       ....    0
The number of degrees of freedom        ....    1

    -----------------------------------------------------------------
                    Redundant Internal Coordinates


    -----------------------------------------------------------------
         Definition                    Initial Value    Approx d2E/dq
    -----------------------------------------------------------------
      1. B(F   1,F   0)                  1.3884         0.435231   
    -----------------------------------------------------------------

Number of atoms                         .... 2
Number of degrees of freedom            .... 1

         *************************************************************
         *                GEOMETRY OPTIMIZATION CYCLE   1            *
         *************************************************************
---------------------------------
CARTESIAN COORDINATES (ANGSTROEM)
---------------------------------
  F     -0.000000   -0.000000   -0.694209
  F      0.000000    0.000000    0.694209

----------------------------
CARTESIAN COORDINATES (A.U.)
----------------------------
  NO LB      ZA    FRAG     MASS         X           Y           Z
   0 F     9.0000    0    18.998   -0.000000   -0.000000   -1.311864
   1 F     9.0000    0    18.998    0.000000    0.000000    1.311864

--------------------------------
INTERNAL COORDINATES (ANGSTROEM)
--------------------------------
 F      0   0   0     0.000000000000     0.00000000     0.00000000
 F      1   0   0     1.388417336000     0.00000000     0.00000000

---------------------------
INTERNAL COORDINATES (A.U.)
---------------------------
 F      0   0   0     0.000000000000     0.00000000     0.00000000
 F      1   0   0     2.623728524629     0.00000000     0.00000000

---------------------
BASIS SET INFORMATION
---------------------
There are 1 groups of distinct atoms

 Group   1 Type F   : 19s6p3d2f contracted to 5s4p3d2f pattern {88111/3111/111/11}

Atom   0F    basis set group =>   1
Atom   1F    basis set group =>   1
---------------------------------
AUXILIARY/J BASIS SET INFORMATION
---------------------------------
There are 1 groups of distinct atoms

 Group   1 Type F   : 12s5p4d2f1g contracted to 6s4p3d1f1g pattern {711111/2111/211/2/1}

Atom   0F    basis set group =>   1
Atom   1F    basis set group =>   1


           ************************************************************
           *        Program running with 24 parallel MPI-processes    *
           *              working on a common directory               *
           ************************************************************
------------------------------------------------------------------------------
                           ORCA GTO INTEGRAL CALCULATION
                           -- RI-GTO INTEGRALS CHOSEN --
------------------------------------------------------------------------------

                         BASIS SET STATISTICS AND STARTUP INFO

Gaussian basis set:
 # of primitive gaussian shells          ...   60
 # of primitive gaussian functions       ...  132
 # of contracted shells                  ...   28
 # of contracted basis functions         ...   92
 Highest angular momentum                ...    3
 Maximum contraction depth               ...    8
Auxiliary gaussian basis set:
 # of primitive gaussian shells          ...   48
 # of primitive gaussian functions       ...  140
 # of contracted shells                  ...   30
 # of contracted aux-basis functions     ...   98
 Highest angular momentum                ...    4
 Maximum contraction depth               ...    7
Ratio of auxiliary to basis functions    ...  1.07
Integral package used                  ... LIBINT
 One Electron integrals                  ... done
 Ordering auxiliary basis shells         ... done
 Integral threshhold             Thresh  ...  2.500e-11
 Primitive cut-off               TCut    ...  2.500e-12
 Pre-screening matrix                    ... done
 Shell pair data                         ... 
 Ordering of the shell pairs             ... done (   0.000 sec) 406 of 406 pairs
 Determination of significant pairs      ... done (   0.000 sec)
 Creation of shell pair data             ... done (   0.000 sec)
 Storage of shell pair data              ... done (   0.008 sec)
 Shell pair data done in (   0.009 sec)
 Computing two index integrals           ... done
 Cholesky decomposition of the V-matrix  ... done


Timings:
 Total evaluation time                   ...   0.131 sec (  0.002 min)
 One electron matrix time                ...   0.007 sec (  0.000 min) =  5.0%
 Schwartz matrix evaluation time         ...   0.092 sec (  0.002 min) = 70.3%
 Two index repulsion integral time       ...   0.000 sec (  0.000 min) =  0.3%
 Cholesky decomposition of V             ...   0.001 sec (  0.000 min) =  0.5%
 Three index repulsion integral time     ...   0.000 sec (  0.000 min) =  0.0%



           ************************************************************
           *        Program running with 24 parallel MPI-processes    *
           *              working on a common directory               *
           ************************************************************
-------------------------------------------------------------------------------
                                 ORCA SCF
-------------------------------------------------------------------------------

------------
SCF SETTINGS
------------
Hamiltonian:
 Density Functional     Method          .... DFT(GTOs)
 Exchange Functional    Exchange        .... SCAN
 Correlation Functional Correlation     .... SCAN
 Gradients option       PostSCFGGA      .... off
   Density functional embedding theory  .... OFF
   NL short-range parameter             ....  6.400000
 RI-approximation to the Coulomb term is turned on
   Number of auxiliary basis functions  .... 98


General Settings:
 Integral files         IntName         .... 14_F2
 Hartree-Fock type      HFTyp           .... RHF
 Total Charge           Charge          ....    0
 Multiplicity           Mult            ....    1
 Number of Electrons    NEL             ....   18
 Basis Dimension        Dim             ....   92
 Nuclear Repulsion      ENuc            ....     30.8720964230 Eh

Convergence Acceleration:
 DIIS                   CNVDIIS         .... on
   Start iteration      DIISMaxIt       ....    12
   Startup error        DIISStart       ....  0.200000
   # of expansion vecs  DIISMaxEq       ....     5
   Bias factor          DIISBfac        ....   1.050
   Max. coefficient     DIISMaxC        ....  10.000
 Newton-Raphson         CNVNR           .... off
 SOSCF                  CNVSOSCF        .... on
   Start iteration      SOSCFMaxIt      ....   150
   Startup grad/error   SOSCFStart      ....  0.003300
 Level Shifting         CNVShift        .... on
   Level shift para.    LevelShift      ....    0.2500
   Turn off err/grad.   ShiftErr        ....    0.0010
 Zerner damping         CNVZerner       .... off
 Static damping         CNVDamp         .... on
   Fraction old density DampFac         ....    0.7000
   Max. Damping (<1)    DampMax         ....    0.9800
   Min. Damping (>=0)   DampMin         ....    0.0000
   Turn off err/grad.   DampErr         ....    0.1000
 Fernandez-Rico         CNVRico         .... off

SCF Procedure:
 Maximum # iterations   MaxIter         ....   125
 SCF integral mode      SCFMode         .... Direct
   Integral package                     .... LIBINT
 Reset frequency        DirectResetFreq ....    20
 Integral Threshold     Thresh          ....  2.500e-11 Eh
 Primitive CutOff       TCut            ....  2.500e-12 Eh

Convergence Tolerance:
 Convergence Check Mode ConvCheckMode   .... Total+1el-Energy
 Convergence forced     ConvForced      .... 0
 Energy Change          TolE            ....  1.000e-08 Eh
 1-El. energy change                    ....  1.000e-05 Eh
 Orbital Gradient       TolG            ....  1.000e-05
 Orbital Rotation angle TolX            ....  1.000e-05
 DIIS Error             TolErr          ....  5.000e-07


Diagonalization of the overlap matrix:
Smallest eigenvalue                        ... 7.560e-04
Time for diagonalization                   ...    0.003 sec
Threshold for overlap eigenvalues          ... 1.000e-08
Number of eigenvalues below threshold      ... 0
Time for construction of square roots      ...    0.001 sec
Total time needed                          ...    0.004 sec

-------------------
DFT GRID GENERATION
-------------------

General Integration Accuracy     IntAcc      ...  4.340
Radial Grid Type                 RadialGrid  ... Gauss-Chebyshev
Angular Grid (max. acc.)         AngularGrid ... Lebedev-110
Angular grid pruning method      GridPruning ... 3 (G Style)
Weight generation scheme         WeightScheme... Becke
Basis function cutoff            BFCut       ...    1.0000e-11
Integration weight cutoff        WCut        ...    1.0000e-14
Grids for H and He will be reduced by one unit

# of grid points (after initial pruning)     ...   3480 (   0.0 sec)
# of grid points (after weights+screening)   ...   3456 (   0.0 sec)
nearest neighbour list constructed           ...    0.0 sec
Grid point re-assignment to atoms done       ...    0.0 sec
Grid point division into batches done        ...    0.0 sec
Reduced shell lists constructed in    0.0 sec

Total number of grid points                  ...     3456
Total number of batches                      ...       56
Average number of points per batch           ...       61
Average number of grid points per atom       ...     1728
Average number of shells per batch           ...    13.75 (49.11%)
Average number of basis functions per batch  ...    43.75 (47.55%)
Average number of large shells per batch     ...     9.25 (67.27%)
Average number of large basis fcns per batch ...    31.25 (71.43%)
Maximum spatial batch extension              ...  15.77, 25.65, 13.96 au
Average spatial batch extension              ...   0.77,  1.17,  0.75 au

Time for grid setup =    0.017 sec

------------------------------
INITIAL GUESS: MODEL POTENTIAL
------------------------------
Loading Hartree-Fock densities                     ... done
Calculating cut-offs                               ... done
Setting up the integral package                    ... done
Initializing the effective Hamiltonian             ... done
Starting the Coulomb interaction                   ... done (   0.0 sec)
Reading the grid                                   ... done
Mapping shells                                     ... done
Starting the XC term evaluation                    ... done (   0.0 sec)
  promolecular density results
     # of electrons  =     17.999923039
     EX              =    -22.039497924
     EC              =     -0.297394833
     EX+EC           =    -22.336892757
Transforming the Hamiltonian                       ... done (   0.0 sec)
Diagonalizing the Hamiltonian                      ... done (   0.0 sec)
Back transforming the eigenvectors                 ... done (   0.0 sec)
Now organizing SCF variables                       ... done
                      ------------------
                      INITIAL GUESS DONE (   0.1 sec)
                      ------------------
--------------
SCF ITERATIONS
--------------
ITER       Energy         Delta-E        Max-DP      RMS-DP      [F,P]     Damp
               ***  Starting incremental Fock matrix formation  ***
  0   -199.5072421398   0.000000000000 0.02158883  0.00094931  0.2192927 0.7000
  1   -199.5294772918  -0.022235151945 0.01231815  0.00054429  0.1096455 0.7000
                               ***Turning on DIIS***
  2   -199.5393658137  -0.009888521930 0.01868173  0.00080636  0.0491212 0.0000
  3   -199.5565695750  -0.017203761329 0.00973802  0.00046886  0.0453696 0.0000
  4   -199.5587739077  -0.002204332706 0.00171139  0.00007170  0.0040933 0.0000
                      *** Initiating the SOSCF procedure ***
                           *** Shutting down DIIS ***
                      *** Re-Reading the Fockian *** 
                      *** Removing any level shift *** 
ITER      Energy       Delta-E        Grad      Rot      Max-DP    RMS-DP
  5   -199.55881491  -0.0000409986  0.000357  0.000357  0.000288  0.000014
               *** Restarting incremental Fock matrix formation ***
  6   -199.55881649  -0.0000015864  0.000052  0.000090  0.000135  0.000006
  7   -199.55881653  -0.0000000385  0.000047  0.000035  0.000020  0.000001
  8   -199.55881654  -0.0000000043  0.000009  0.000005  0.000012  0.000001
  9   -199.55881654  -0.0000000033  0.000005  0.000003  0.000003  0.000000
                 **** Energy Check signals convergence ****
              ***Rediagonalizing the Fockian in SOSCF/NRSCF***

               *****************************************************
               *                     SUCCESS                       *
               *           SCF CONVERGED AFTER  10 CYCLES          *
               *****************************************************

Setting up the final grid:

General Integration Accuracy     IntAcc      ...  4.670
Radial Grid Type                 RadialGrid  ... Gauss-Chebyshev
Angular Grid (max. acc.)         AngularGrid ... Lebedev-302
Angular grid pruning method      GridPruning ... 3 (G Style)
Weight generation scheme         WeightScheme... Becke
Basis function cutoff            BFCut       ...    1.0000e-11
Integration weight cutoff        WCut        ...    1.0000e-14
Grids for H and He will be reduced by one unit

# of grid points (after initial pruning)     ...  12544 (   0.0 sec)
# of grid points (after weights+screening)   ...  12518 (   0.0 sec)
nearest neighbour list constructed           ...    0.0 sec
Grid point re-assignment to atoms done       ...    0.0 sec
Grid point division into batches done        ...    0.1 sec
Reduced shell lists constructed in    0.1 sec

Total number of grid points                  ...    12518
Total number of batches                      ...      196
Average number of points per batch           ...       63
Average number of grid points per atom       ...     6259
Average number of shells per batch           ...     5.40 (19.29%)
Average number of basis functions per batch  ...    13.80 (15.00%)
Average number of large shells per batch     ...     3.50 (64.81%)
Average number of large basis fcns per batch ...     7.10 (51.45%)
Maximum spatial batch extension              ...  19.94, 19.94, 11.40 au
Average spatial batch extension              ...   0.68,  0.67,  0.45 au

Final grid set up in    0.1 sec
Final integration                            ... done (   0.0 sec)
Change in XC energy                          ...     0.009520798
Integrated number of electrons               ...    18.000004346
Previous integrated no of electrons          ...    17.999865431

----------------
TOTAL SCF ENERGY
----------------

Total Energy       :         -199.54929574 Eh           -5430.01239 eV

Components:
Nuclear Repulsion  :           30.87209642 Eh             840.07245 eV
Electronic Energy  :         -230.42139216 Eh           -6270.08485 eV
One Electron Energy:         -339.79591792 Eh           -9246.31700 eV
Two Electron Energy:          109.37452575 Eh            2976.23215 eV

Virial components:
Potential Energy   :         -398.59055515 Eh          -10846.20042 eV
Kinetic Energy     :          199.04125941 Eh            5416.18802 eV
Virial Ratio       :            2.00255242


DFT components:
N(Alpha)           :        9.000002172789 electrons
N(Beta)            :        9.000002172789 electrons
N(Total)           :       18.000004345578 electrons
E(X)               :      -20.142666393745 Eh       
E(C)               :       -0.612384826344 Eh       
E(XC)              :      -20.755051220088 Eh       
DFET-embed. en.    :        0.000000000000 Eh       

---------------
SCF CONVERGENCE
---------------

  Last Energy change         ...   -5.9657e-10  Tolerance :   1.0000e-08
  Last MAX-Density change    ...    1.5882e-06  Tolerance :   1.0000e-07
  Last RMS-Density change    ...    6.9856e-08  Tolerance :   5.0000e-09
  Last Orbital Gradient      ...    1.4029e-06  Tolerance :   1.0000e-05
  Last Orbital Rotation      ...    1.1103e-06  Tolerance :   1.0000e-05

             **** THE GBW FILE WAS UPDATED (14_F2.gbw) ****
             **** DENSITY FILE WAS UPDATED (14_F2.scfp) ****
             **** ENERGY FILE WAS UPDATED (14_F2.en.tmp) ****
             **** THE GBW FILE WAS UPDATED (14_F2.gbw) ****
             **** DENSITY FILE WAS UPDATED (14_F2.scfp) ****
----------------
ORBITAL ENERGIES
----------------

  NO   OCC          E(Eh)            E(eV) 
   0   2.0000     -24.557941      -668.2555 
   1   2.0000     -24.557931      -668.2553 
   2   2.0000      -1.319612       -35.9085 
   3   2.0000      -1.072201       -29.1761 
   4   2.0000      -0.577250       -15.7078 
   5   2.0000      -0.501226       -13.6391 
   6   2.0000      -0.501226       -13.6391 
   7   2.0000      -0.366192        -9.9646 
   8   2.0000      -0.366192        -9.9646 
   9   0.0000      -0.183956        -5.0057 
  10   0.0000       0.106581         2.9002 
  11   0.0000       0.106773         2.9054 
  12   0.0000       0.141855         3.8601 
  13   0.0000       0.141855         3.8601 
  14   0.0000       0.200931         5.4676 
  15   0.0000       0.208838         5.6828 
  16   0.0000       0.208838         5.6828 
  17   0.0000       0.363117         9.8809 
  18   0.0000       0.630147        17.1472 
  19   0.0000       0.630545        17.1580 
  20   0.0000       0.774764        21.0824 
  21   0.0000       0.774764        21.0824 
  22   0.0000       0.815328        22.1862 
  23   0.0000       0.887035        24.1374 
  24   0.0000       0.887035        24.1374 
  25   0.0000       0.892279        24.2801 
  26   0.0000       0.894062        24.3287 
  27   0.0000       0.896235        24.3878 
  28   0.0000       0.913873        24.8678 
  29   0.0000       0.913873        24.8678 
  30   0.0000       1.060557        28.8592 
  31   0.0000       1.193909        32.4879 
  32   0.0000       1.317649        35.8551 
  33   0.0000       1.317649        35.8551 
  34   0.0000       1.532714        41.7073 
  35   0.0000       2.186132        59.4877 
  36   0.0000       2.186132        59.4877 
  37   0.0000       2.334538        63.5260 
  38   0.0000       2.344036        63.7845 
  39   0.0000       2.380436        64.7750 
  40   0.0000       2.542980        69.1980 
  41   0.0000       2.542980        69.1980 
  42   0.0000       2.594953        70.6123 
  43   0.0000       2.596319        70.6494 
  44   0.0000       2.610793        71.0433 
  45   0.0000       2.611834        71.0716 
  46   0.0000       2.704383        73.5900 
  47   0.0000       2.762041        75.1590 
  48   0.0000       2.762041        75.1590 
  49   0.0000       2.850369        77.5625 
  50   0.0000       2.850369        77.5625 
  51   0.0000       3.031333        82.4868 
  52   0.0000       3.167627        86.1955 
  53   0.0000       3.167627        86.1955 
  54   0.0000       3.378391        91.9307 
  55   0.0000       3.381019        92.0022 
  56   0.0000       3.508283        95.4652 
  57   0.0000       3.576264        97.3151 
  58   0.0000       4.006732       109.0287 
  59   0.0000       4.006732       109.0287 
  60   0.0000       4.658520       126.7648 
  61   0.0000       4.658520       126.7648 
  62   0.0000       4.883815       132.8954 
  63   0.0000       4.885412       132.9388 
  64   0.0000       4.885412       132.9388 
  65   0.0000       6.403161       174.2389 
  66   0.0000       8.128656       221.1920 
  67   0.0000       8.359766       227.4808 
  68   0.0000       8.359766       227.4808 
  69   0.0000       8.409188       228.8256 
  70   0.0000       8.410329       228.8567 
  71   0.0000       8.487040       230.9441 
  72   0.0000       8.487040       230.9441 
  73   0.0000       8.571353       233.2384 
  74   0.0000       8.571353       233.2384 
  75   0.0000       8.637520       235.0389 
  76   0.0000       8.642502       235.1744 
  77   0.0000       8.657104       235.5718 
  78   0.0000       8.664229       235.7657 
  79   0.0000       8.690885       236.4910 
  80   0.0000       8.690885       236.4910 
  81   0.0000       8.786299       239.0874 
  82   0.0000       8.794696       239.3159 
  83   0.0000       8.839151       240.5255 
  84   0.0000       8.906950       242.3704 
  85   0.0000       8.906950       242.3704 
  86   0.0000       9.095437       247.4994 
  87   0.0000       9.244068       251.5439 
  88   0.0000       9.244068       251.5439 
  89   0.0000       9.939943       270.4796 
  90   0.0000      11.951342       325.2126 
  91   0.0000      14.873738       404.7350 

                    ********************************
                    * MULLIKEN POPULATION ANALYSIS *
                    ********************************

-----------------------
MULLIKEN ATOMIC CHARGES
-----------------------
   0 F :    0.000000
   1 F :   -0.000000
Sum of atomic charges:    0.0000000

--------------------------------
MULLIKEN REDUCED ORBITAL CHARGES
--------------------------------
  0 F s       :     4.009962  s :     4.009962
      pz      :     0.984374  p :     4.969147
      px      :     1.992386
      py      :     1.992386
      dz2     :     0.003725  d :     0.015396
      dxz     :     0.005836
      dyz     :     0.005836
      dx2y2   :     0.000000
      dxy     :     0.000000
      f0      :     0.001939  f :     0.005495
      f+1     :     0.001778
      f-1     :     0.001778
      f+2     :     0.000000
      f-2     :     0.000000
      f+3     :     0.000000
      f-3     :     0.000000
  1 F s       :     4.009962  s :     4.009962
      pz      :     0.984374  p :     4.969147
      px      :     1.992386
      py      :     1.992386
      dz2     :     0.003725  d :     0.015396
      dxz     :     0.005836
      dyz     :     0.005836
      dx2y2   :     0.000000
      dxy     :     0.000000
      f0      :     0.001939  f :     0.005495
      f+1     :     0.001778
      f-1     :     0.001778
      f+2     :     0.000000
      f-2     :     0.000000
      f+3     :     0.000000
      f-3     :     0.000000


                     *******************************
                     * LOEWDIN POPULATION ANALYSIS *
                     *******************************

----------------------
LOEWDIN ATOMIC CHARGES
----------------------
   0 F :    0.000000
   1 F :   -0.000000

-------------------------------
LOEWDIN REDUCED ORBITAL CHARGES
-------------------------------
  0 F s       :     3.711127  s :     3.711127
      pz      :     1.136998  p :     4.934558
      px      :     1.898780
      py      :     1.898780
      dz2     :     0.121776  d :     0.275871
      dxz     :     0.077048
      dyz     :     0.077048
      dx2y2   :     0.000000
      dxy     :     0.000000
      f0      :     0.030099  f :     0.078444
      f+1     :     0.024172
      f-1     :     0.024172
      f+2     :     0.000000
      f-2     :     0.000000
      f+3     :     0.000000
      f-3     :     0.000000
  1 F s       :     3.711127  s :     3.711127
      pz      :     1.136998  p :     4.934558
      px      :     1.898780
      py      :     1.898780
      dz2     :     0.121776  d :     0.275871
      dxz     :     0.077048
      dyz     :     0.077048
      dx2y2   :     0.000000
      dxy     :     0.000000
      f0      :     0.030099  f :     0.078444
      f+1     :     0.024172
      f-1     :     0.024172
      f+2     :     0.000000
      f-2     :     0.000000
      f+3     :     0.000000
      f-3     :     0.000000


                      *****************************
                      * MAYER POPULATION ANALYSIS *
                      *****************************

  NA   - Mulliken gross atomic population
  ZA   - Total nuclear charge
  QA   - Mulliken gross atomic charge
  VA   - Mayer's total valence
  BVA  - Mayer's bonded valence
  FA   - Mayer's free valence

  ATOM       NA         ZA         QA         VA         BVA        FA
  0 F      9.0000     9.0000     0.0000     0.8228     0.8228     0.0000
  1 F      9.0000     9.0000    -0.0000     0.8228     0.8228     0.0000

  Mayer bond orders larger than 0.100000
B(  0-F ,  1-F ) :   0.8228 

-------
TIMINGS
-------

Total SCF time: 0 days 0 hours 0 min 1 sec 

Total time                  ....       1.230 sec
Sum of individual times     ....       1.144 sec  ( 92.9%)

Fock matrix formation       ....       0.946 sec  ( 76.8%)
  Split-RI-J                ....       0.721 sec  ( 76.2% of F)
  XC integration            ....       0.185 sec  ( 19.5% of F)
    Basis function eval.    ....       0.007 sec  (  3.6% of XC)
    Density eval.           ....       0.008 sec  (  4.2% of XC)
    XC-Functional eval.     ....       0.003 sec  (  1.8% of XC)
    XC-Potential eval.      ....       0.016 sec  (  8.9% of XC)
Diagonalization             ....       0.007 sec  (  0.6%)
Density matrix formation    ....       0.003 sec  (  0.2%)
Population analysis         ....       0.002 sec  (  0.2%)
Initial guess               ....       0.100 sec  (  8.1%)
Orbital Transformation      ....       0.000 sec  (  0.0%)
Orbital Orthonormalization  ....       0.000 sec  (  0.0%)
DIIS solution               ....       0.003 sec  (  0.2%)
SOSCF solution              ....       0.003 sec  (  0.3%)
Grid generation             ....       0.080 sec  (  6.5%)


-------------------------------------------------------------------------------
                          DFT DISPERSION CORRECTION                            
                                                                               
                              DFTD3 V3.1  Rev 1                                
                          USING Becke-Johnson damping                          
-------------------------------------------------------------------------------
The SCAN functional is recognized
Active option DFTDOPT                   ...         4   

molecular C6(AA) [au] = 28.736237 


            DFT-D V3
 parameters
 s6 scaling factor         :     1.0000 
 a1 scaling factor         :     0.5380 
 s8 scaling factor         :     0.0000 
 a2 scaling factor         :     5.4200 
 ad hoc parameters k1-k3   :    16.0000     1.3333    -4.0000 

 Edisp/kcal,au: -0.022534808924  -0.000035911500 
 E6   /kcal   :  -0.022534809 
 E8   /kcal   :  -0.000000000 
 % E8         :   0.000000000 

-------------------------   ----------------
Dispersion correction           -0.000035912
-------------------------   ----------------


-------------------------   --------------------
FINAL SINGLE POINT ENERGY      -199.549331653208
-------------------------   --------------------



           ************************************************************
           *        Program running with 24 parallel MPI-processes    *
           *              working on a common directory               *
           ************************************************************
------------------------------------------------------------------------------
                         ORCA SCF GRADIENT CALCULATION
------------------------------------------------------------------------------

Gradient of the Kohn-Sham DFT energy:
Kohn-Sham wavefunction type      ... RKS
Hartree-Fock exchange scaling    ...    0.000
Number of operators              ...    1
Number of atoms                  ...    2
Basis set dimensions             ...   92
Integral neglect threshold       ... 2.5e-11
Integral primitive cutoff        ... 2.5e-12

Nuclear repulsion gradient       ... done
One Electron Gradient            ... done
Pre-screening matrix             ... done
RI-J gradient                    ... done
Exchange-correlation gradient    ... done
Dispersion correction            ... done

------------------
CARTESIAN GRADIENT
------------------

   1   F   :    0.000000000    0.000000008    0.001889481
   2   F   :    0.000000003   -0.000000007   -0.001889476

Difference to translation invariance:
           :    0.0000000037    0.0000000008    0.0000000050

Norm of the cartesian gradient     ...    0.0026721259
RMS gradient                       ...    0.0010908908
MAX gradient                       ...    0.0018894809

-------
TIMINGS
-------

Total SCF gradient time            ...        0.286 sec

One electron gradient       ....       0.016 sec  (  5.4%)
Prescreening matrices       ....       0.015 sec  (  5.3%)
RI-J Coulomb gradient       ....       0.072 sec  ( 25.3%)
XC gradient                 ....       0.012 sec  (  4.2%)
------------------------------------------------------------------------------
                         ORCA GEOMETRY RELAXATION STEP
------------------------------------------------------------------------------

Reading the OPT-File                    .... done
Getting information on internals        .... done
Copying old internal coords+grads       .... done
Making the new internal coordinates     .... (new redundants).... done
Validating the new internal coordinates .... (new redundants).... done
Calculating the B-matrix                .... done
Calculating the G,G- and P matrices     .... done
Transforming gradient to internals      .... done
Projecting the internal gradient        .... done
Number of atoms                         ....   2
Number of internal coordinates          ....   1
Current Energy                          ....  -199.549331653 Eh
Current gradient norm                   ....     0.002672126 Eh/bohr
Maximum allowed component of the step   ....  0.300
Current trust radius                    ....  0.300
Evaluating the initial hessian          ....  (Almloef) done
Projecting the Hessian                  .... done
Forming the augmented Hessian           .... done
Diagonalizing the augmented Hessian     .... done
Last element of RFO vector              ....  0.999990577
Lowest eigenvalues of augmented Hessian:
 -0.000008203
Length of the computed step             ....  0.004341240
The final length of the internal step   ....  0.004341240
Converting the step to cartesian space:
 Initial RMS(Int)=    0.0043412397
Transforming coordinates:
 Iter   0:  RMS(Cart)=    0.0012532080 RMS(Int)=    0.0043412397
 Iter   1:  RMS(Cart)=    0.0000000000 RMS(Int)=    0.0000000000
done
Storing new coordinates                 .... done

                                .--------------------.
          ----------------------|Geometry convergence|-------------------------
          Item                value                   Tolerance       Converged
          ---------------------------------------------------------------------
          RMS gradient        0.0018894784            0.0001000000      NO
          MAX gradient        0.0018894784            0.0003000000      NO
          RMS step            0.0043412397            0.0020000000      NO
          MAX step            0.0043412397            0.0040000000      NO
          ........................................................
          Max(Bonds)      0.0023      Max(Angles)    0.00
          Max(Dihed)        0.00      Max(Improp)    0.00
          ---------------------------------------------------------------------

The optimization has not yet converged - more geometry cycles are needed


    ---------------------------------------------------------------------------
                         Redundant Internal Coordinates
                            (Angstroem and degrees)

        Definition                    Value    dE/dq     Step     New-Value
    ----------------------------------------------------------------------------
     1. B(F   1,F   0)                1.3884 -0.001889  0.0023    1.3907   
    ----------------------------------------------------------------------------

         *************************************************************
         *                GEOMETRY OPTIMIZATION CYCLE   2            *
         *************************************************************
---------------------------------
CARTESIAN COORDINATES (ANGSTROEM)
---------------------------------
  F     -0.000000   -0.000000   -0.695357
  F      0.000000    0.000000    0.695357

----------------------------
CARTESIAN COORDINATES (A.U.)
----------------------------
  NO LB      ZA    FRAG     MASS         X           Y           Z
   0 F     9.0000    0    18.998   -0.000000   -0.000000   -1.314035
   1 F     9.0000    0    18.998    0.000000    0.000000    1.314035

--------------------------------
INTERNAL COORDINATES (ANGSTROEM)
--------------------------------
 F      0   0   0     0.000000000000     0.00000000     0.00000000
 F      1   0   0     1.390714621106     0.00000000     0.00000000

---------------------------
INTERNAL COORDINATES (A.U.)
---------------------------
 F      0   0   0     0.000000000000     0.00000000     0.00000000
 F      1   0   0     2.628069764331     0.00000000     0.00000000



           ************************************************************
           *        Program running with 24 parallel MPI-processes    *
           *              working on a common directory               *
           ************************************************************
 One Electron integrals                  ... done
 Pre-screening matrix                    ... done


           ************************************************************
           *        Program running with 24 parallel MPI-processes    *
           *              working on a common directory               *
           ************************************************************

Diagonalization of the overlap matrix:
Smallest eigenvalue                        ... 7.616e-04
Time for diagonalization                   ...    0.003 sec
Threshold for overlap eigenvalues          ... 1.000e-08
Number of eigenvalues below threshold      ... 0
Time for construction of square roots      ...    0.001 sec
Total time needed                          ...    0.004 sec

-------------------
DFT GRID GENERATION
-------------------

General Integration Accuracy     IntAcc      ...  4.340
Radial Grid Type                 RadialGrid  ... Gauss-Chebyshev
Angular Grid (max. acc.)         AngularGrid ... Lebedev-110
Angular grid pruning method      GridPruning ... 3 (G Style)
Weight generation scheme         WeightScheme... Becke
Basis function cutoff            BFCut       ...    1.0000e-11
Integration weight cutoff        WCut        ...    1.0000e-14
Grids for H and He will be reduced by one unit

# of grid points (after initial pruning)     ...   3480 (   0.0 sec)
# of grid points (after weights+screening)   ...   3456 (   0.0 sec)
nearest neighbour list constructed           ...    0.0 sec
Grid point re-assignment to atoms done       ...    0.0 sec
Grid point division into batches done        ...    0.0 sec
Reduced shell lists constructed in    0.0 sec

Total number of grid points                  ...     3456
Total number of batches                      ...       56
Average number of points per batch           ...       61
Average number of grid points per atom       ...     1728
Average number of shells per batch           ...    13.75 (49.11%)
Average number of basis functions per batch  ...    43.75 (47.55%)
Average number of large shells per batch     ...     9.25 (67.27%)
Average number of large basis fcns per batch ...    31.25 (71.43%)
Maximum spatial batch extension              ...  15.77, 25.65, 13.97 au
Average spatial batch extension              ...   0.77,  1.17,  0.75 au

Time for grid setup =    0.013 sec

--------------
SCF ITERATIONS
--------------
ITER       Energy         Delta-E        Max-DP      RMS-DP      [F,P]     Damp
               ***  Starting incremental Fock matrix formation  ***
                      *** Initiating the SOSCF procedure ***
                      *** Re-Reading the Fockian *** 
                      *** Removing any level shift *** 
ITER      Energy       Delta-E        Grad      Rot      Max-DP    RMS-DP
  0   -199.55884418 -199.5588441762  0.000445  0.000445  0.000397  0.000016
               *** Restarting incremental Fock matrix formation ***
  1   -199.55884603  -0.0000018497  0.000095  0.000107  0.000065  0.000003
  2   -199.55884608  -0.0000000562  0.000013  0.000010  0.000015  0.000001
  3   -199.55884608  -0.0000000005  0.000010  0.000005  0.000006  0.000000
                  ***Gradient check signals convergence***
              ***Rediagonalizing the Fockian in SOSCF/NRSCF***

               *****************************************************
               *                     SUCCESS                       *
               *           SCF CONVERGED AFTER   4 CYCLES          *
               *****************************************************

Setting up the final grid:

General Integration Accuracy     IntAcc      ...  4.670
Radial Grid Type                 RadialGrid  ... Gauss-Chebyshev
Angular Grid (max. acc.)         AngularGrid ... Lebedev-302
Angular grid pruning method      GridPruning ... 3 (G Style)
Weight generation scheme         WeightScheme... Becke
Basis function cutoff            BFCut       ...    1.0000e-11
Integration weight cutoff        WCut        ...    1.0000e-14
Grids for H and He will be reduced by one unit

# of grid points (after initial pruning)     ...  12544 (   0.0 sec)
# of grid points (after weights+screening)   ...  12518 (   0.0 sec)
nearest neighbour list constructed           ...    0.0 sec
Grid point re-assignment to atoms done       ...    0.0 sec
Grid point division into batches done        ...    0.1 sec
Reduced shell lists constructed in    0.1 sec

Total number of grid points                  ...    12518
Total number of batches                      ...      196
Average number of points per batch           ...       63
Average number of grid points per atom       ...     6259
Average number of shells per batch           ...     5.40 (19.29%)
Average number of basis functions per batch  ...    13.80 (15.00%)
Average number of large shells per batch     ...     3.50 (64.81%)
Average number of large basis fcns per batch ...     7.10 (51.45%)
Maximum spatial batch extension              ...  19.94, 19.94, 11.40 au
Average spatial batch extension              ...   0.68,  0.67,  0.45 au

Final grid set up in    0.1 sec
Final integration                            ... done (   0.1 sec)
Change in XC energy                          ...     0.009511990
Integrated number of electrons               ...    18.000004309
Previous integrated no of electrons          ...    17.999866293
Total Energy       :         -199.54933409 Eh           -5430.01344 eV
  Last Energy change         ...    1.4231e-10  Tolerance :   1.0000e-08
  Last MAX-Density change    ...    1.1956e-06  Tolerance :   1.0000e-07
             **** THE GBW FILE WAS UPDATED (14_F2.gbw) ****
             **** DENSITY FILE WAS UPDATED (14_F2.scfp) ****
             **** ENERGY FILE WAS UPDATED (14_F2.en.tmp) ****
             **** THE GBW FILE WAS UPDATED (14_F2.gbw) ****
             **** DENSITY FILE WAS UPDATED (14_F2.scfp) ****
Total SCF time: 0 days 0 hours 0 min 0 sec 


-------------------------------------------------------------------------------
                          DFT DISPERSION CORRECTION                            
                                                                               
                              DFTD3 V3.1  Rev 1                                
                          USING Becke-Johnson damping                          
-------------------------------------------------------------------------------
-------------------------   ----------------
Dispersion correction           -0.000035912
-------------------------   ----------------


-------------------------   --------------------
FINAL SINGLE POINT ENERGY      -199.549370004879
-------------------------   --------------------



           ************************************************************
           *        Program running with 24 parallel MPI-processes    *
           *              working on a common directory               *
           ************************************************************
------------------------------------------------------------------------------
                         ORCA SCF GRADIENT CALCULATION
------------------------------------------------------------------------------

Gradient of the Kohn-Sham DFT energy:
Kohn-Sham wavefunction type      ... RKS
Hartree-Fock exchange scaling    ...    0.000
Number of operators              ...    1
Number of atoms                  ...    2
Basis set dimensions             ...   92
Integral neglect threshold       ... 2.5e-11
Integral primitive cutoff        ... 2.5e-12

Nuclear repulsion gradient       ... done
One Electron Gradient            ... done
Pre-screening matrix             ... done
RI-J gradient                    ... done
Exchange-correlation gradient    ... done
Dispersion correction            ... done

------------------
CARTESIAN GRADIENT
------------------

   1   F   :   -0.000000001    0.000000005    0.000086623
   2   F   :    0.000000003   -0.000000007   -0.000086619

Difference to translation invariance:
           :    0.0000000020   -0.0000000018    0.0000000040

Norm of the cartesian gradient     ...    0.0001225006
RMS gradient                       ...    0.0000500107
MAX gradient                       ...    0.0000866230

-------
TIMINGS
-------

Total SCF gradient time            ...        0.284 sec

One electron gradient       ....       0.008 sec  (  3.0%)
Prescreening matrices       ....       0.015 sec  (  5.1%)
RI-J Coulomb gradient       ....       0.071 sec  ( 25.1%)
XC gradient                 ....       0.012 sec  (  4.3%)
------------------------------------------------------------------------------
                         ORCA GEOMETRY RELAXATION STEP
------------------------------------------------------------------------------

Reading the OPT-File                    .... done
Getting information on internals        .... done
Copying old internal coords+grads       .... done
Making the new internal coordinates     .... (new redundants).... done
Validating the new internal coordinates .... (new redundants).... done
Calculating the B-matrix                .... done
Calculating the G,G- and P matrices     .... done
Transforming gradient to internals      .... done
Projecting the internal gradient        .... done
Number of atoms                         ....   2
Number of internal coordinates          ....   1
Current Energy                          ....  -199.549370005 Eh
Current gradient norm                   ....     0.000122501 Eh/bohr
Maximum allowed component of the step   ....  0.300
Current trust radius                    ....  0.300
Updating the Hessian (BFGS)             .... done
Forming the augmented Hessian           .... done
Diagonalizing the augmented Hessian     .... done
Last element of RFO vector              ....  0.999999978
Lowest eigenvalues of augmented Hessian:
 -0.000000018
Length of the computed step             ....  0.000208581
The final length of the internal step   ....  0.000208581
Converting the step to cartesian space:
 Initial RMS(Int)=    0.0002085814
Transforming coordinates:
 Iter   0:  RMS(Cart)=    0.0000602123 RMS(Int)=    0.0002085814
 Iter   1:  RMS(Cart)=    0.0000000000 RMS(Int)=    0.0000000000
done
Storing new coordinates                 .... done

                                .--------------------.
          ----------------------|Geometry convergence|-------------------------
          Item                value                   Tolerance       Converged
          ---------------------------------------------------------------------
          Energy change      -0.0000383517            0.0000050000      NO
          RMS gradient        0.0000866210            0.0001000000      YES
          MAX gradient        0.0000866210            0.0003000000      YES
          RMS step            0.0002085814            0.0020000000      YES
          MAX step            0.0002085814            0.0040000000      YES
          ........................................................
          Max(Bonds)      0.0001      Max(Angles)    0.00
          Max(Dihed)        0.00      Max(Improp)    0.00
          ---------------------------------------------------------------------

       Everything but the energy has converged. However, the energy
       appears to be close enough to convergence to make sure that the
       final evaluation at the new geometry represents the equilibrium energy.
       Convergence will therefore be signaled now


                    ***********************HURRAY********************
                    ***        THE OPTIMIZATION HAS CONVERGED     ***
                    *************************************************


    ---------------------------------------------------------------------------
                         Redundant Internal Coordinates

                          --- Optimized Parameters ---  
                            (Angstroem and degrees)

        Definition                    OldVal   dE/dq     Step     FinalVal
    ----------------------------------------------------------------------------
     1. B(F   1,F   0)                1.3907 -0.000087  0.0001    1.3908   
    ----------------------------------------------------------------------------
                 *******************************************************
                 *** FINAL ENERGY EVALUATION AT THE STATIONARY POINT ***
                 ***               (AFTER    2 CYCLES)               ***
                 *******************************************************
---------------------------------
CARTESIAN COORDINATES (ANGSTROEM)
---------------------------------
  F     -0.000000   -0.000000   -0.695412
  F      0.000000    0.000000    0.695412

----------------------------
CARTESIAN COORDINATES (A.U.)
----------------------------
  NO LB      ZA    FRAG     MASS         X           Y           Z
   0 F     9.0000    0    18.998   -0.000000   -0.000000   -1.314139
   1 F     9.0000    0    18.998    0.000000    0.000000    1.314139

--------------------------------
INTERNAL COORDINATES (ANGSTROEM)
--------------------------------
 F      0   0   0     0.000000000000     0.00000000     0.00000000
 F      1   0   0     1.390824997636     0.00000000     0.00000000

---------------------------
INTERNAL COORDINATES (A.U.)
---------------------------
 F      0   0   0     0.000000000000     0.00000000     0.00000000
 F      1   0   0     2.628278345744     0.00000000     0.00000000

---------------------
BASIS SET INFORMATION
---------------------
There are 1 groups of distinct atoms

 Group   1 Type F   : 19s6p3d2f contracted to 5s4p3d2f pattern {88111/3111/111/11}

Atom   0F    basis set group =>   1
Atom   1F    basis set group =>   1
---------------------------------
AUXILIARY/J BASIS SET INFORMATION
---------------------------------
There are 1 groups of distinct atoms

 Group   1 Type F   : 12s5p4d2f1g contracted to 6s4p3d1f1g pattern {711111/2111/211/2/1}

Atom   0F    basis set group =>   1
Atom   1F    basis set group =>   1


           ************************************************************
           *        Program running with 24 parallel MPI-processes    *
           *              working on a common directory               *
           ************************************************************
------------------------------------------------------------------------------
                           ORCA GTO INTEGRAL CALCULATION
                           -- RI-GTO INTEGRALS CHOSEN --
------------------------------------------------------------------------------

                         BASIS SET STATISTICS AND STARTUP INFO

Gaussian basis set:
 # of primitive gaussian shells          ...   60
 # of primitive gaussian functions       ...  132
 # of contracted shells                  ...   28
 # of contracted basis functions         ...   92
 Highest angular momentum                ...    3
 Maximum contraction depth               ...    8
Auxiliary gaussian basis set:
 # of primitive gaussian shells          ...   48
 # of primitive gaussian functions       ...  140
 # of contracted shells                  ...   30
 # of contracted aux-basis functions     ...   98
 Highest angular momentum                ...    4
 Maximum contraction depth               ...    7
Ratio of auxiliary to basis functions    ...  1.07
Integral package used                  ... LIBINT
 One Electron integrals                  ... done
 Ordering auxiliary basis shells         ... done
 Integral threshhold             Thresh  ...  2.500e-11
 Primitive cut-off               TCut    ...  2.500e-12
 Pre-screening matrix                    ... done
 Shell pair data                         ... 
 Ordering of the shell pairs             ... done (   0.000 sec) 406 of 406 pairs
 Determination of significant pairs      ... done (   0.000 sec)
 Creation of shell pair data             ... done (   0.000 sec)
 Storage of shell pair data              ... done (   0.039 sec)
 Shell pair data done in (   0.039 sec)
 Computing two index integrals           ... done
 Cholesky decomposition of the V-matrix  ... done


Timings:
 Total evaluation time                   ...   0.167 sec (  0.003 min)
 One electron matrix time                ...   0.008 sec (  0.000 min) =  4.9%
 Schwartz matrix evaluation time         ...   0.092 sec (  0.002 min) = 54.7%
 Two index repulsion integral time       ...   0.000 sec (  0.000 min) =  0.2%
 Cholesky decomposition of V             ...   0.001 sec (  0.000 min) =  0.4%
 Three index repulsion integral time     ...   0.000 sec (  0.000 min) =  0.0%



           ************************************************************
           *        Program running with 24 parallel MPI-processes    *
           *              working on a common directory               *
           ************************************************************
-------------------------------------------------------------------------------
                                 ORCA SCF
-------------------------------------------------------------------------------

------------
SCF SETTINGS
------------
Hamiltonian:
 Density Functional     Method          .... DFT(GTOs)
 Exchange Functional    Exchange        .... SCAN
 Correlation Functional Correlation     .... SCAN
 Gradients option       PostSCFGGA      .... off
   Density functional embedding theory  .... OFF
   NL short-range parameter             ....  6.400000
 RI-approximation to the Coulomb term is turned on
   Number of auxiliary basis functions  .... 98


General Settings:
 Integral files         IntName         .... 14_F2
 Hartree-Fock type      HFTyp           .... RHF
 Total Charge           Charge          ....    0
 Multiplicity           Mult            ....    1
 Number of Electrons    NEL             ....   18
 Basis Dimension        Dim             ....   92
 Nuclear Repulsion      ENuc            ....     30.8186536373 Eh

Convergence Acceleration:
 DIIS                   CNVDIIS         .... on
   Start iteration      DIISMaxIt       ....    12
   Startup error        DIISStart       ....  0.200000
   # of expansion vecs  DIISMaxEq       ....     5
   Bias factor          DIISBfac        ....   1.050
   Max. coefficient     DIISMaxC        ....  10.000
 Newton-Raphson         CNVNR           .... off
 SOSCF                  CNVSOSCF        .... on
   Start iteration      SOSCFMaxIt      ....   150
   Startup grad/error   SOSCFStart      ....  0.003300
 Level Shifting         CNVShift        .... on
   Level shift para.    LevelShift      ....    0.2500
   Turn off err/grad.   ShiftErr        ....    0.0010
 Zerner damping         CNVZerner       .... off
 Static damping         CNVDamp         .... on
   Fraction old density DampFac         ....    0.7000
   Max. Damping (<1)    DampMax         ....    0.9800
   Min. Damping (>=0)   DampMin         ....    0.0000
   Turn off err/grad.   DampErr         ....    0.1000
 Fernandez-Rico         CNVRico         .... off

SCF Procedure:
 Maximum # iterations   MaxIter         ....   125
 SCF integral mode      SCFMode         .... Direct
   Integral package                     .... LIBINT
 Reset frequency        DirectResetFreq ....    20
 Integral Threshold     Thresh          ....  2.500e-11 Eh
 Primitive CutOff       TCut            ....  2.500e-12 Eh

Convergence Tolerance:
 Convergence Check Mode ConvCheckMode   .... Total+1el-Energy
 Convergence forced     ConvForced      .... 0
 Energy Change          TolE            ....  1.000e-08 Eh
 1-El. energy change                    ....  1.000e-05 Eh
 Orbital Gradient       TolG            ....  1.000e-05
 Orbital Rotation angle TolX            ....  1.000e-05
 DIIS Error             TolErr          ....  5.000e-07


Diagonalization of the overlap matrix:
Smallest eigenvalue                        ... 7.618e-04
Time for diagonalization                   ...    0.003 sec
Threshold for overlap eigenvalues          ... 1.000e-08
Number of eigenvalues below threshold      ... 0
Time for construction of square roots      ...    0.001 sec
Total time needed                          ...    0.004 sec

---------------------
INITIAL GUESS: MOREAD
---------------------
Guess MOs are being read from file: 14_F2.gbw
Input Geometry matches current geometry (good)
Input basis set matches current basis set (good)
MOs were renormalized
MOs were reorthogonalized (Cholesky)
                      ------------------
                      INITIAL GUESS DONE (   0.0 sec)
                      ------------------
-------------------
DFT GRID GENERATION
-------------------

General Integration Accuracy     IntAcc      ...  4.340
Radial Grid Type                 RadialGrid  ... Gauss-Chebyshev
Angular Grid (max. acc.)         AngularGrid ... Lebedev-110
Angular grid pruning method      GridPruning ... 3 (G Style)
Weight generation scheme         WeightScheme... Becke
Basis function cutoff            BFCut       ...    1.0000e-11
Integration weight cutoff        WCut        ...    1.0000e-14
Grids for H and He will be reduced by one unit

# of grid points (after initial pruning)     ...   3480 (   0.0 sec)
# of grid points (after weights+screening)   ...   3456 (   0.0 sec)
nearest neighbour list constructed           ...    0.0 sec
Grid point re-assignment to atoms done       ...    0.0 sec
Grid point division into batches done        ...    0.0 sec
Reduced shell lists constructed in    0.0 sec

Total number of grid points                  ...     3456
Total number of batches                      ...       56
Average number of points per batch           ...       61
Average number of grid points per atom       ...     1728
Average number of shells per batch           ...    13.75 (49.11%)
Average number of basis functions per batch  ...    43.75 (47.55%)
Average number of large shells per batch     ...     9.25 (67.27%)
Average number of large basis fcns per batch ...    31.25 (71.43%)
Maximum spatial batch extension              ...  15.77, 25.65, 13.97 au
Average spatial batch extension              ...   0.77,  1.17,  0.75 au

Time for grid setup =    0.012 sec

--------------
SCF ITERATIONS
--------------
ITER       Energy         Delta-E        Max-DP      RMS-DP      [F,P]     Damp
               ***  Starting incremental Fock matrix formation  ***
                      *** Initiating the SOSCF procedure ***
                      *** Re-Reading the Fockian *** 
                      *** Removing any level shift *** 
ITER      Energy       Delta-E        Grad      Rot      Max-DP    RMS-DP
  0   -199.55884731 -199.5588473125  0.000024  0.000024  0.000019  0.000001
               *** Restarting incremental Fock matrix formation ***
  1   -199.55884732  -0.0000000043  0.000004  0.000004  0.000003  0.000000
                  ***Gradient check signals convergence***
              ***Rediagonalizing the Fockian in SOSCF/NRSCF***

               *****************************************************
               *                     SUCCESS                       *
               *           SCF CONVERGED AFTER   2 CYCLES          *
               *****************************************************

Setting up the final grid:

General Integration Accuracy     IntAcc      ...  4.670
Radial Grid Type                 RadialGrid  ... Gauss-Chebyshev
Angular Grid (max. acc.)         AngularGrid ... Lebedev-302
Angular grid pruning method      GridPruning ... 3 (G Style)
Weight generation scheme         WeightScheme... Becke
Basis function cutoff            BFCut       ...    1.0000e-11
Integration weight cutoff        WCut        ...    1.0000e-14
Grids for H and He will be reduced by one unit

# of grid points (after initial pruning)     ...  12544 (   0.0 sec)
# of grid points (after weights+screening)   ...  12518 (   0.0 sec)
nearest neighbour list constructed           ...    0.0 sec
Grid point re-assignment to atoms done       ...    0.0 sec
Grid point division into batches done        ...    0.1 sec
Reduced shell lists constructed in    0.1 sec

Total number of grid points                  ...    12518
Total number of batches                      ...      196
Average number of points per batch           ...       63
Average number of grid points per atom       ...     6259
Average number of shells per batch           ...     5.40 (19.29%)
Average number of basis functions per batch  ...    13.80 (15.00%)
Average number of large shells per batch     ...     3.50 (64.81%)
Average number of large basis fcns per batch ...     7.10 (51.45%)
Maximum spatial batch extension              ...  19.94, 19.94, 11.40 au
Average spatial batch extension              ...   0.68,  0.67,  0.46 au

Final grid set up in    0.1 sec
Final integration                            ... done (   0.1 sec)
Change in XC energy                          ...     0.009511563
Integrated number of electrons               ...    18.000004305
Previous integrated no of electrons          ...    17.999866333

----------------
TOTAL SCF ENERGY
----------------

Total Energy       :         -199.54933576 Eh           -5430.01348 eV

Components:
Nuclear Repulsion  :           30.81865364 Eh             838.61820 eV
Electronic Energy  :         -230.36798939 Eh           -6268.63168 eV
One Electron Energy:         -339.69152181 Eh           -9243.47624 eV
Two Electron Energy:          109.32353242 Eh            2974.84456 eV

Virial components:
Potential Energy   :         -398.58590827 Eh          -10846.07397 eV
Kinetic Energy     :          199.03657252 Eh            5416.06049 eV
Virial Ratio       :            2.00257623


DFT components:
N(Alpha)           :        9.000002152642 electrons
N(Beta)            :        9.000002152642 electrons
N(Total)           :       18.000004305284 electrons
E(X)               :      -20.141435857172 Eh       
E(C)               :       -0.612267103719 Eh       
E(XC)              :      -20.753702960891 Eh       
DFET-embed. en.    :        0.000000000000 Eh       

---------------
SCF CONVERGENCE
---------------

  Last Energy change         ...   -9.4138e-10  Tolerance :   1.0000e-08
  Last MAX-Density change    ...    1.2328e-06  Tolerance :   1.0000e-07
  Last RMS-Density change    ...    6.3934e-08  Tolerance :   5.0000e-09
  Last Orbital Gradient      ...    1.3102e-06  Tolerance :   1.0000e-05
  Last Orbital Rotation      ...    1.0020e-06  Tolerance :   1.0000e-05

             **** THE GBW FILE WAS UPDATED (14_F2.gbw) ****
             **** DENSITY FILE WAS UPDATED (14_F2.scfp) ****
             **** ENERGY FILE WAS UPDATED (14_F2.en.tmp) ****
             **** THE GBW FILE WAS UPDATED (14_F2.gbw) ****
             **** DENSITY FILE WAS UPDATED (14_F2.scfp) ****
----------------
ORBITAL ENERGIES
----------------

  NO   OCC          E(Eh)            E(eV) 
   0   2.0000     -24.558076      -668.2592 
   1   2.0000     -24.558066      -668.2590 
   2   2.0000      -1.318397       -35.8754 
   3   2.0000      -1.072839       -29.1934 
   4   2.0000      -0.576811       -15.6958 
   5   2.0000      -0.500756       -13.6263 
   6   2.0000      -0.500756       -13.6263 
   7   2.0000      -0.366612        -9.9760 
   8   2.0000      -0.366612        -9.9760 
   9   0.0000      -0.185647        -5.0517 
  10   0.0000       0.106566         2.8998 
  11   0.0000       0.106722         2.9041 
  12   0.0000       0.141857         3.8601 
  13   0.0000       0.141857         3.8601 
  14   0.0000       0.200950         5.4681 
  15   0.0000       0.208787         5.6814 
  16   0.0000       0.208787         5.6814 
  17   0.0000       0.363027         9.8785 
  18   0.0000       0.630266        17.1504 
  19   0.0000       0.630692        17.1620 
  20   0.0000       0.773958        21.0605 
  21   0.0000       0.773958        21.0605 
  22   0.0000       0.815790        22.1988 
  23   0.0000       0.887120        24.1398 
  24   0.0000       0.887120        24.1398 
  25   0.0000       0.891752        24.2658 
  26   0.0000       0.893664        24.3178 
  27   0.0000       0.895868        24.3778 
  28   0.0000       0.913778        24.8652 
  29   0.0000       0.913778        24.8652 
  30   0.0000       1.060992        28.8711 
  31   0.0000       1.195180        32.5225 
  32   0.0000       1.317213        35.8432 
  33   0.0000       1.317213        35.8432 
  34   0.0000       1.529729        41.6261 
  35   0.0000       2.186200        59.4895 
  36   0.0000       2.186200        59.4895 
  37   0.0000       2.335262        63.5457 
  38   0.0000       2.344848        63.8065 
  39   0.0000       2.379109        64.7389 
  40   0.0000       2.543811        69.2206 
  41   0.0000       2.543811        69.2206 
  42   0.0000       2.593802        70.5810 
  43   0.0000       2.595278        70.6211 
  44   0.0000       2.610415        71.0330 
  45   0.0000       2.611439        71.0609 
  46   0.0000       2.702041        73.5263 
  47   0.0000       2.760940        75.1290 
  48   0.0000       2.760940        75.1290 
  49   0.0000       2.849566        77.5406 
  50   0.0000       2.849566        77.5406 
  51   0.0000       3.028200        82.4015 
  52   0.0000       3.165131        86.1276 
  53   0.0000       3.165131        86.1276 
  54   0.0000       3.375920        91.8635 
  55   0.0000       3.378633        91.9373 
  56   0.0000       3.503395        95.3322 
  57   0.0000       3.580149        97.4208 
  58   0.0000       4.007424       109.0476 
  59   0.0000       4.007424       109.0476 
  60   0.0000       4.658532       126.7651 
  61   0.0000       4.658532       126.7651 
  62   0.0000       4.880916       132.8165 
  63   0.0000       4.880916       132.8165 
  64   0.0000       4.888236       133.0157 
  65   0.0000       6.389775       173.8746 
  66   0.0000       8.132399       221.2938 
  67   0.0000       8.359948       227.4857 
  68   0.0000       8.359948       227.4857 
  69   0.0000       8.409140       228.8243 
  70   0.0000       8.410191       228.8529 
  71   0.0000       8.486896       230.9402 
  72   0.0000       8.486896       230.9402 
  73   0.0000       8.576293       233.3728 
  74   0.0000       8.576293       233.3728 
  75   0.0000       8.636871       235.0212 
  76   0.0000       8.641975       235.1601 
  77   0.0000       8.657380       235.5793 
  78   0.0000       8.664454       235.7718 
  79   0.0000       8.689443       236.4518 
  80   0.0000       8.689443       236.4518 
  81   0.0000       8.785751       239.0724 
  82   0.0000       8.794162       239.3013 
  83   0.0000       8.835877       240.4364 
  84   0.0000       8.902628       242.2528 
  85   0.0000       8.902628       242.2528 
  86   0.0000       9.091093       247.3812 
  87   0.0000       9.241585       251.4763 
  88   0.0000       9.241585       251.4763 
  89   0.0000       9.935066       270.3469 
  90   0.0000      11.935286       324.7756 
  91   0.0000      14.875295       404.7774 

                    ********************************
                    * MULLIKEN POPULATION ANALYSIS *
                    ********************************

-----------------------
MULLIKEN ATOMIC CHARGES
-----------------------
   0 F :    0.000000
   1 F :   -0.000000
Sum of atomic charges:   -0.0000000

--------------------------------
MULLIKEN REDUCED ORBITAL CHARGES
--------------------------------
  0 F s       :     4.009905  s :     4.009905
      pz      :     0.984453  p :     4.969351
      px      :     1.992449
      py      :     1.992449
      dz2     :     0.003710  d :     0.015282
      dxz     :     0.005786
      dyz     :     0.005786
      dx2y2   :     0.000000
      dxy     :     0.000000
      f0      :     0.001932  f :     0.005461
      f+1     :     0.001765
      f-1     :     0.001765
      f+2     :     0.000000
      f-2     :     0.000000
      f+3     :     0.000000
      f-3     :     0.000000
  1 F s       :     4.009905  s :     4.009905
      pz      :     0.984453  p :     4.969351
      px      :     1.992449
      py      :     1.992449
      dz2     :     0.003710  d :     0.015282
      dxz     :     0.005786
      dyz     :     0.005786
      dx2y2   :     0.000000
      dxy     :     0.000000
      f0      :     0.001932  f :     0.005461
      f+1     :     0.001765
      f-1     :     0.001765
      f+2     :     0.000000
      f-2     :     0.000000
      f+3     :     0.000000
      f-3     :     0.000000


                     *******************************
                     * LOEWDIN POPULATION ANALYSIS *
                     *******************************

----------------------
LOEWDIN ATOMIC CHARGES
----------------------
   0 F :    0.000000
   1 F :   -0.000000

-------------------------------
LOEWDIN REDUCED ORBITAL CHARGES
-------------------------------
  0 F s       :     3.712670  s :     3.712670
      pz      :     1.136129  p :     4.935397
      px      :     1.899634
      py      :     1.899634
      dz2     :     0.121275  d :     0.274190
      dxz     :     0.076458
      dyz     :     0.076458
      dx2y2   :     0.000000
      dxy     :     0.000000
      f0      :     0.029926  f :     0.077743
      f+1     :     0.023908
      f-1     :     0.023908
      f+2     :     0.000000
      f-2     :     0.000000
      f+3     :     0.000000
      f-3     :     0.000000
  1 F s       :     3.712670  s :     3.712670
      pz      :     1.136129  p :     4.935397
      px      :     1.899634
      py      :     1.899634
      dz2     :     0.121275  d :     0.274190
      dxz     :     0.076458
      dyz     :     0.076458
      dx2y2   :     0.000000
      dxy     :     0.000000
      f0      :     0.029926  f :     0.077743
      f+1     :     0.023908
      f-1     :     0.023908
      f+2     :     0.000000
      f-2     :     0.000000
      f+3     :     0.000000
      f-3     :     0.000000


                      *****************************
                      * MAYER POPULATION ANALYSIS *
                      *****************************

  NA   - Mulliken gross atomic population
  ZA   - Total nuclear charge
  QA   - Mulliken gross atomic charge
  VA   - Mayer's total valence
  BVA  - Mayer's bonded valence
  FA   - Mayer's free valence

  ATOM       NA         ZA         QA         VA         BVA        FA
  0 F      9.0000     9.0000     0.0000     0.8245     0.8245    -0.0000
  1 F      9.0000     9.0000    -0.0000     0.8245     0.8245     0.0000

  Mayer bond orders larger than 0.100000
B(  0-F ,  1-F ) :   0.8245 

-------
TIMINGS
-------

Total SCF time: 0 days 0 hours 0 min 0 sec 

Total time                  ....       0.617 sec
Sum of individual times     ....       0.486 sec  ( 78.7%)

Fock matrix formation       ....       0.397 sec  ( 64.3%)
  Split-RI-J                ....       0.247 sec  ( 62.3% of F)
  XC integration            ....       0.030 sec  (  7.5% of F)
    Basis function eval.    ....       0.003 sec  (  9.1% of XC)
    Density eval.           ....       0.004 sec  ( 13.3% of XC)
    XC-Functional eval.     ....       0.002 sec  (  5.1% of XC)
    XC-Potential eval.      ....       0.007 sec  ( 24.1% of XC)
Diagonalization             ....       0.001 sec  (  0.2%)
Density matrix formation    ....       0.002 sec  (  0.3%)
Population analysis         ....       0.003 sec  (  0.4%)
Initial guess               ....       0.006 sec  (  0.9%)
Orbital Transformation      ....       0.000 sec  (  0.0%)
Orbital Orthonormalization  ....       0.003 sec  (  0.4%)
DIIS solution               ....       0.000 sec  (  0.0%)
SOSCF solution              ....       0.002 sec  (  0.3%)
Grid generation             ....       0.076 sec  ( 12.3%)


-------------------------------------------------------------------------------
                          DFT DISPERSION CORRECTION                            
                                                                               
                              DFTD3 V3.1  Rev 1                                
                          USING Becke-Johnson damping                          
-------------------------------------------------------------------------------
The SCAN functional is recognized
Active option DFTDOPT                   ...         4   

molecular C6(AA) [au] = 28.737557 


            DFT-D V3
 parameters
 s6 scaling factor         :     1.0000 
 a1 scaling factor         :     0.5380 
 s8 scaling factor         :     0.0000 
 a2 scaling factor         :     5.4200 
 ad hoc parameters k1-k3   :    16.0000     1.3333    -4.0000 

 Edisp/kcal,au: -0.022535459583  -0.000035912537 
 E6   /kcal   :  -0.022535460 
 E8   /kcal   :  -0.000000000 
 % E8         :   0.000000000 

-------------------------   ----------------
Dispersion correction           -0.000035913
-------------------------   ----------------


-------------------------   --------------------
FINAL SINGLE POINT ENERGY      -199.549371667764
-------------------------   --------------------

                                *** OPTIMIZATION RUN DONE ***

                            ***************************************
                            *     ORCA property calculations      *
                            ***************************************

                                    ---------------------
                                    Active property flags
                                    ---------------------
   (+) Dipole Moment


------------------------------------------------------------------------------
                       ORCA ELECTRIC PROPERTIES CALCULATION
------------------------------------------------------------------------------

Dipole Moment Calculation                       ... on
Quadrupole Moment Calculation                   ... off
Polarizability Calculation                      ... off
GBWName                                         ... 14_F2.gbw
Electron density file                           ... 14_F2.scfp
The origin for moment calculation is the CENTER OF MASS  = ( 0.000000,  0.000000  0.000000)

-------------
DIPOLE MOMENT
-------------
                                X             Y             Z
Electronic contribution:     -0.00000       0.00000      -0.00000
Nuclear contribution   :      0.00000       0.00000       0.00000
                        -----------------------------------------
Total Dipole Moment    :     -0.00000       0.00000      -0.00000
                        -----------------------------------------
Magnitude (a.u.)       :      0.00000
Magnitude (Debye)      :      0.00000



--------------------
Rotational spectrum 
--------------------
 
Rotational constants in cm-1:     0.000000     0.917432     0.917432 
Rotational constants in MHz :     0.000000 27503.929159 27503.929159 

 Dipole components along the rotational axes: 
x,y,z [a.u.] :     0.000000    -0.000000     0.000000 
x,y,z [Debye]:     0.000000    -0.000000     0.000000 

 

----------------------------------------------------------------------------
                           ORCA NUMERICAL FREQUENCIES
                              (24-process run)
----------------------------------------------------------------------------

Number of atoms                ... 2
Central differences            ... used
Number of displacements        ... 12
Numerical increment            ... 5.000e-03 bohr
IR-spectrum generation         ... on
Raman-spectrum generation      ... off
Surface Crossing Hessian       ... off

 WARNING: There are more processes than displacements to do
  ====> : Reducing number of processes to   6

The output will be reduced. Please look at the following files:
SCF program output             ... >14_F2.lastscf
Integral program output        ... >14_F2.lastint
Gradient program output        ... >14_F2.lastgrad
Dipole moment program output   ... >14_F2.lastmom
AutoCI program output          ... >14_F2.lastautoci


         <<< Energy and Gradient at the input geometry >>>

        <<< Energy and Gradient at displaced geometries >>>
             <<<Displacing   2/coordinate 3 (+)>>>
             <<<Displacing   1/coordinate 2 (+)>>>
             <<<Displacing   2/coordinate 1 (+)>>>
             <<<Displacing   1/coordinate 3 (+)>>>
             <<<Displacing   1/coordinate 1 (+)>>>
             <<<Displacing   2/coordinate 2 (+)>>>
             <<<Displacing   2/coordinate 3 (-)>>>
             <<<Displacing   1/coordinate 3 (-)>>>
             <<<Displacing   2/coordinate 2 (-)>>>
             <<<Displacing   1/coordinate 2 (-)>>>
             <<<Displacing   2/coordinate 1 (-)>>>
             <<<Displacing   1/coordinate 1 (-)>>>

-----------------------
VIBRATIONAL FREQUENCIES
-----------------------

Scaling factor for frequencies =  1.000000000 (already applied!)

   0:         0.00 cm**-1
   1:         0.00 cm**-1
   2:         0.00 cm**-1
   3:         0.00 cm**-1
   4:         0.00 cm**-1
   5:      1071.21 cm**-1


------------
NORMAL MODES
------------

These modes are the cartesian displacements weighted by the diagonal matrix
M(i,i)=1/sqrt(m[i]) where m[i] is the mass of the displaced atom
Thus, these vectors are normalized but *not* orthogonal

                  0          1          2          3          4          5    
      0       0.000000   0.000000   0.000000   0.000000   0.000000   0.000000
      1       0.000000   0.000000   0.000000   0.000000   0.000000   0.000000
      2       0.000000   0.000000   0.000000   0.000000   0.000000   0.707107
      3       0.000000   0.000000   0.000000   0.000000   0.000000  -0.000000
      4       0.000000   0.000000   0.000000   0.000000   0.000000  -0.000000
      5       0.000000   0.000000   0.000000   0.000000   0.000000  -0.707107


-----------
IR SPECTRUM  
-----------

 Mode    freq (cm**-1)   T**2         TX         TY         TZ
-------------------------------------------------------------------
   5:      1071.21    0.000000  ( -0.000000  -0.000000  -0.000001)

The first frequency considered to be a vibration is 5
The total number of vibrations considered is 1


--------------------------
THERMOCHEMISTRY AT 298.15K
--------------------------

Temperature         ... 298.15 K
Pressure            ... 1.00 atm
Total Mass          ... 38.00 AMU
The molecule is recognized as being linear

Throughout the following assumptions are being made:
  (1) The electronic state is orbitally nondegenerate
  (2) There are no thermally accessible electronically excited states
  (3) Hindered rotations indicated by low frequency modes are not
      treated as such but are treated as vibrations and this may
      cause some error
  (4) All equations used are the standard statistical mechanics
      equations for an ideal gas
  (5) All vibrations are strictly harmonic

freq.    1071.21  E(vib)   ...       0.02 

------------
INNER ENERGY
------------

The inner energy is: U= E(el) + E(ZPE) + E(vib) + E(rot) + E(trans)
    E(el)   - is the total energy from the electronic structure calculation
              = E(kin-el) + E(nuc-el) + E(el-el) + E(nuc-nuc)
    E(ZPE)  - the the zero temperature vibrational energy from the frequency calculation
    E(vib)  - the the finite temperature correction to E(ZPE) due to population
              of excited vibrational states
    E(rot)  - is the rotational thermal energy
    E(trans)- is the translational thermal energy

Summary of contributions to the inner energy U:
Electronic energy                ...   -199.54937152 Eh
Zero point energy                ...      0.00244039 Eh       1.53 kcal/mol
Thermal vibrational correction   ...      0.00002793 Eh       0.02 kcal/mol
Thermal rotational correction    ...      0.00094418 Eh       0.59 kcal/mol
Thermal translational correction ...      0.00141627 Eh       0.89 kcal/mol
-----------------------------------------------------------------------
Total thermal energy                   -199.54454275 Eh


Summary of corrections to the electronic energy:
(perhaps to be used in another calculation)
Total thermal correction                  0.00238838 Eh       1.50 kcal/mol
Non-thermal (ZPE) correction              0.00244039 Eh       1.53 kcal/mol
-----------------------------------------------------------------------
Total correction                          0.00482877 Eh       3.03 kcal/mol


--------
ENTHALPY
--------

The enthalpy is H = U + kB*T
                kB is Boltzmann's constant
Total free energy                 ...   -199.54454275 Eh 
Thermal Enthalpy correction       ...      0.00094421 Eh       0.59 kcal/mol
-----------------------------------------------------------------------
Total Enthalpy                    ...   -199.54359854 Eh


Note: Rotational entropy computed according to Herzberg 
Infrared and Raman Spectra, Chapter V,1, Van Nostrand Reinhold, 1945 
Point Group:  Dinfh, Symmetry Number:   2  
Rotational constants in cm-1:     0.000000     0.917432     0.917432 

Vibrational entropy computed according to the QRRHO of S. Grimme
Chem.Eur.J. 2012 18 9955


-------
ENTROPY
-------

The entropy contributions are T*S = T*(S(el)+S(vib)+S(rot)+S(trans))
     S(el)   - electronic entropy
     S(vib)  - vibrational entropy
     S(rot)  - rotational entropy
     S(trans)- translational entropy
The entropies will be listed as mutliplied by the temperature to get
units of energy

Electronic entropy                ...      0.00000000 Eh      0.00 kcal/mol
Vibrational entropy               ...      0.00003333 Eh      0.02 kcal/mol
Rotational entropy                ...      0.00540717 Eh      3.39 kcal/mol
Translational entropy             ...      0.01750073 Eh     10.98 kcal/mol
-----------------------------------------------------------------------
Final entropy term                ...      0.02294123 Eh     14.40 kcal/mol

In case the symmetry of your molecule has not been determined correctly
or in case you have a reason to use a different symmetry number we print 
out the resulting rotational entropy values for sn=1,12 :
 --------------------------------------------------------
|  sn= 1 | S(rot)=      -0.02113837 Eh    -13.26 kcal/mol|
|  sn= 2 | S(rot)=      -0.02179283 Eh    -13.68 kcal/mol|
|  sn= 3 | S(rot)=      -0.02217566 Eh    -13.92 kcal/mol|
|  sn= 4 | S(rot)=      -0.02244729 Eh    -14.09 kcal/mol|
|  sn= 5 | S(rot)=      -0.02265797 Eh    -14.22 kcal/mol|
|  sn= 6 | S(rot)=      -0.02283012 Eh    -14.33 kcal/mol|
|  sn= 7 | S(rot)=      -0.02297566 Eh    -14.42 kcal/mol|
|  sn= 8 | S(rot)=      -0.02310174 Eh    -14.50 kcal/mol|
|  sn= 9 | S(rot)=      -0.02321295 Eh    -14.57 kcal/mol|
|  sn=10 | S(rot)=      -0.02331243 Eh    -14.63 kcal/mol|
|  sn=11 | S(rot)=      -0.02340242 Eh    -14.69 kcal/mol|
|  sn=12 | S(rot)=      -0.02348458 Eh    -14.74 kcal/mol|
 --------------------------------------------------------


-------------------
GIBBS FREE ENERGY
-------------------

The Gibbs free energy is G = H - T*S

Total enthalpy                    ...   -199.54359854 Eh 
Total entropy correction          ...     -0.02294123 Eh    -14.40 kcal/mol
-----------------------------------------------------------------------
Final Gibbs free energy         ...   -199.56653977 Eh

For completeness - the Gibbs free energy minus the electronic energy
G-E(el)                           ...     -0.01716825 Eh    -10.77 kcal/mol


Total Time for Numerical Frequencies  :         8.282 sec

Timings for individual modules:

Sum of individual times         ...        8.569 sec (=   0.143 min)
GTO integral calculation        ...        2.083 sec (=   0.035 min)  24.3 %
SCF iterations                  ...        4.489 sec (=   0.075 min)  52.4 %
SCF Gradient evaluation         ...        1.913 sec (=   0.032 min)  22.3 %
Geometry relaxation             ...        0.084 sec (=   0.001 min)   1.0 %
                             ****ORCA TERMINATED NORMALLY****
TOTAL RUN TIME: 0 days 0 hours 0 minutes 15 seconds 510 msec
