
                                 *****************
                                 * O   R   C   A *
                                 *****************

           --- An Ab Initio, DFT and Semiempirical electronic structure package ---

                  #######################################################
                  #                        -***-                        #
                  #          Department of theory and spectroscopy      #
                  #               Directorship: Frank Neese             #
                  #        Max Planck Institute fuer Kohlenforschung    #
                  #                Kaiser Wilhelm Platz 1               #
                  #                 D-45470 Muelheim/Ruhr               #
                  #                      Germany                        #
                  #                                                     #
                  #                  All rights reserved                #
                  #                        -***-                        #
                  #######################################################


                         Program Version 4.2.0 -  RELEASE  -


 With contributions from (in alphabetic order):
   Daniel Aravena         : Magnetic Suceptibility
   Michael Atanasov       : Ab Initio Ligand Field Theory (pilot matlab implementation)
   Alexander A. Auer      : GIAO ZORA, VPT2
   Ute Becker             : Parallelization
   Giovanni Bistoni       : ED, misc. LED, open-shell LED, HFLED
   Martin Brehm           : Molecular dynamics
   Dmytro Bykov           : SCF Hessian
   Vijay G. Chilkuri      : MRCI spin determinant printing, contributions to CSF-ICE
   Dipayan Datta          : RHF DLPNO-CCSD density
   Achintya Kumar Dutta   : EOM-CC, STEOM-CC
   Dmitry Ganyushin       : Spin-Orbit,Spin-Spin,Magnetic field MRCI
   Miquel Garcia          : C-PCM Hessian, Gaussian charge scheme
   Yang Guo               : DLPNO-NEVPT2, CIM, IAO-localization
   Andreas Hansen         : Spin unrestricted coupled pair/coupled cluster methods
   Benjamin Helmich-Paris : CASSCF linear response (MC-RPA)
   Lee Huntington         : MR-EOM, pCC
   Robert Izsak           : Overlap fitted RIJCOSX, COSX-SCS-MP3, EOM
   Christian Kollmar      : KDIIS, OOCD, Brueckner-CCSD(T), CCSD density
   Simone Kossmann        : Meta GGA functionals, TD-DFT gradient, OOMP2, MP2 Hessian
   Martin Krupicka        : AUTO-CI
   Lucas Lang             : DCDCAS
   Dagmar Lenk            : GEPOL surface, SMD
   Dimitrios Liakos       : Extrapolation schemes; Compound Job, initial MDCI parallelization
   Dimitrios Manganas     : Further ROCIS development; embedding schemes
   Dimitrios Pantazis     : SARC Basis sets
   Taras Petrenko         : DFT Hessian,TD-DFT gradient, ASA, ECA, R-Raman, ABS, FL, XAS/XES, NRVS
   Peter Pinski           : DLPNO-MP2, DLPNO-MP2 Gradient
   Christoph Reimann      : Effective Core Potentials
   Marius Retegan         : Local ZFS, SOC
   Christoph Riplinger    : Optimizer, TS searches, QM/MM, DLPNO-CCSD(T), (RO)-DLPNO pert. Triples
   Tobias Risthaus        : Range-separated hybrids, TD-DFT gradient, RPA, STAB
   Michael Roemelt        : Original ROCIS implementation
   Masaaki Saitow         : Open-shell DLPNO-CCSD energy and density
   Barbara Sandhoefer     : DKH picture change effects
   Avijit Sen             : IP-ROCIS
   Kantharuban Sivalingam : CASSCF convergence, NEVPT2, FIC-MRCI
   Bernardo de Souza      : ESD, SOC TD-DFT
   Georgi Stoychev        : AutoAux, RI-MP2 NMR
   Willem Van den Heuvel  : Paramagnetic NMR
   Boris Wezisla          : Elementary symmetry handling
   Frank Wennmohs         : Technical directorship


 We gratefully acknowledge several colleagues who have allowed us to
 interface, adapt or use parts of their codes:
   Stefan Grimme, W. Hujo, H. Kruse,             : VdW corrections, initial TS optimization,
                  C. Bannwarth                     DFT functionals, gCP, sTDA/sTD-DF
   Ed Valeev, F. Pavosevic, A. Kumar             : LibInt (2-el integral package), F12 methods
   Garnet Chan, S. Sharma, J. Yang, R. Olivares  : DMRG
   Ulf Ekstrom                                   : XCFun DFT Library
   Mihaly Kallay                                 : mrcc  (arbitrary order and MRCC methods)
   Andreas Klamt, Michael Diedenhofen            : otool_cosmo (COSMO solvation model)
   Jiri Pittner, Ondrej Demel                    : Mk-CCSD
   Frank Weinhold                                : gennbo (NPA and NBO analysis)
   Christopher J. Cramer and Donald G. Truhlar   : smd solvation model
   Lars Goerigk                                  : TD-DFT with DH, B97 family of functionals
   V. Asgeirsson, H. Jonsson                     : NEB implementation
   FAccTs GmbH                                   : IRC, NEB, NEB-TS, Multilevel, MM, QM/MM, CI optimization
   S Lehtola, MJT Oliveira, MAL Marques          : LibXC Library


 Your calculation uses the libint2 library for the computation of 2-el integrals
 For citations please refer to: http://libint.valeyev.net

 Your ORCA version has been built with support for libXC version: 4.2.3
 For citations please refer to: https://tddft.org/programs/libxc/

 This ORCA versions uses:
   CBLAS   interface :  Fast vector & matrix operations
   LAPACKE interface :  Fast linear algebra routines
   SCALAPACK package :  Parallel linear algebra routines


Your calculation utilizes the atom-pairwise dispersion correction
with the Becke-Johnson damping scheme (D3BJ)
Cite in your paper:
S.Grimme, S.Ehrlich, L.Goerigk, J Comput Chem, (2011), 32, 1456–1465 
S.Grimme, J.Antony, S.Ehrlich and H.Krieg, J.Chem.Phys., 132, (2010), 154104 
   

----- Orbital basis set information -----
Your calculation utilizes the basis: aug-cc-pV(T+d)Z 
             Al - Ar: T.H. Dunning, Jr., K. A. Peterson and A. K. Wilson, J. Chem. Phys.
                      114, 9244 (2001)

----- AuxJ basis set information -----
Your calculation utilizes the auxiliary basis: def2/J
   F. Weigend, Phys. Chem. Chem. Phys. 8, 1057 (2006).

================================================================================
                                        WARNINGS
                       Please study these warnings very carefully!
================================================================================


WARNING: Geometry Optimization
  ===> : Switching off AutoStart
         For restart on a previous wavefunction, please use MOREAD

WARNING: The SCAN functional is very grid-sensitive!
         Use at least GRID5 and a higher intacc

INFO   : the flag for use of LIBINT has been found!

================================================================================
                                       INPUT FILE
================================================================================
NAME = 15_H2CO.in
|  1> #
|  2> # 15_H2CO scanfunc/aug-cc-pvt(+d)z
|  3> #
|  4> ! scanfunc d3bj aug-cc-pvt(+d)z def2/j opt xyzfile numfreq
|  5> 
|  6> *xyz 0 1
|  7> C           -0.008748659          0.001155597          0.000561564
|  8> O            1.179984630         -0.157249909         -0.074738871
|  9> H           -0.478730294          0.986582604         -0.186527529
| 10> H           -0.692514064         -0.830555519          0.260712785
| 11> *
| 12> 
| 13> %pal
| 14> nprocs 24
| 15> end
| 16> 
| 17> 
| 18>                          ****END OF INPUT****
================================================================================

                       *****************************
                       * Geometry Optimization Run *
                       *****************************

Geometry optimization settings:
Update method            Update   .... BFGS
Choice of coordinates    CoordSys .... Z-matrix Internals
Initial Hessian          InHess   .... Almoef's Model

Convergence Tolerances:
Energy Change            TolE     ....  5.0000e-06 Eh
Max. Gradient            TolMAXG  ....  3.0000e-04 Eh/bohr
RMS Gradient             TolRMSG  ....  1.0000e-04 Eh/bohr
Max. Displacement        TolMAXD  ....  4.0000e-03 bohr
RMS Displacement         TolRMSD  ....  2.0000e-03 bohr
Strict Convergence                ....  False
------------------------------------------------------------------------------
                        ORCA OPTIMIZATION COORDINATE SETUP
------------------------------------------------------------------------------

The optimization will be done in new redundant internal coordinates
Making redundant internal coordinates   ...  (new redundants) done
Evaluating the initial hessian          ...  (Almloef) done
Evaluating the coordinates              ...  done
Calculating the B-matrix                .... done
Calculating the G-matrix                .... done
Diagonalizing the G-matrix              .... done
The first mode is                       ....    1
The number of degrees of freedom        ....    6

    -----------------------------------------------------------------
                    Redundant Internal Coordinates


    -----------------------------------------------------------------
         Definition                    Initial Value    Approx d2E/dq
    -----------------------------------------------------------------
      1. B(O   1,C   0)                  1.2016         1.118024   
      2. B(H   2,C   0)                  1.1077         0.337457   
      3. B(H   3,C   0)                  1.1077         0.337454   
      4. A(O   1,C   0,H   3)          121.7637         0.383738   
      5. A(H   2,C   0,H   3)          116.4708         0.284992   
      6. A(O   1,C   0,H   2)          121.7655         0.383739   
      7. I(O   1,H   3,H   2,C   0)      0.0014         0.113866   
    -----------------------------------------------------------------

Number of atoms                         .... 4
Number of degrees of freedom            .... 7

         *************************************************************
         *                GEOMETRY OPTIMIZATION CYCLE   1            *
         *************************************************************
---------------------------------
CARTESIAN COORDINATES (ANGSTROEM)
---------------------------------
  C     -0.008749    0.001156    0.000562
  O      1.179985   -0.157250   -0.074739
  H     -0.478730    0.986583   -0.186528
  H     -0.692514   -0.830556    0.260713

----------------------------
CARTESIAN COORDINATES (A.U.)
----------------------------
  NO LB      ZA    FRAG     MASS         X           Y           Z
   0 C     6.0000    0    12.011   -0.016533    0.002184    0.001061
   1 O     8.0000    0    15.999    2.229848   -0.297159   -0.141236
   2 H     1.0000    0     1.008   -0.904669    1.864371   -0.352486
   3 H     1.0000    0     1.008   -1.308662   -1.569522    0.492676

--------------------------------
INTERNAL COORDINATES (ANGSTROEM)
--------------------------------
 C      0   0   0     0.000000000000     0.00000000     0.00000000
 O      1   0   0     1.201602801353     0.00000000     0.00000000
 H      1   2   0     1.107678406435   121.76553217     0.00000000
 H      1   2   3     1.107680986268   121.76365672   179.99831561

---------------------------
INTERNAL COORDINATES (A.U.)
---------------------------
 C      0   0   0     0.000000000000     0.00000000     0.00000000
 O      1   0   0     2.270700216310     0.00000000     0.00000000
 H      1   2   0     2.093208832620   121.76553217     0.00000000
 H      1   2   3     2.093213707799   121.76365672   179.99831561

---------------------
BASIS SET INFORMATION
---------------------
There are 3 groups of distinct atoms

 Group   1 Type C   : 19s6p3d2f contracted to 5s4p3d2f pattern {88111/3111/111/11}
 Group   2 Type O   : 19s6p3d2f contracted to 5s4p3d2f pattern {88111/3111/111/11}
 Group   3 Type H   : 6s3p2d contracted to 4s3p2d pattern {3111/111/11}

Atom   0C    basis set group =>   1
Atom   1O    basis set group =>   2
Atom   2H    basis set group =>   3
Atom   3H    basis set group =>   3
---------------------------------
AUXILIARY/J BASIS SET INFORMATION
---------------------------------
There are 3 groups of distinct atoms

 Group   1 Type C   : 12s5p4d2f1g contracted to 6s4p3d1f1g pattern {711111/2111/211/2/1}
 Group   2 Type O   : 12s5p4d2f1g contracted to 6s4p3d1f1g pattern {711111/2111/211/2/1}
 Group   3 Type H   : 5s2p1d contracted to 3s1p1d pattern {311/2/1}

Atom   0C    basis set group =>   1
Atom   1O    basis set group =>   2
Atom   2H    basis set group =>   3
Atom   3H    basis set group =>   3


           ************************************************************
           *        Program running with 24 parallel MPI-processes    *
           *              working on a common directory               *
           ************************************************************
------------------------------------------------------------------------------
                           ORCA GTO INTEGRAL CALCULATION
                           -- RI-GTO INTEGRALS CHOSEN --
------------------------------------------------------------------------------

                         BASIS SET STATISTICS AND STARTUP INFO

Gaussian basis set:
 # of primitive gaussian shells          ...   82
 # of primitive gaussian functions       ...  182
 # of contracted shells                  ...   46
 # of contracted basis functions         ...  138
 Highest angular momentum                ...    3
 Maximum contraction depth               ...    8
Auxiliary gaussian basis set:
 # of primitive gaussian shells          ...   64
 # of primitive gaussian functions       ...  172
 # of contracted shells                  ...   40
 # of contracted aux-basis functions     ...  120
 Highest angular momentum                ...    4
 Maximum contraction depth               ...    7
Ratio of auxiliary to basis functions    ...  0.87
Integral package used                  ... LIBINT
 One Electron integrals                  ... done
 Ordering auxiliary basis shells         ... done
 Integral threshhold             Thresh  ...  2.500e-11
 Primitive cut-off               TCut    ...  2.500e-12
 Pre-screening matrix                    ... done
 Shell pair data                         ... 
 Ordering of the shell pairs             ... done (   0.000 sec) 1081 of 1081 pairs
 Determination of significant pairs      ... done (   0.000 sec)
 Creation of shell pair data             ... done (   0.000 sec)
 Storage of shell pair data              ... done (   0.032 sec)
 Shell pair data done in (   0.032 sec)
 Computing two index integrals           ... done
 Cholesky decomposition of the V-matrix  ... done


Timings:
 Total evaluation time                   ...   0.161 sec (  0.003 min)
 One electron matrix time                ...   0.013 sec (  0.000 min) =  8.0%
 Schwartz matrix evaluation time         ...   0.093 sec (  0.002 min) = 57.7%
 Two index repulsion integral time       ...   0.001 sec (  0.000 min) =  0.3%
 Cholesky decomposition of V             ...   0.001 sec (  0.000 min) =  0.4%
 Three index repulsion integral time     ...   0.000 sec (  0.000 min) =  0.0%



           ************************************************************
           *        Program running with 24 parallel MPI-processes    *
           *              working on a common directory               *
           ************************************************************
-------------------------------------------------------------------------------
                                 ORCA SCF
-------------------------------------------------------------------------------

------------
SCF SETTINGS
------------
Hamiltonian:
 Density Functional     Method          .... DFT(GTOs)
 Exchange Functional    Exchange        .... SCAN
 Correlation Functional Correlation     .... SCAN
 Gradients option       PostSCFGGA      .... off
   Density functional embedding theory  .... OFF
   NL short-range parameter             ....  6.400000
 RI-approximation to the Coulomb term is turned on
   Number of auxiliary basis functions  .... 120


General Settings:
 Integral files         IntName         .... 15_H2CO
 Hartree-Fock type      HFTyp           .... RHF
 Total Charge           Charge          ....    0
 Multiplicity           Mult            ....    1
 Number of Electrons    NEL             ....   16
 Basis Dimension        Dim             ....  138
 Nuclear Repulsion      ENuc            ....     31.3483658812 Eh

Convergence Acceleration:
 DIIS                   CNVDIIS         .... on
   Start iteration      DIISMaxIt       ....    12
   Startup error        DIISStart       ....  0.200000
   # of expansion vecs  DIISMaxEq       ....     5
   Bias factor          DIISBfac        ....   1.050
   Max. coefficient     DIISMaxC        ....  10.000
 Newton-Raphson         CNVNR           .... off
 SOSCF                  CNVSOSCF        .... on
   Start iteration      SOSCFMaxIt      ....   150
   Startup grad/error   SOSCFStart      ....  0.003300
 Level Shifting         CNVShift        .... on
   Level shift para.    LevelShift      ....    0.2500
   Turn off err/grad.   ShiftErr        ....    0.0010
 Zerner damping         CNVZerner       .... off
 Static damping         CNVDamp         .... on
   Fraction old density DampFac         ....    0.7000
   Max. Damping (<1)    DampMax         ....    0.9800
   Min. Damping (>=0)   DampMin         ....    0.0000
   Turn off err/grad.   DampErr         ....    0.1000
 Fernandez-Rico         CNVRico         .... off

SCF Procedure:
 Maximum # iterations   MaxIter         ....   125
 SCF integral mode      SCFMode         .... Direct
   Integral package                     .... LIBINT
 Reset frequency        DirectResetFreq ....    20
 Integral Threshold     Thresh          ....  2.500e-11 Eh
 Primitive CutOff       TCut            ....  2.500e-12 Eh

Convergence Tolerance:
 Convergence Check Mode ConvCheckMode   .... Total+1el-Energy
 Convergence forced     ConvForced      .... 0
 Energy Change          TolE            ....  1.000e-08 Eh
 1-El. energy change                    ....  1.000e-05 Eh
 Orbital Gradient       TolG            ....  1.000e-05
 Orbital Rotation angle TolX            ....  1.000e-05
 DIIS Error             TolErr          ....  5.000e-07


Diagonalization of the overlap matrix:
Smallest eigenvalue                        ... 8.638e-05
Time for diagonalization                   ...    0.006 sec
Threshold for overlap eigenvalues          ... 1.000e-08
Number of eigenvalues below threshold      ... 0
Time for construction of square roots      ...    0.002 sec
Total time needed                          ...    0.008 sec

-------------------
DFT GRID GENERATION
-------------------

General Integration Accuracy     IntAcc      ...  4.340
Radial Grid Type                 RadialGrid  ... Gauss-Chebyshev
Angular Grid (max. acc.)         AngularGrid ... Lebedev-110
Angular grid pruning method      GridPruning ... 3 (G Style)
Weight generation scheme         WeightScheme... Becke
Basis function cutoff            BFCut       ...    1.0000e-11
Integration weight cutoff        WCut        ...    1.0000e-14
Grids for H and He will be reduced by one unit

# of grid points (after initial pruning)     ...   4960 (   0.0 sec)
# of grid points (after weights+screening)   ...   4896 (   0.0 sec)
nearest neighbour list constructed           ...    0.0 sec
Grid point re-assignment to atoms done       ...    0.0 sec
Grid point division into batches done        ...    0.0 sec
Reduced shell lists constructed in    0.0 sec

Total number of grid points                  ...     4896
Total number of batches                      ...       79
Average number of points per batch           ...       61
Average number of grid points per atom       ...     1224
Average number of shells per batch           ...    36.80 (80.00%)
Average number of basis functions per batch  ...   110.40 (80.00%)
Average number of large shells per batch     ...    36.80 (100.00%)
Average number of large basis fcns per batch ...   110.40 (100.00%)
Maximum spatial batch extension              ...   2.86,  4.73,  8.97 au
Average spatial batch extension              ...   0.11,  0.15,  0.25 au

Time for grid setup =    0.017 sec

------------------------------
INITIAL GUESS: MODEL POTENTIAL
------------------------------
Loading Hartree-Fock densities                     ... done
Calculating cut-offs                               ... done
Setting up the integral package                    ... done
Initializing the effective Hamiltonian             ... done
Starting the Coulomb interaction                   ... done (   0.0 sec)
Reading the grid                                   ... done
Mapping shells                                     ... done
Starting the XC term evaluation                    ... done (   0.0 sec)
  promolecular density results
     # of electrons  =     15.999034895
     EX              =    -15.189140080
     EC              =     -0.257421932
     EX+EC           =    -15.446562012
Transforming the Hamiltonian                       ... done (   0.0 sec)
Diagonalizing the Hamiltonian                      ... done (   0.0 sec)
Back transforming the eigenvectors                 ... done (   0.0 sec)
Now organizing SCF variables                       ... done
                      ------------------
                      INITIAL GUESS DONE (   0.1 sec)
                      ------------------
--------------
SCF ITERATIONS
--------------
ITER       Energy         Delta-E        Max-DP      RMS-DP      [F,P]     Damp
               ***  Starting incremental Fock matrix formation  ***
  0   -114.2753165583   0.000000000000 0.05769211  0.00162967  0.5076423 0.7000
  1   -114.3922664119  -0.116949853617 0.03092747  0.00082568  0.1702205 0.7000
                               ***Turning on DIIS***
  2   -114.4194778238  -0.027211411879 0.04414156  0.00113631  0.0660716 0.0000
  3   -114.4933678451  -0.073890021304 0.02410406  0.00077634  0.0556567 0.0000
  4   -114.4979357263  -0.004567881207 0.01155899  0.00027580  0.0502987 0.0000
  5   -114.5006546286  -0.002718902347 0.00352492  0.00010131  0.0110369 0.0000
  6   -114.5007934042  -0.000138775527 0.00095440  0.00004022  0.0042809 0.0000
                      *** Initiating the SOSCF procedure ***
                           *** Shutting down DIIS ***
                      *** Re-Reading the Fockian *** 
                      *** Removing any level shift *** 
ITER      Energy       Delta-E        Grad      Rot      Max-DP    RMS-DP
  7   -114.50081029  -0.0000168813  0.000291  0.000291  0.000399  0.000015
               *** Restarting incremental Fock matrix formation ***
  8   -114.50081149  -0.0000012090  0.000252  0.000859  0.000402  0.000011
  9   -114.50081079   0.0000007052  0.000509  0.000445  0.000233  0.000005
 10   -114.50081172  -0.0000009279  0.000020  0.000028  0.000150  0.000003
 11   -114.50081172  -0.0000000015  0.000018  0.000015  0.000046  0.000001
 12   -114.50081172  -0.0000000052  0.000003  0.000006  0.000019  0.000000
                  ***Gradient check signals convergence***
              ***Rediagonalizing the Fockian in SOSCF/NRSCF***

               *****************************************************
               *                     SUCCESS                       *
               *           SCF CONVERGED AFTER  13 CYCLES          *
               *****************************************************

Setting up the final grid:

General Integration Accuracy     IntAcc      ...  4.670
Radial Grid Type                 RadialGrid  ... Gauss-Chebyshev
Angular Grid (max. acc.)         AngularGrid ... Lebedev-302
Angular grid pruning method      GridPruning ... 3 (G Style)
Weight generation scheme         WeightScheme... Becke
Basis function cutoff            BFCut       ...    1.0000e-11
Integration weight cutoff        WCut        ...    1.0000e-14
Grids for H and He will be reduced by one unit

# of grid points (after initial pruning)     ...  19212 (   0.0 sec)
# of grid points (after weights+screening)   ...  18893 (   0.0 sec)
nearest neighbour list constructed           ...    0.0 sec
Grid point re-assignment to atoms done       ...    0.0 sec
Grid point division into batches done        ...    0.1 sec
Reduced shell lists constructed in    0.1 sec

Total number of grid points                  ...    18893
Total number of batches                      ...      298
Average number of points per batch           ...       63
Average number of grid points per atom       ...     4723
Average number of shells per batch           ...    42.21 (91.77%)
Average number of basis functions per batch  ...   126.64 (91.77%)
Average number of large shells per batch     ...    40.29 (95.43%)
Average number of large basis fcns per batch ...   120.57 (95.21%)
Maximum spatial batch extension              ...   3.59,  5.76, 13.91 au
Average spatial batch extension              ...   0.08,  0.10,  0.14 au

Final grid set up in    0.1 sec
Final integration                            ... done (   0.0 sec)
Change in XC energy                          ...     0.004075210
Integrated number of electrons               ...    15.999981906
Previous integrated no of electrons          ...    16.000012761

----------------
TOTAL SCF ENERGY
----------------

Total Energy       :         -114.49673651 Eh           -3115.61460 eV

Components:
Nuclear Repulsion  :           31.34836588 Eh             853.03240 eV
Electronic Energy  :         -145.84510240 Eh           -3968.64700 eV
One Electron Energy:         -217.61348144 Eh           -5921.56388 eV
Two Electron Energy:           71.76837905 Eh            1952.91688 eV

Virial components:
Potential Energy   :         -228.35273308 Eh           -6213.79377 eV
Kinetic Energy     :          113.85599656 Eh            3098.17917 eV
Virial Ratio       :            2.00562763


DFT components:
N(Alpha)           :        7.999990953093 electrons
N(Beta)            :        7.999990953093 electrons
N(Total)           :       15.999981906185 electrons
E(X)               :      -14.151993976404 Eh       
E(C)               :       -0.503753041556 Eh       
E(XC)              :      -14.655747017960 Eh       
DFET-embed. en.    :        0.000000000000 Eh       

---------------
SCF CONVERGENCE
---------------

  Last Energy change         ...   -5.6892e-10  Tolerance :   1.0000e-08
  Last MAX-Density change    ...    9.3489e-06  Tolerance :   1.0000e-07
  Last RMS-Density change    ...    1.8530e-07  Tolerance :   5.0000e-09
  Last Orbital Gradient      ...    1.2913e-06  Tolerance :   1.0000e-05
  Last Orbital Rotation      ...    1.9607e-06  Tolerance :   1.0000e-05

             **** THE GBW FILE WAS UPDATED (15_H2CO.gbw) ****
             **** DENSITY FILE WAS UPDATED (15_H2CO.scfp) ****
             **** ENERGY FILE WAS UPDATED (15_H2CO.en.tmp) ****
             **** THE GBW FILE WAS UPDATED (15_H2CO.gbw) ****
             **** DENSITY FILE WAS UPDATED (15_H2CO.scfp) ****
----------------
ORBITAL ENERGIES
----------------

  NO   OCC          E(Eh)            E(eV) 
   0   2.0000     -18.996947      -516.9332 
   1   2.0000     -10.125586      -275.5312 
   2   2.0000      -1.035942       -28.1894 
   3   2.0000      -0.607975       -16.5438 
   4   2.0000      -0.466672       -12.6988 
   5   2.0000      -0.419718       -11.4211 
   6   2.0000      -0.381759       -10.3882 
   7   2.0000      -0.236831        -6.4445 
   8   0.0000      -0.088012        -2.3949 
   9   0.0000       0.009258         0.2519 
  10   0.0000       0.036137         0.9833 
  11   0.0000       0.049552         1.3484 
  12   0.0000       0.062817         1.7093 
  13   0.0000       0.086978         2.3668 
  14   0.0000       0.105414         2.8684 
  15   0.0000       0.132368         3.6019 
  16   0.0000       0.145842         3.9686 
  17   0.0000       0.162724         4.4279 
  18   0.0000       0.169687         4.6174 
  19   0.0000       0.191132         5.2010 
  20   0.0000       0.199391         5.4257 
  21   0.0000       0.227676         6.1954 
  22   0.0000       0.266501         7.2519 
  23   0.0000       0.297821         8.1041 
  24   0.0000       0.301053         8.1921 
  25   0.0000       0.303845         8.2680 
  26   0.0000       0.355609         9.6766 
  27   0.0000       0.357093         9.7170 
  28   0.0000       0.366713         9.9788 
  29   0.0000       0.392872        10.6906 
  30   0.0000       0.416300        11.3281 
  31   0.0000       0.422101        11.4859 
  32   0.0000       0.457487        12.4489 
  33   0.0000       0.475065        12.9272 
  34   0.0000       0.541670        14.7396 
  35   0.0000       0.579665        15.7735 
  36   0.0000       0.595159        16.1951 
  37   0.0000       0.685085        18.6421 
  38   0.0000       0.692005        18.8304 
  39   0.0000       0.702232        19.1087 
  40   0.0000       0.736257        20.0346 
  41   0.0000       0.753010        20.4904 
  42   0.0000       0.758832        20.6489 
  43   0.0000       0.775805        21.1107 
  44   0.0000       0.817049        22.2330 
  45   0.0000       0.847543        23.0628 
  46   0.0000       0.869434        23.6585 
  47   0.0000       0.888541        24.1784 
  48   0.0000       0.907812        24.7028 
  49   0.0000       0.917686        24.9715 
  50   0.0000       0.926109        25.2007 
  51   0.0000       0.939955        25.5775 
  52   0.0000       0.990184        26.9443 
  53   0.0000       1.004702        27.3393 
  54   0.0000       1.013343        27.5745 
  55   0.0000       1.041003        28.3271 
  56   0.0000       1.143204        31.1082 
  57   0.0000       1.155512        31.4431 
  58   0.0000       1.221204        33.2306 
  59   0.0000       1.243407        33.8348 
  60   0.0000       1.276515        34.7357 
  61   0.0000       1.319156        35.8961 
  62   0.0000       1.378685        37.5159 
  63   0.0000       1.422700        38.7136 
  64   0.0000       1.428075        38.8599 
  65   0.0000       1.443333        39.2751 
  66   0.0000       1.521679        41.4070 
  67   0.0000       1.572304        42.7846 
  68   0.0000       1.579717        42.9863 
  69   0.0000       1.665672        45.3252 
  70   0.0000       1.831630        49.8412 
  71   0.0000       1.877819        51.0980 
  72   0.0000       1.907556        51.9072 
  73   0.0000       1.946970        52.9798 
  74   0.0000       2.068864        56.2966 
  75   0.0000       2.101008        57.1713 
  76   0.0000       2.103739        57.2456 
  77   0.0000       2.113288        57.5055 
  78   0.0000       2.184504        59.4434 
  79   0.0000       2.276761        61.9538 
  80   0.0000       2.294608        62.4395 
  81   0.0000       2.376987        64.6811 
  82   0.0000       2.406928        65.4958 
  83   0.0000       2.494179        67.8701 
  84   0.0000       2.596196        70.6461 
  85   0.0000       2.630759        71.5866 
  86   0.0000       2.690388        73.2092 
  87   0.0000       2.757691        75.0406 
  88   0.0000       2.833191        77.0950 
  89   0.0000       2.849138        77.5290 
  90   0.0000       2.895272        78.7844 
  91   0.0000       2.913012        79.2671 
  92   0.0000       3.168298        86.2138 
  93   0.0000       3.196599        86.9839 
  94   0.0000       3.307625        90.0050 
  95   0.0000       3.311337        90.1061 
  96   0.0000       3.415453        92.9392 
  97   0.0000       3.416164        92.9585 
  98   0.0000       3.453321        93.9696 
  99   0.0000       3.654391        99.4410 
 100   0.0000       3.691558       100.4524 
 101   0.0000       3.752306       102.1054 
 102   0.0000       3.891873       105.9032 
 103   0.0000       3.911871       106.4474 
 104   0.0000       3.975497       108.1788 
 105   0.0000       3.982261       108.3628 
 106   0.0000       3.989642       108.5637 
 107   0.0000       4.147428       112.8573 
 108   0.0000       4.337546       118.0306 
 109   0.0000       4.448115       121.0394 
 110   0.0000       4.510373       122.7335 
 111   0.0000       4.541946       123.5926 
 112   0.0000       4.726042       128.6021 
 113   0.0000       4.773524       129.8942 
 114   0.0000       4.898133       133.2850 
 115   0.0000       4.945103       134.5631 
 116   0.0000       5.026249       136.7712 
 117   0.0000       5.042766       137.2206 
 118   0.0000       5.106593       138.9575 
 119   0.0000       5.143887       139.9723 
 120   0.0000       5.645687       153.6269 
 121   0.0000       5.909857       160.8154 
 122   0.0000       5.926449       161.2669 
 123   0.0000       6.269459       170.6006 
 124   0.0000       6.318343       171.9309 
 125   0.0000       6.359797       173.0589 
 126   0.0000       6.637798       180.6237 
 127   0.0000       6.673329       181.5905 
 128   0.0000       6.775938       184.3826 
 129   0.0000       6.819777       185.5756 
 130   0.0000       6.821394       185.6196 
 131   0.0000       7.094901       193.0621 
 132   0.0000       7.132777       194.0927 
 133   0.0000       7.309031       198.8889 
 134   0.0000       7.341234       199.7651 
 135   0.0000       7.445071       202.5907 
 136   0.0000      14.403249       391.9323 
 137   0.0000      15.581890       424.0048 

                    ********************************
                    * MULLIKEN POPULATION ANALYSIS *
                    ********************************

-----------------------
MULLIKEN ATOMIC CHARGES
-----------------------
   0 C :   -0.329657
   1 O :   -0.423743
   2 H :    0.371873
   3 H :    0.381527
Sum of atomic charges:    0.0000000

--------------------------------
MULLIKEN REDUCED ORBITAL CHARGES
--------------------------------
  0 C s       :     3.575101  s :     3.575101
      pz      :     0.664276  p :     2.516069
      px      :     0.769358
      py      :     1.082435
      dz2     :     0.009671  d :     0.207825
      dxz     :     0.028100
      dyz     :     0.002064
      dx2y2   :     0.014531
      dxy     :     0.153459
      f0      :     0.000818  f :     0.030663
      f+1     :     0.000869
      f-1     :     0.000017
      f+2     :     0.004723
      f-2     :     0.000531
      f+3     :     0.008902
      f-3     :     0.014803
  1 O s       :     3.924958  s :     3.924958
      pz      :     1.324641  p :     4.450703
      px      :     1.343707
      py      :     1.782355
      dz2     :     0.002081  d :     0.043899
      dxz     :     0.018698
      dyz     :     0.000398
      dx2y2   :     0.006507
      dxy     :     0.016215
      f0      :     0.000683  f :     0.004183
      f+1     :    -0.000130
      f-1     :     0.000063
      f+2     :     0.001413
      f-2     :     0.000109
      f+3     :     0.000385
      f-3     :     0.001658
  2 H s       :     0.604793  s :     0.604793
      pz      :     0.008592  p :     0.021802
      px      :     0.003226
      py      :     0.009983
      dz2     :    -0.001543  d :     0.001532
      dxz     :     0.001133
      dyz     :     0.001117
      dx2y2   :     0.002320
      dxy     :    -0.001496
  3 H s       :     0.596028  s :     0.596028
      pz      :     0.008374  p :     0.019769
      px      :    -0.002291
      py      :     0.013686
      dz2     :    -0.000866  d :     0.002675
      dxz     :     0.001319
      dyz     :     0.000517
      dx2y2   :     0.002050
      dxy     :    -0.000345


                     *******************************
                     * LOEWDIN POPULATION ANALYSIS *
                     *******************************

----------------------
LOEWDIN ATOMIC CHARGES
----------------------
   0 C :    0.046424
   1 O :    0.419392
   2 H :   -0.232539
   3 H :   -0.233276

-------------------------------
LOEWDIN REDUCED ORBITAL CHARGES
-------------------------------
  0 C s       :     2.608944  s :     2.608944
      pz      :     0.517593  p :     2.243439
      px      :     0.874724
      py      :     0.851122
      dz2     :     0.062023  d :     0.790490
      dxz     :     0.115649
      dyz     :     0.007326
      dx2y2   :     0.203509
      dxy     :     0.401983
      f0      :     0.023631  f :     0.310704
      f+1     :     0.037496
      f-1     :     0.007783
      f+2     :     0.047032
      f-2     :     0.005883
      f+3     :     0.083028
      f-3     :     0.105850
  1 O s       :     3.255688  s :     3.255688
      pz      :     1.121641  p :     4.025354
      px      :     1.447130
      py      :     1.456582
      dz2     :     0.026211  d :     0.223812
      dxz     :     0.032501
      dyz     :     0.000781
      dx2y2   :     0.062985
      dxy     :     0.101334
      f0      :     0.005412  f :     0.075755
      f+1     :     0.010131
      f-1     :     0.001972
      f+2     :     0.009857
      f-2     :     0.000859
      f+3     :     0.017721
      f-3     :     0.029804
  2 H s       :     0.733932  s :     0.733932
      pz      :     0.056796  p :     0.300121
      px      :     0.083132
      py      :     0.160192
      dz2     :     0.024517  d :     0.198486
      dxz     :     0.019527
      dyz     :     0.035480
      dx2y2   :     0.065149
      dxy     :     0.053812
  3 H s       :     0.734267  s :     0.734267
      pz      :     0.059331  p :     0.300276
      px      :     0.102572
      py      :     0.138374
      dz2     :     0.026289  d :     0.198733
      dxz     :     0.031868
      dyz     :     0.024059
      dx2y2   :     0.073580
      dxy     :     0.042937


                      *****************************
                      * MAYER POPULATION ANALYSIS *
                      *****************************

  NA   - Mulliken gross atomic population
  ZA   - Total nuclear charge
  QA   - Mulliken gross atomic charge
  VA   - Mayer's total valence
  BVA  - Mayer's bonded valence
  FA   - Mayer's free valence

  ATOM       NA         ZA         QA         VA         BVA        FA
  0 C      6.3297     6.0000    -0.3297     3.4668     3.4668    -0.0000
  1 O      8.4237     8.0000    -0.4237     1.9961     1.9961     0.0000
  2 H      0.6281     1.0000     0.3719     0.8344     0.8344     0.0000
  3 H      0.6185     1.0000     0.3815     0.8122     0.8122     0.0000

  Mayer bond orders larger than 0.100000
B(  0-C ,  1-O ) :   1.9607 B(  0-C ,  2-H ) :   0.7637 B(  0-C ,  3-H ) :   0.7424 


-------
TIMINGS
-------

Total SCF time: 0 days 0 hours 0 min 1 sec 

Total time                  ....       1.895 sec
Sum of individual times     ....       1.781 sec  ( 93.9%)

Fock matrix formation       ....       1.520 sec  ( 80.2%)
  Split-RI-J                ....       1.120 sec  ( 73.7% of F)
  XC integration            ....       0.322 sec  ( 21.2% of F)
    Basis function eval.    ....       0.017 sec  (  5.2% of XC)
    Density eval.           ....       0.029 sec  (  9.1% of XC)
    XC-Functional eval.     ....       0.006 sec  (  2.0% of XC)
    XC-Potential eval.      ....       0.074 sec  ( 23.0% of XC)
Diagonalization             ....       0.022 sec  (  1.2%)
Density matrix formation    ....       0.005 sec  (  0.2%)
Population analysis         ....       0.004 sec  (  0.2%)
Initial guess               ....       0.117 sec  (  6.2%)
Orbital Transformation      ....       0.000 sec  (  0.0%)
Orbital Orthonormalization  ....       0.000 sec  (  0.0%)
DIIS solution               ....       0.009 sec  (  0.5%)
SOSCF solution              ....       0.008 sec  (  0.4%)
Grid generation             ....       0.096 sec  (  5.1%)


-------------------------------------------------------------------------------
                          DFT DISPERSION CORRECTION                            
                                                                               
                              DFTD3 V3.1  Rev 1                                
                          USING Becke-Johnson damping                          
-------------------------------------------------------------------------------
The SCAN functional is recognized
Active option DFTDOPT                   ...         4   

molecular C6(AA) [au] = 146.467025 


            DFT-D V3
 parameters
 s6 scaling factor         :     1.0000 
 a1 scaling factor         :     0.5380 
 s8 scaling factor         :     0.0000 
 a2 scaling factor         :     5.4200 
 ad hoc parameters k1-k3   :    16.0000     1.3333    -4.0000 

 Edisp/kcal,au: -0.145814268820  -0.000232369804 
 E6   /kcal   :  -0.145814269 
 E8   /kcal   :  -0.000000000 
 % E8         :   0.000000000 

-------------------------   ----------------
Dispersion correction           -0.000232370
-------------------------   ----------------


-------------------------   --------------------
FINAL SINGLE POINT ENERGY      -114.496968884651
-------------------------   --------------------



           ************************************************************
           *        Program running with 24 parallel MPI-processes    *
           *              working on a common directory               *
           ************************************************************
------------------------------------------------------------------------------
                         ORCA SCF GRADIENT CALCULATION
------------------------------------------------------------------------------

Gradient of the Kohn-Sham DFT energy:
Kohn-Sham wavefunction type      ... RKS
Hartree-Fock exchange scaling    ...    0.000
Number of operators              ...    1
Number of atoms                  ...    4
Basis set dimensions             ...  138
Integral neglect threshold       ... 2.5e-11
Integral primitive cutoff        ... 2.5e-12

Nuclear repulsion gradient       ... done
One Electron Gradient            ... done
Pre-screening matrix             ... done
RI-J gradient                    ... done
Exchange-correlation gradient    ... done
Dispersion correction            ... done

------------------
CARTESIAN GRADIENT
------------------

   1   C   :   -0.013903618    0.001729949    0.000160567
   2   O   :    0.069033230   -0.009183452   -0.004211336
   3   H   :    0.000390089   -0.000041686   -0.000214452
   4   H   :    0.000453424   -0.000290819   -0.000114111

Difference to translation invariance:
           :    0.0559731246   -0.0077860078   -0.0043793320

Norm of the cartesian gradient     ...    0.0711652311
RMS gradient                       ...    0.0205436327
MAX gradient                       ...    0.0690332296

-------
TIMINGS
-------

Total SCF gradient time            ...        0.449 sec

One electron gradient       ....       0.021 sec  (  4.8%)
Prescreening matrices       ....       0.022 sec  (  4.9%)
RI-J Coulomb gradient       ....       0.091 sec  ( 20.3%)
XC gradient                 ....       0.129 sec  ( 28.6%)
------------------------------------------------------------------------------
                         ORCA GEOMETRY RELAXATION STEP
------------------------------------------------------------------------------

Reading the OPT-File                    .... done
Getting information on internals        .... done
Copying old internal coords+grads       .... done
Making the new internal coordinates     .... (new redundants).... done
Validating the new internal coordinates .... (new redundants).... done
Calculating the B-matrix                .... done
Calculating the G,G- and P matrices     .... done
Transforming gradient to internals      .... done
Projecting the internal gradient        .... done
Number of atoms                         ....   4
Number of internal coordinates          ....   7
Current Energy                          ....  -114.496968885 Eh
Current gradient norm                   ....     0.071165231 Eh/bohr
Maximum allowed component of the step   ....  0.300
Current trust radius                    ....  0.300
Evaluating the initial hessian          ....  (Almloef) done
Projecting the Hessian                  .... done
Forming the augmented Hessian           .... done
Diagonalizing the augmented Hessian     .... done
Last element of RFO vector              ....  0.996434757
Lowest eigenvalues of augmented Hessian:
 -0.004289398  0.113867262  0.319101956  0.337455330  0.337789193
Length of the computed step             ....  0.084668775
The final length of the internal step   ....  0.084668775
Converting the step to cartesian space:
 Initial RMS(Int)=    0.0320017888
Transforming coordinates:
 Iter   0:  RMS(Cart)=    0.0257083083 RMS(Int)=    0.0320495826
 Iter   1:  RMS(Cart)=    0.0003485756 RMS(Int)=    0.0004344516
 Iter   2:  RMS(Cart)=    0.0000054849 RMS(Int)=    0.0000091567
 Iter   3:  RMS(Cart)=    0.0000002163 RMS(Int)=    0.0000002748
 Iter   4:  RMS(Cart)=    0.0000000044 RMS(Int)=    0.0000000072
done
Storing new coordinates                 .... done

                                .--------------------.
          ----------------------|Geometry convergence|-------------------------
          Item                value                   Tolerance       Converged
          ---------------------------------------------------------------------
          RMS gradient        0.0226520457            0.0001000000      NO
          MAX gradient        0.0555997934            0.0003000000      NO
          RMS step            0.0320017888            0.0020000000      NO
          MAX step            0.0502264730            0.0040000000      NO
          ........................................................
          Max(Bonds)      0.0262      Max(Angles)    2.88
          Max(Dihed)        0.00      Max(Improp)    0.18
          ---------------------------------------------------------------------

The optimization has not yet converged - more geometry cycles are needed


    ---------------------------------------------------------------------------
                         Redundant Internal Coordinates
                            (Angstroem and degrees)

        Definition                    Value    dE/dq     Step     New-Value
    ----------------------------------------------------------------------------
     1. B(O   1,C   0)                1.2016  0.055600 -0.0262    1.1754   
     2. B(H   2,C   0)                1.1077  0.007318 -0.0113    1.0963   
     3. B(H   3,C   0)                1.1077  0.007345 -0.0114    1.0963   
     4. A(O   1,C   0,H   3)          121.76  0.008049   -1.43    120.33   
     5. A(H   2,C   0,H   3)          116.47 -0.016183    2.88    119.35   
     6. A(O   1,C   0,H   2)          121.77  0.008134   -1.45    120.32   
     7. I(O   1,H   3,H   2,C   0)      0.00 -0.000374    0.18      0.18   
    ----------------------------------------------------------------------------

         *************************************************************
         *                GEOMETRY OPTIMIZATION CYCLE   2            *
         *************************************************************
---------------------------------
CARTESIAN COORDINATES (ANGSTROEM)
---------------------------------
  C     -0.016812    0.002404    0.001952
  O      1.145887   -0.152736   -0.072873
  H     -0.457107    0.988083   -0.189237
  H     -0.671976   -0.837819    0.260166

----------------------------
CARTESIAN COORDINATES (A.U.)
----------------------------
  NO LB      ZA    FRAG     MASS         X           Y           Z
   0 C     6.0000    0    12.011   -0.031769    0.004544    0.003690
   1 O     8.0000    0    15.999    2.165413   -0.288629   -0.137711
   2 H     1.0000    0     1.008   -0.863808    1.867207   -0.357606
   3 H     1.0000    0     1.008   -1.269851   -1.583249    0.491642

--------------------------------
INTERNAL COORDINATES (ANGSTROEM)
--------------------------------
 C      0   0   0     0.000000000000     0.00000000     0.00000000
 O      1   0   0     1.175387182619     0.00000000     0.00000000
 H      1   2   0     1.096346972010   120.32025588     0.00000000
 H      1   2   3     1.096307582108   120.33093911   179.78625711

---------------------------
INTERNAL COORDINATES (A.U.)
---------------------------
 C      0   0   0     0.000000000000     0.00000000     0.00000000
 O      1   0   0     2.221159876471     0.00000000     0.00000000
 H      1   2   0     2.071795524854   120.32025588     0.00000000
 H      1   2   3     2.071721088725   120.33093911   179.78625711



           ************************************************************
           *        Program running with 24 parallel MPI-processes    *
           *              working on a common directory               *
           ************************************************************
 One Electron integrals                  ... done
 Pre-screening matrix                    ... done


           ************************************************************
           *        Program running with 24 parallel MPI-processes    *
           *              working on a common directory               *
           ************************************************************

Diagonalization of the overlap matrix:
Smallest eigenvalue                        ... 8.322e-05
Time for diagonalization                   ...    0.005 sec
Threshold for overlap eigenvalues          ... 1.000e-08
Number of eigenvalues below threshold      ... 0
Time for construction of square roots      ...    0.002 sec
Total time needed                          ...    0.007 sec

-------------------
DFT GRID GENERATION
-------------------

General Integration Accuracy     IntAcc      ...  4.340
Radial Grid Type                 RadialGrid  ... Gauss-Chebyshev
Angular Grid (max. acc.)         AngularGrid ... Lebedev-110
Angular grid pruning method      GridPruning ... 3 (G Style)
Weight generation scheme         WeightScheme... Becke
Basis function cutoff            BFCut       ...    1.0000e-11
Integration weight cutoff        WCut        ...    1.0000e-14
Grids for H and He will be reduced by one unit

# of grid points (after initial pruning)     ...   4960 (   0.0 sec)
# of grid points (after weights+screening)   ...   4895 (   0.0 sec)
nearest neighbour list constructed           ...    0.0 sec
Grid point re-assignment to atoms done       ...    0.0 sec
Grid point division into batches done        ...    0.0 sec
Reduced shell lists constructed in    0.0 sec

Total number of grid points                  ...     4895
Total number of batches                      ...       79
Average number of points per batch           ...       61
Average number of grid points per atom       ...     1224
Average number of shells per batch           ...    36.80 (80.00%)
Average number of basis functions per batch  ...   110.40 (80.00%)
Average number of large shells per batch     ...    36.80 (100.00%)
Average number of large basis fcns per batch ...   110.40 (100.00%)
Maximum spatial batch extension              ...   2.81,  4.17,  8.97 au
Average spatial batch extension              ...   0.12,  0.13,  0.24 au

Time for grid setup =    0.013 sec

--------------
SCF ITERATIONS
--------------
ITER       Energy         Delta-E        Max-DP      RMS-DP      [F,P]     Damp
               ***  Starting incremental Fock matrix formation  ***
  0   -114.4989862224   0.000000000000 0.00394860  0.00011302  0.0153180 0.7000
                      *** Initiating the SOSCF procedure ***
                      *** Re-Reading the Fockian *** 
                      *** Removing any level shift *** 
ITER      Energy       Delta-E        Grad      Rot      Max-DP    RMS-DP
  1   -114.49915283  -0.0001666092  0.000649  0.000649  0.010533  0.000303
               *** Restarting incremental Fock matrix formation ***
  2   -114.49947718  -0.0003243505  0.001090  0.002668  0.002354  0.000072
  3   -114.49946848   0.0000087061  0.001462  0.001798  0.001391  0.000049
  4   -114.49950074  -0.0000322648  0.000904  0.002127  0.001084  0.000028
  5   -114.49949259   0.0000081515  0.001387  0.001290  0.000821  0.000019
  6   -114.49950389  -0.0000113048  0.000020  0.000015  0.000031  0.000001
  7   -114.49950389  -0.0000000008  0.000007  0.000004  0.000008  0.000000
                 **** Energy Check signals convergence ****
              ***Rediagonalizing the Fockian in SOSCF/NRSCF***

               *****************************************************
               *                     SUCCESS                       *
               *           SCF CONVERGED AFTER   8 CYCLES          *
               *****************************************************

Setting up the final grid:

General Integration Accuracy     IntAcc      ...  4.670
Radial Grid Type                 RadialGrid  ... Gauss-Chebyshev
Angular Grid (max. acc.)         AngularGrid ... Lebedev-302
Angular grid pruning method      GridPruning ... 3 (G Style)
Weight generation scheme         WeightScheme... Becke
Basis function cutoff            BFCut       ...    1.0000e-11
Integration weight cutoff        WCut        ...    1.0000e-14
Grids for H and He will be reduced by one unit

# of grid points (after initial pruning)     ...  19212 (   0.0 sec)
# of grid points (after weights+screening)   ...  18897 (   0.0 sec)
nearest neighbour list constructed           ...    0.0 sec
Grid point re-assignment to atoms done       ...    0.0 sec
Grid point division into batches done        ...    0.1 sec
Reduced shell lists constructed in    0.1 sec

Total number of grid points                  ...    18897
Total number of batches                      ...      297
Average number of points per batch           ...       63
Average number of grid points per atom       ...     4724
Average number of shells per batch           ...    42.29 (91.93%)
Average number of basis functions per batch  ...   126.86 (91.93%)
Average number of large shells per batch     ...    40.50 (95.78%)
Average number of large basis fcns per batch ...   121.21 (95.55%)
Maximum spatial batch extension              ...   3.66,  5.24, 13.92 au
Average spatial batch extension              ...   0.09,  0.10,  0.14 au

Final grid set up in    0.1 sec
Final integration                            ... done (   0.0 sec)
Change in XC energy                          ...     0.004360705
Integrated number of electrons               ...    15.999975160
Previous integrated no of electrons          ...    15.999874478
Total Energy       :         -114.49514319 Eh           -3115.57124 eV
  Last Energy change         ...   -3.5974e-09  Tolerance :   1.0000e-08
  Last MAX-Density change    ...    3.0817e-06  Tolerance :   1.0000e-07
             **** THE GBW FILE WAS UPDATED (15_H2CO.gbw) ****
             **** DENSITY FILE WAS UPDATED (15_H2CO.scfp) ****
             **** ENERGY FILE WAS UPDATED (15_H2CO.en.tmp) ****
             **** THE GBW FILE WAS UPDATED (15_H2CO.gbw) ****
             **** DENSITY FILE WAS UPDATED (15_H2CO.scfp) ****
Total SCF time: 0 days 0 hours 0 min 1 sec 


-------------------------------------------------------------------------------
                          DFT DISPERSION CORRECTION                            
                                                                               
                              DFTD3 V3.1  Rev 1                                
                          USING Becke-Johnson damping                          
-------------------------------------------------------------------------------
-------------------------   ----------------
Dispersion correction           -0.000232448
-------------------------   ----------------


-------------------------   --------------------
FINAL SINGLE POINT ENERGY      -114.495375641672
-------------------------   --------------------



           ************************************************************
           *        Program running with 24 parallel MPI-processes    *
           *              working on a common directory               *
           ************************************************************
------------------------------------------------------------------------------
                         ORCA SCF GRADIENT CALCULATION
------------------------------------------------------------------------------

Gradient of the Kohn-Sham DFT energy:
Kohn-Sham wavefunction type      ... RKS
Hartree-Fock exchange scaling    ...    0.000
Number of operators              ...    1
Number of atoms                  ...    4
Basis set dimensions             ...  138
Integral neglect threshold       ... 2.5e-11
Integral primitive cutoff        ... 2.5e-12

Nuclear repulsion gradient       ... done
One Electron Gradient            ... done
Pre-screening matrix             ... done
RI-J gradient                    ... done
Exchange-correlation gradient    ... done
Dispersion correction            ... done

------------------
CARTESIAN GRADIENT
------------------

   1   C   :    0.015907369   -0.002055663   -0.001072467
   2   O   :    0.009600104   -0.001402578   -0.000510056
   3   H   :    0.009121965   -0.005286383    0.000083206
   4   H   :    0.010029320    0.002430099   -0.001784557

Difference to translation invariance:
           :    0.0446587588   -0.0063145245   -0.0032838750

Norm of the cartesian gradient     ...    0.0239509918
RMS gradient                       ...    0.0069140558
MAX gradient                       ...    0.0159073687

-------
TIMINGS
-------

Total SCF gradient time            ...        0.441 sec

One electron gradient       ....       0.003 sec  (  0.7%)
Prescreening matrices       ....       0.023 sec  (  5.2%)
RI-J Coulomb gradient       ....       0.091 sec  ( 20.6%)
XC gradient                 ....       0.122 sec  ( 27.7%)
------------------------------------------------------------------------------
                         ORCA GEOMETRY RELAXATION STEP
------------------------------------------------------------------------------

Reading the OPT-File                    .... done
Getting information on internals        .... done
Copying old internal coords+grads       .... done
Making the new internal coordinates     .... (new redundants).... done
Validating the new internal coordinates .... (new redundants).... done
Calculating the B-matrix                .... done
Calculating the G,G- and P matrices     .... done
Transforming gradient to internals      .... done
Projecting the internal gradient        .... done
Number of atoms                         ....   4
Number of internal coordinates          ....   7
Current Energy                          ....  -114.495375642 Eh
Current gradient norm                   ....     0.023950992 Eh/bohr
Maximum allowed component of the step   ....  0.300
Current trust radius                    ....  0.300
Updating the Hessian (BFGS)             .... done
Forming the augmented Hessian           .... done
Diagonalizing the augmented Hessian     .... done
Last element of RFO vector              ....  0.999727804
Lowest eigenvalues of augmented Hessian:
 -0.000158382  0.113879361  0.272139302  0.337455166  0.356795537
Length of the computed step             ....  0.023336955
The final length of the internal step   ....  0.023336955
Converting the step to cartesian space:
 Initial RMS(Int)=    0.0088205399
Transforming coordinates:
 Iter   0:  RMS(Cart)=    0.0070866101 RMS(Int)=    0.0088134105
 Iter   1:  RMS(Cart)=    0.0000298213 RMS(Int)=    0.0000488516
 Iter   2:  RMS(Cart)=    0.0000002744 RMS(Int)=    0.0000003405
 Iter   3:  RMS(Cart)=    0.0000000020 RMS(Int)=    0.0000000032
done
Storing new coordinates                 .... done

                                .--------------------.
          ----------------------|Geometry convergence|-------------------------
          Item                value                   Tolerance       Converged
          ---------------------------------------------------------------------
          Energy change       0.0015932430            0.0000050000      NO
          RMS gradient        0.0026573027            0.0001000000      NO
          MAX gradient        0.0046821692            0.0003000000      NO
          RMS step            0.0088205399            0.0020000000      NO
          MAX step            0.0170232607            0.0040000000      NO
          ........................................................
          Max(Bonds)      0.0040      Max(Angles)    0.98
          Max(Dihed)        0.00      Max(Improp)    0.03
          ---------------------------------------------------------------------

The optimization has not yet converged - more geometry cycles are needed


    ---------------------------------------------------------------------------
                         Redundant Internal Coordinates
                            (Angstroem and degrees)

        Definition                    Value    dE/dq     Step     New-Value
    ----------------------------------------------------------------------------
     1. B(O   1,C   0)                1.1754 -0.001591 -0.0001    1.1753   
     2. B(H   2,C   0)                1.0963 -0.002671  0.0040    1.1003   
     3. B(H   3,C   0)                1.0963 -0.002621  0.0039    1.1002   
     4. A(O   1,C   0,H   3)          120.33  0.002273   -0.48    119.85   
     5. A(H   2,C   0,H   3)          119.35 -0.004682    0.98    120.32   
     6. A(O   1,C   0,H   2)          120.32  0.002409   -0.50    119.82   
     7. I(O   1,H   3,H   2,C   0)      0.18  0.000066   -0.03      0.15   
    ----------------------------------------------------------------------------

         *************************************************************
         *                GEOMETRY OPTIMIZATION CYCLE   3            *
         *************************************************************
---------------------------------
CARTESIAN COORDINATES (ANGSTROEM)
---------------------------------
  C     -0.019831    0.002701    0.002018
  O      1.142771   -0.152241   -0.072649
  H     -0.453081    0.995472   -0.191302
  H     -0.669868   -0.845999    0.261940

----------------------------
CARTESIAN COORDINATES (A.U.)
----------------------------
  NO LB      ZA    FRAG     MASS         X           Y           Z
   0 C     6.0000    0    12.011   -0.037474    0.005105    0.003813
   1 O     8.0000    0    15.999    2.159523   -0.287694   -0.137286
   2 H     1.0000    0     1.008   -0.856198    1.881169   -0.361508
   3 H     1.0000    0     1.008   -1.265866   -1.598706    0.494996

--------------------------------
INTERNAL COORDINATES (ANGSTROEM)
--------------------------------
 C      0   0   0     0.000000000000     0.00000000     0.00000000
 O      1   0   0     1.175254812599     0.00000000     0.00000000
 H      1   2   0     1.100304889099   119.82189442     0.00000000
 H      1   2   3     1.100181775723   119.85399996   179.82302557

---------------------------
INTERNAL COORDINATES (A.U.)
---------------------------
 C      0   0   0     0.000000000000     0.00000000     0.00000000
 O      1   0   0     2.220909733386     0.00000000     0.00000000
 H      1   2   0     2.079274904211   119.82189442     0.00000000
 H      1   2   3     2.079042253648   119.85399996   179.82302557



           ************************************************************
           *        Program running with 24 parallel MPI-processes    *
           *              working on a common directory               *
           ************************************************************
 One Electron integrals                  ... done
 Pre-screening matrix                    ... done


           ************************************************************
           *        Program running with 24 parallel MPI-processes    *
           *              working on a common directory               *
           ************************************************************

Diagonalization of the overlap matrix:
Smallest eigenvalue                        ... 8.566e-05
Time for diagonalization                   ...    0.005 sec
Threshold for overlap eigenvalues          ... 1.000e-08
Number of eigenvalues below threshold      ... 0
Time for construction of square roots      ...    0.002 sec
Total time needed                          ...    0.008 sec

-------------------
DFT GRID GENERATION
-------------------

General Integration Accuracy     IntAcc      ...  4.340
Radial Grid Type                 RadialGrid  ... Gauss-Chebyshev
Angular Grid (max. acc.)         AngularGrid ... Lebedev-110
Angular grid pruning method      GridPruning ... 3 (G Style)
Weight generation scheme         WeightScheme... Becke
Basis function cutoff            BFCut       ...    1.0000e-11
Integration weight cutoff        WCut        ...    1.0000e-14
Grids for H and He will be reduced by one unit

# of grid points (after initial pruning)     ...   4960 (   0.0 sec)
# of grid points (after weights+screening)   ...   4895 (   0.0 sec)
nearest neighbour list constructed           ...    0.0 sec
Grid point re-assignment to atoms done       ...    0.0 sec
Grid point division into batches done        ...    0.0 sec
Reduced shell lists constructed in    0.0 sec

Total number of grid points                  ...     4895
Total number of batches                      ...       80
Average number of points per batch           ...       61
Average number of grid points per atom       ...     1224
Average number of shells per batch           ...    36.80 (80.00%)
Average number of basis functions per batch  ...   110.40 (80.00%)
Average number of large shells per batch     ...    36.80 (100.00%)
Average number of large basis fcns per batch ...   110.40 (100.00%)
Maximum spatial batch extension              ...   2.92,  4.17,  8.96 au
Average spatial batch extension              ...   0.12,  0.14,  0.25 au

Time for grid setup =    0.013 sec

--------------
SCF ITERATIONS
--------------
ITER       Energy         Delta-E        Max-DP      RMS-DP      [F,P]     Damp
               ***  Starting incremental Fock matrix formation  ***
                      *** Initiating the SOSCF procedure ***
                      *** Re-Reading the Fockian *** 
                      *** Removing any level shift *** 
ITER      Energy       Delta-E        Grad      Rot      Max-DP    RMS-DP
  0   -114.49931092 -114.4993109206  0.001801  0.001801  0.002755  0.000081
               *** Restarting incremental Fock matrix formation ***
  1   -114.49932780  -0.0000168835  0.000368  0.001188  0.000616  0.000023
  2   -114.49932605   0.0000017556  0.000887  0.000880  0.000447  0.000010
  3   -114.49932897  -0.0000029196  0.000100  0.000178  0.000204  0.000007
  4   -114.49932891   0.0000000602  0.000105  0.000102  0.000126  0.000004
  5   -114.49932914  -0.0000002361  0.000003  0.000005  0.000012  0.000000
                 **** Energy Check signals convergence ****
              ***Rediagonalizing the Fockian in SOSCF/NRSCF***

               *****************************************************
               *                     SUCCESS                       *
               *           SCF CONVERGED AFTER   6 CYCLES          *
               *****************************************************

Setting up the final grid:

General Integration Accuracy     IntAcc      ...  4.670
Radial Grid Type                 RadialGrid  ... Gauss-Chebyshev
Angular Grid (max. acc.)         AngularGrid ... Lebedev-302
Angular grid pruning method      GridPruning ... 3 (G Style)
Weight generation scheme         WeightScheme... Becke
Basis function cutoff            BFCut       ...    1.0000e-11
Integration weight cutoff        WCut        ...    1.0000e-14
Grids for H and He will be reduced by one unit

# of grid points (after initial pruning)     ...  19212 (   0.0 sec)
# of grid points (after weights+screening)   ...  18895 (   0.0 sec)
nearest neighbour list constructed           ...    0.0 sec
Grid point re-assignment to atoms done       ...    0.0 sec
Grid point division into batches done        ...    0.1 sec
Reduced shell lists constructed in    0.1 sec

Total number of grid points                  ...    18895
Total number of batches                      ...      297
Average number of points per batch           ...       63
Average number of grid points per atom       ...     4724
Average number of shells per batch           ...    42.29 (91.93%)
Average number of basis functions per batch  ...   126.86 (91.93%)
Average number of large shells per batch     ...    40.50 (95.78%)
Average number of large basis fcns per batch ...   121.07 (95.44%)
Maximum spatial batch extension              ...   3.66,  5.26, 13.92 au
Average spatial batch extension              ...   0.08,  0.10,  0.14 au

Final grid set up in    0.1 sec
Final integration                            ... done (   0.1 sec)
Change in XC energy                          ...     0.004350006
Integrated number of electrons               ...    15.999974618
Previous integrated no of electrons          ...    15.999849882
Total Energy       :         -114.49497914 Eh           -3115.56677 eV
  Last Energy change         ...    9.9887e-10  Tolerance :   1.0000e-08
  Last MAX-Density change    ...    3.1995e-06  Tolerance :   1.0000e-07
             **** THE GBW FILE WAS UPDATED (15_H2CO.gbw) ****
             **** DENSITY FILE WAS UPDATED (15_H2CO.scfp) ****
             **** ENERGY FILE WAS UPDATED (15_H2CO.en.tmp) ****
             **** THE GBW FILE WAS UPDATED (15_H2CO.gbw) ****
             **** DENSITY FILE WAS UPDATED (15_H2CO.scfp) ****
Total SCF time: 0 days 0 hours 0 min 1 sec 


-------------------------------------------------------------------------------
                          DFT DISPERSION CORRECTION                            
                                                                               
                              DFTD3 V3.1  Rev 1                                
                          USING Becke-Johnson damping                          
-------------------------------------------------------------------------------
-------------------------   ----------------
Dispersion correction           -0.000232451
-------------------------   ----------------


-------------------------   --------------------
FINAL SINGLE POINT ENERGY      -114.495211587782
-------------------------   --------------------



           ************************************************************
           *        Program running with 24 parallel MPI-processes    *
           *              working on a common directory               *
           ************************************************************
------------------------------------------------------------------------------
                         ORCA SCF GRADIENT CALCULATION
------------------------------------------------------------------------------

Gradient of the Kohn-Sham DFT energy:
Kohn-Sham wavefunction type      ... RKS
Hartree-Fock exchange scaling    ...    0.000
Number of operators              ...    1
Number of atoms                  ...    4
Basis set dimensions             ...  138
Integral neglect threshold       ... 2.5e-11
Integral primitive cutoff        ... 2.5e-12

Nuclear repulsion gradient       ... done
One Electron Gradient            ... done
Pre-screening matrix             ... done
RI-J gradient                    ... done
Exchange-correlation gradient    ... done
Dispersion correction            ... done

------------------
CARTESIAN GRADIENT
------------------

   1   C   :    0.015909441   -0.002173796   -0.001130147
   2   O   :    0.008604204   -0.001169334   -0.000439637
   3   H   :    0.009554409   -0.002434074   -0.000603952
   4   H   :    0.009829008   -0.000398081   -0.001078357

Difference to translation invariance:
           :    0.0438970624   -0.0061752849   -0.0032520931

Norm of the cartesian gradient     ...    0.0230263506
RMS gradient                       ...    0.0066471349
MAX gradient                       ...    0.0159094414

-------
TIMINGS
-------

Total SCF gradient time            ...        0.440 sec

One electron gradient       ....       0.017 sec  (  3.8%)
Prescreening matrices       ....       0.023 sec  (  5.2%)
RI-J Coulomb gradient       ....       0.091 sec  ( 20.7%)
XC gradient                 ....       0.133 sec  ( 30.2%)
------------------------------------------------------------------------------
                         ORCA GEOMETRY RELAXATION STEP
------------------------------------------------------------------------------

Reading the OPT-File                    .... done
Getting information on internals        .... done
Copying old internal coords+grads       .... done
Making the new internal coordinates     .... (new redundants).... done
Validating the new internal coordinates .... (new redundants).... done
Calculating the B-matrix                .... done
Calculating the G,G- and P matrices     .... done
Transforming gradient to internals      .... done
Projecting the internal gradient        .... done
Number of atoms                         ....   4
Number of internal coordinates          ....   7
Current Energy                          ....  -114.495211588 Eh
Current gradient norm                   ....     0.023026351 Eh/bohr
Maximum allowed component of the step   ....  0.300
Current trust radius                    ....  0.300
Updating the Hessian (BFGS)             .... done
Forming the augmented Hessian           .... done
Diagonalizing the augmented Hessian     .... done
Last element of RFO vector              ....  0.999823201
Lowest eigenvalues of augmented Hessian:
 -0.000058232  0.113885979  0.153119895  0.337455249  0.383674712
Length of the computed step             ....  0.018806704
The final length of the internal step   ....  0.018806704
Converting the step to cartesian space:
 Initial RMS(Int)=    0.0071082658
Transforming coordinates:
 Iter   0:  RMS(Cart)=    0.0050959536 RMS(Int)=    0.0071064813
 Iter   1:  RMS(Cart)=    0.0000216459 RMS(Int)=    0.0000321609
 Iter   2:  RMS(Cart)=    0.0000001563 RMS(Int)=    0.0000002005
 Iter   3:  RMS(Cart)=    0.0000000012 RMS(Int)=    0.0000000018
done
Storing new coordinates                 .... done

                                .--------------------.
          ----------------------|Geometry convergence|-------------------------
          Item                value                   Tolerance       Converged
          ---------------------------------------------------------------------
          Energy change       0.0001640539            0.0000050000      NO
          RMS gradient        0.0014005351            0.0001000000      NO
          MAX gradient        0.0024174927            0.0003000000      NO
          RMS step            0.0071082658            0.0020000000      NO
          MAX step            0.0150719365            0.0040000000      NO
          ........................................................
          Max(Bonds)      0.0013      Max(Angles)    0.86
          Max(Dihed)        0.00      Max(Improp)    0.00
          ---------------------------------------------------------------------

The optimization has not yet converged - more geometry cycles are needed


    ---------------------------------------------------------------------------
                         Redundant Internal Coordinates
                            (Angstroem and degrees)

        Definition                    Value    dE/dq     Step     New-Value
    ----------------------------------------------------------------------------
     1. B(O   1,C   0)                1.1753 -0.002417  0.0013    1.1765   
     2. B(H   2,C   0)                1.1003 -0.000281  0.0010    1.1013   
     3. B(H   3,C   0)                1.1002 -0.000270  0.0010    1.1012   
     4. A(O   1,C   0,H   3)          119.85  0.001122   -0.43    119.43   
     5. A(H   2,C   0,H   3)          120.32 -0.002271    0.86    121.19   
     6. A(O   1,C   0,H   2)          119.82  0.001149   -0.44    119.39   
     7. I(O   1,H   3,H   2,C   0)      0.15  0.000006   -0.00      0.15   
    ----------------------------------------------------------------------------

         *************************************************************
         *                GEOMETRY OPTIMIZATION CYCLE   4            *
         *************************************************************
---------------------------------
CARTESIAN COORDINATES (ANGSTROEM)
---------------------------------
  C     -0.023478    0.003148    0.002228
  O      1.140403   -0.151892   -0.072499
  H     -0.449490    0.999861   -0.192662
  H     -0.667444   -0.851184    0.262941

----------------------------
CARTESIAN COORDINATES (A.U.)
----------------------------
  NO LB      ZA    FRAG     MASS         X           Y           Z
   0 C     6.0000    0    12.011   -0.044367    0.005949    0.004211
   1 O     8.0000    0    15.999    2.155050   -0.287035   -0.137004
   2 H     1.0000    0     1.008   -0.849413    1.889463   -0.364078
   3 H     1.0000    0     1.008   -1.261286   -1.608504    0.496886

--------------------------------
INTERNAL COORDINATES (ANGSTROEM)
--------------------------------
 C      0   0   0     0.000000000000     0.00000000     0.00000000
 O      1   0   0     1.176537445067     0.00000000     0.00000000
 H      1   2   0     1.101319449445   119.38522719     0.00000000
 H      1   2   3     1.101156938899   119.42714777   179.83148239

---------------------------
INTERNAL COORDINATES (A.U.)
---------------------------
 C      0   0   0     0.000000000000     0.00000000     0.00000000
 O      1   0   0     2.223333557479     0.00000000     0.00000000
 H      1   2   0     2.081192145412   119.38522719     0.00000000
 H      1   2   3     2.080885044986   119.42714777   179.83148239



           ************************************************************
           *        Program running with 24 parallel MPI-processes    *
           *              working on a common directory               *
           ************************************************************
 One Electron integrals                  ... done
 Pre-screening matrix                    ... done


           ************************************************************
           *        Program running with 24 parallel MPI-processes    *
           *              working on a common directory               *
           ************************************************************

Diagonalization of the overlap matrix:
Smallest eigenvalue                        ... 8.697e-05
Time for diagonalization                   ...    0.006 sec
Threshold for overlap eigenvalues          ... 1.000e-08
Number of eigenvalues below threshold      ... 0
Time for construction of square roots      ...    0.002 sec
Total time needed                          ...    0.008 sec

-------------------
DFT GRID GENERATION
-------------------

General Integration Accuracy     IntAcc      ...  4.340
Radial Grid Type                 RadialGrid  ... Gauss-Chebyshev
Angular Grid (max. acc.)         AngularGrid ... Lebedev-110
Angular grid pruning method      GridPruning ... 3 (G Style)
Weight generation scheme         WeightScheme... Becke
Basis function cutoff            BFCut       ...    1.0000e-11
Integration weight cutoff        WCut        ...    1.0000e-14
Grids for H and He will be reduced by one unit

# of grid points (after initial pruning)     ...   4960 (   0.0 sec)
# of grid points (after weights+screening)   ...   4895 (   0.0 sec)
nearest neighbour list constructed           ...    0.0 sec
Grid point re-assignment to atoms done       ...    0.0 sec
Grid point division into batches done        ...    0.0 sec
Reduced shell lists constructed in    0.0 sec

Total number of grid points                  ...     4895
Total number of batches                      ...       80
Average number of points per batch           ...       61
[...]
      f+3     :     0.000301
      f-3     :     0.001714
  2 H s       :     0.598933  s :     0.598933
      pz      :     0.009467  p :     0.024521
      px      :     0.006587
      py      :     0.008467
      dz2     :    -0.001550  d :     0.001356
      dxz     :     0.000870
      dyz     :     0.001232
      dx2y2   :     0.002156
      dxy     :    -0.001352
  3 H s       :     0.586451  s :     0.586451
      pz      :     0.009435  p :     0.022414
      px      :     0.000765
      py      :     0.012214
      dz2     :    -0.000828  d :     0.002707
      dxz     :     0.001129
      dyz     :     0.000703
      dx2y2   :     0.002409
      dxy     :    -0.000706


                     *******************************
                     * LOEWDIN POPULATION ANALYSIS *
                     *******************************

----------------------
LOEWDIN ATOMIC CHARGES
----------------------
   0 C :    0.035345
   1 O :    0.440213
   2 H :   -0.237379
   3 H :   -0.238179

-------------------------------
LOEWDIN REDUCED ORBITAL CHARGES
-------------------------------
  0 C s       :     2.605667  s :     2.605667
      pz      :     0.518533  p :     2.244171
      px      :     0.877723
      py      :     0.847915
      dz2     :     0.062094  d :     0.797630
      dxz     :     0.117161
      dyz     :     0.007822
      dx2y2   :     0.208891
      dxy     :     0.401662
      f0      :     0.023895  f :     0.317186
      f+1     :     0.037140
      f-1     :     0.007956
      f+2     :     0.048127
      f-2     :     0.005837
      f+3     :     0.083323
      f-3     :     0.110908
  1 O s       :     3.235060  s :     3.235060
      pz      :     1.110042  p :     4.008260
      px      :     1.456425
      py      :     1.441793
      dz2     :     0.027268  d :     0.236112
      dxz     :     0.034058
      dyz     :     0.000842
      dx2y2   :     0.063881
      dxy     :     0.110064
      f0      :     0.005688  f :     0.080356
      f+1     :     0.010726
      f-1     :     0.002158
      f+2     :     0.010407
      f-2     :     0.000920
      f+3     :     0.018573
      f-3     :     0.031883
  2 H s       :     0.734508  s :     0.734508
      pz      :     0.058348  p :     0.301588
      px      :     0.083324
      py      :     0.159916
      dz2     :     0.025025  d :     0.201282
      dxz     :     0.018622
      dyz     :     0.037716
      dx2y2   :     0.063216
      dxy     :     0.056704
  3 H s       :     0.734795  s :     0.734795
      pz      :     0.060753  p :     0.301854
      px      :     0.102468
      py      :     0.138633
      dz2     :     0.026899  d :     0.201531
      dxz     :     0.031313
      dyz     :     0.025838
      dx2y2   :     0.073242
      dxy     :     0.044238


                      *****************************
                      * MAYER POPULATION ANALYSIS *
                      *****************************

  NA   - Mulliken gross atomic population
  ZA   - Total nuclear charge
  QA   - Mulliken gross atomic charge
  VA   - Mayer's total valence
  BVA  - Mayer's bonded valence
  FA   - Mayer's free valence

  ATOM       NA         ZA         QA         VA         BVA        FA
  0 C      6.3461     6.0000    -0.3461     3.4700     3.4700     0.0000
  1 O      8.4176     8.0000    -0.4176     2.0037     2.0037    -0.0000
  2 H      0.6248     1.0000     0.3752     0.8359     0.8359     0.0000
  3 H      0.6116     1.0000     0.3884     0.8085     0.8085     0.0000

  Mayer bond orders larger than 0.100000
B(  0-C ,  1-O ) :   1.9730 B(  0-C ,  2-H ) :   0.7612 B(  0-C ,  3-H ) :   0.7358 


-------
TIMINGS
-------

Total SCF time: 0 days 0 hours 0 min 0 sec 

Total time                  ....       0.750 sec
Sum of individual times     ....       0.607 sec  ( 80.9%)

Fock matrix formation       ....       0.491 sec  ( 65.5%)
  Split-RI-J                ....       0.319 sec  ( 65.0% of F)
  XC integration            ....       0.068 sec  ( 13.8% of F)
    Basis function eval.    ....       0.006 sec  (  8.9% of XC)
    Density eval.           ....       0.010 sec  ( 15.1% of XC)
    XC-Functional eval.     ....       0.003 sec  (  3.7% of XC)
    XC-Potential eval.      ....       0.026 sec  ( 38.5% of XC)
Diagonalization             ....       0.003 sec  (  0.4%)
Density matrix formation    ....       0.002 sec  (  0.3%)
Population analysis         ....       0.004 sec  (  0.5%)
Initial guess               ....       0.010 sec  (  1.3%)
Orbital Transformation      ....       0.000 sec  (  0.0%)
Orbital Orthonormalization  ....       0.007 sec  (  0.9%)
DIIS solution               ....       0.000 sec  (  0.0%)
SOSCF solution              ....       0.004 sec  (  0.5%)
Grid generation             ....       0.092 sec  ( 12.3%)


-------------------------------------------------------------------------------
                          DFT DISPERSION CORRECTION                            
                                                                               
                              DFTD3 V3.1  Rev 1                                
                          USING Becke-Johnson damping                          
-------------------------------------------------------------------------------
The SCAN functional is recognized
Active option DFTDOPT                   ...         4   

molecular C6(AA) [au] = 146.438695 


            DFT-D V3
 parameters
 s6 scaling factor         :     1.0000 
 a1 scaling factor         :     0.5380 
 s8 scaling factor         :     0.0000 
 a2 scaling factor         :     5.4200 
 ad hoc parameters k1-k3   :    16.0000     1.3333    -4.0000 

 Edisp/kcal,au: -0.145865090082  -0.000232450792 
 E6   /kcal   :  -0.145865090 
 E8   /kcal   :  -0.000000000 
 % E8         :   0.000000000 

-------------------------   ----------------
Dispersion correction           -0.000232451
-------------------------   ----------------


-------------------------   --------------------
FINAL SINGLE POINT ENERGY      -114.495000897026
-------------------------   --------------------

                                *** OPTIMIZATION RUN DONE ***

                            ***************************************
                            *     ORCA property calculations      *
                            ***************************************

                                    ---------------------
                                    Active property flags
                                    ---------------------
   (+) Dipole Moment


------------------------------------------------------------------------------
                       ORCA ELECTRIC PROPERTIES CALCULATION
------------------------------------------------------------------------------

Dipole Moment Calculation                       ... on
Quadrupole Moment Calculation                   ... off
Polarizability Calculation                      ... off
GBWName                                         ... 15_H2CO.gbw
Electron density file                           ... 15_H2CO.scfp
The origin for moment calculation is the CENTER OF MASS  = ( 1.057336, -0.140856 -0.066694)

-------------
DIPOLE MOMENT
-------------
                                X             Y             Z
Electronic contribution:      1.19915      -0.16087      -0.07513
Nuclear contribution   :     -2.08638       0.27786       0.13141
                        -----------------------------------------
Total Dipole Moment    :     -0.88723       0.11699       0.05628
                        -----------------------------------------
Magnitude (a.u.)       :      0.89668
Magnitude (Debye)      :      2.27919



--------------------
Rotational spectrum 
--------------------
 
Rotational constants in cm-1:     9.073797     1.375170     1.194187 
Rotational constants in MHz : 272025.604251 41226.548057 35800.812202 

 Dipole components along the rotational axes: 
x,y,z [a.u.] :    -0.896682     0.001102    -0.000713 
x,y,z [Debye]:    -2.279185     0.002801    -0.001811 

 

----------------------------------------------------------------------------
                           ORCA NUMERICAL FREQUENCIES
                              (24-process run)
----------------------------------------------------------------------------

Number of atoms                ... 4
Central differences            ... used
Number of displacements        ... 24
Numerical increment            ... 5.000e-03 bohr
IR-spectrum generation         ... on
Raman-spectrum generation      ... off
Surface Crossing Hessian       ... off

 WARNING: There are more processes than displacements to do
  ====> : Reducing number of processes to  12

The output will be reduced. Please look at the following files:
SCF program output             ... >15_H2CO.lastscf
Integral program output        ... >15_H2CO.lastint
Gradient program output        ... >15_H2CO.lastgrad
Dipole moment program output   ... >15_H2CO.lastmom
AutoCI program output          ... >15_H2CO.lastautoci


         <<< Energy and Gradient at the input geometry >>>

        <<< Energy and Gradient at displaced geometries >>>
             <<<Displacing   1/coordinate 3 (+)>>>
             <<<Displacing   2/coordinate 2 (+)>>>
             <<<Displacing   1/coordinate 1 (+)>>>
             <<<Displacing   2/coordinate 1 (+)>>>
             <<<Displacing   2/coordinate 3 (+)>>>
             <<<Displacing   1/coordinate 2 (+)>>>
             <<<Displacing   3/coordinate 1 (+)>>>
             <<<Displacing   3/coordinate 2 (+)>>>
             <<<Displacing   3/coordinate 3 (+)>>>
             <<<Displacing   4/coordinate 1 (+)>>>
             <<<Displacing   4/coordinate 2 (+)>>>
             <<<Displacing   4/coordinate 3 (+)>>>
             <<<Displacing   4/coordinate 1 (-)>>>
             <<<Displacing   2/coordinate 2 (-)>>>
             <<<Displacing   1/coordinate 3 (-)>>>
             <<<Displacing   3/coordinate 2 (-)>>>
             <<<Displacing   3/coordinate 1 (-)>>>
             <<<Displacing   3/coordinate 3 (-)>>>
             <<<Displacing   1/coordinate 2 (-)>>>
             <<<Displacing   4/coordinate 2 (-)>>>
             <<<Displacing   2/coordinate 3 (-)>>>
             <<<Displacing   2/coordinate 1 (-)>>>
             <<<Displacing   4/coordinate 3 (-)>>>
             <<<Displacing   1/coordinate 1 (-)>>>

-----------------------
VIBRATIONAL FREQUENCIES
-----------------------

Scaling factor for frequencies =  1.000000000 (already applied!)

   0:         0.00 cm**-1
   1:         0.00 cm**-1
   2:         0.00 cm**-1
   3:         0.00 cm**-1
   4:         0.00 cm**-1
   5:         0.00 cm**-1
   6:      1221.17 cm**-1
   7:      1338.27 cm**-1
   8:      1533.75 cm**-1
   9:      1969.61 cm**-1
  10:      2909.87 cm**-1
  11:      2972.30 cm**-1


------------
NORMAL MODES
------------

These modes are the cartesian displacements weighted by the diagonal matrix
M(i,i)=1/sqrt(m[i]) where m[i] is the mass of the displaced atom
Thus, these vectors are normalized but *not* orthogonal

                  0          1          2          3          4          5    
      0       0.000000   0.000000   0.000000   0.000000   0.000000   0.000000
      1       0.000000   0.000000   0.000000   0.000000   0.000000   0.000000
      2       0.000000   0.000000   0.000000   0.000000   0.000000   0.000000
      3       0.000000   0.000000   0.000000   0.000000   0.000000   0.000000
      4       0.000000   0.000000   0.000000   0.000000   0.000000   0.000000
      5       0.000000   0.000000   0.000000   0.000000   0.000000   0.000000
      6       0.000000   0.000000   0.000000   0.000000   0.000000   0.000000
      7       0.000000   0.000000   0.000000   0.000000   0.000000   0.000000
      8       0.000000   0.000000   0.000000   0.000000   0.000000   0.000000
      9       0.000000   0.000000   0.000000   0.000000   0.000000   0.000000
     10       0.000000   0.000000   0.000000   0.000000   0.000000   0.000000
     11       0.000000   0.000000   0.000000   0.000000   0.000000   0.000000
                  6          7          8          9         10         11    
      0       0.015388  -0.018202  -0.034218  -0.728815  -0.047258   0.010970
      1       0.038376  -0.142802   0.008127   0.098166   0.004744   0.096319
      2       0.165108   0.034593   0.000880   0.046333   0.003253  -0.023868
      3      -0.003816   0.007885  -0.050388   0.551956  -0.006761  -0.000123
      4      -0.008798   0.078353   0.004833  -0.073841   0.000871   0.001560
      5      -0.038889  -0.018997   0.003724  -0.035320   0.000439  -0.000309
      6      -0.058356   0.694249   0.628976  -0.008096   0.259185   0.285737
      7      -0.158585   0.152919   0.255774   0.258914  -0.632794  -0.643954
      8      -0.675279  -0.099772  -0.117652  -0.059158   0.124755   0.125712
      9      -0.064437  -0.602514   0.578517  -0.068241   0.411241  -0.414503
     10      -0.159049   0.305049  -0.429325  -0.256620   0.562437  -0.528514
     11      -0.674848  -0.010900   0.048067   0.067666  -0.170482   0.163597


-----------
IR SPECTRUM  
-----------

 Mode    freq (cm**-1)   T**2         TX         TY         TZ
-------------------------------------------------------------------
   6:      1221.17    5.423154  ( -0.192499  -0.410908  -2.284131)
   7:      1338.27   15.766187  ( -0.598940  -3.816417   0.917834)
   8:      1533.75    5.191305  (  2.233768  -0.419059  -0.161174)
   9:      1969.61  131.571668  (-11.332689   1.642031   0.667513)
  10:      2909.87   77.571588  ( -8.666280   1.467098   0.561071)
  11:      2972.30  125.006629  (  0.937636  10.849135  -2.534511)

The first frequency considered to be a vibration is 6
The total number of vibrations considered is 6


--------------------------
THERMOCHEMISTRY AT 298.15K
--------------------------

Temperature         ... 298.15 K
Pressure            ... 1.00 atm
Total Mass          ... 30.03 AMU

Throughout the following assumptions are being made:
  (1) The electronic state is orbitally nondegenerate
  (2) There are no thermally accessible electronically excited states
  (3) Hindered rotations indicated by low frequency modes are not
      treated as such but are treated as vibrations and this may
      cause some error
  (4) All equations used are the standard statistical mechanics
      equations for an ideal gas
  (5) All vibrations are strictly harmonic

freq.    1221.17  E(vib)   ...       0.01 
freq.    1338.27  E(vib)   ...       0.01 
freq.    1533.75  E(vib)   ...       0.00 
freq.    1969.61  E(vib)   ...       0.00 
freq.    2909.87  E(vib)   ...       0.00 
freq.    2972.30  E(vib)   ...       0.00 

------------
INNER ENERGY
------------

The inner energy is: U= E(el) + E(ZPE) + E(vib) + E(rot) + E(trans)
    E(el)   - is the total energy from the electronic structure calculation
              = E(kin-el) + E(nuc-el) + E(el-el) + E(nuc-nuc)
    E(ZPE)  - the the zero temperature vibrational energy from the frequency calculation
    E(vib)  - the the finite temperature correction to E(ZPE) due to population
              of excited vibrational states
    E(rot)  - is the rotational thermal energy
    E(trans)- is the translational thermal energy

Summary of contributions to the inner energy U:
Electronic energy                ...   -114.49500089 Eh
Zero point energy                ...      0.02721267 Eh      17.08 kcal/mol
Thermal vibrational correction   ...      0.00002993 Eh       0.02 kcal/mol
Thermal rotational correction    ...      0.00141627 Eh       0.89 kcal/mol
Thermal translational correction ...      0.00141627 Eh       0.89 kcal/mol
-----------------------------------------------------------------------
Total thermal energy                   -114.46492574 Eh


Summary of corrections to the electronic energy:
(perhaps to be used in another calculation)
Total thermal correction                  0.00286247 Eh       1.80 kcal/mol
Non-thermal (ZPE) correction              0.02721267 Eh      17.08 kcal/mol
-----------------------------------------------------------------------
Total correction                          0.03007514 Eh      18.87 kcal/mol


--------
ENTHALPY
--------

The enthalpy is H = U + kB*T
                kB is Boltzmann's constant
Total free energy                 ...   -114.46492574 Eh 
Thermal Enthalpy correction       ...      0.00094421 Eh       0.59 kcal/mol
-----------------------------------------------------------------------
Total Enthalpy                    ...   -114.46398154 Eh


Note: Only C1 symmetry has been detected, increase convergence thresholds 
      if your molecule has a higher symmetry. Symmetry factor of 1.0 is   
      used for the rotational entropy correction. 
 

Note: Rotational entropy computed according to Herzberg 
Infrared and Raman Spectra, Chapter V,1, Van Nostrand Reinhold, 1945 
Point Group:  C1, Symmetry Number:   1  
Rotational constants in cm-1:     9.073797     1.375170     1.194187 

Vibrational entropy computed according to the QRRHO of S. Grimme
Chem.Eur.J. 2012 18 9955


-------
ENTROPY
-------

The entropy contributions are T*S = T*(S(el)+S(vib)+S(rot)+S(trans))
     S(el)   - electronic entropy
     S(vib)  - vibrational entropy
     S(rot)  - rotational entropy
     S(trans)- translational entropy
The entropies will be listed as mutliplied by the temperature to get
units of energy

Electronic entropy                ...      0.00000000 Eh      0.00 kcal/mol
Vibrational entropy               ...      0.00003468 Eh      0.02 kcal/mol
Rotational entropy                ...      0.00823549 Eh      5.17 kcal/mol
Translational entropy             ...      0.01716732 Eh     10.77 kcal/mol
-----------------------------------------------------------------------
Final entropy term                ...      0.02543748 Eh     15.96 kcal/mol

In case the symmetry of your molecule has not been determined correctly
or in case you have a reason to use a different symmetry number we print 
out the resulting rotational entropy values for sn=1,12 :
 --------------------------------------------------------
|  sn= 1 | S(rot)=       0.00823549 Eh      5.17 kcal/mol|
|  sn= 2 | S(rot)=       0.00758103 Eh      4.76 kcal/mol|
|  sn= 3 | S(rot)=       0.00719820 Eh      4.52 kcal/mol|
|  sn= 4 | S(rot)=       0.00692658 Eh      4.35 kcal/mol|
|  sn= 5 | S(rot)=       0.00671589 Eh      4.21 kcal/mol|
|  sn= 6 | S(rot)=       0.00654374 Eh      4.11 kcal/mol|
|  sn= 7 | S(rot)=       0.00639820 Eh      4.01 kcal/mol|
|  sn= 8 | S(rot)=       0.00627212 Eh      3.94 kcal/mol|
|  sn= 9 | S(rot)=       0.00616091 Eh      3.87 kcal/mol|
|  sn=10 | S(rot)=       0.00606143 Eh      3.80 kcal/mol|
|  sn=11 | S(rot)=       0.00597144 Eh      3.75 kcal/mol|
|  sn=12 | S(rot)=       0.00588929 Eh      3.70 kcal/mol|
 --------------------------------------------------------


-------------------
GIBBS FREE ENERGY
-------------------

The Gibbs free energy is G = H - T*S

Total enthalpy                    ...   -114.46398154 Eh 
Total entropy correction          ...     -0.02543748 Eh    -15.96 kcal/mol
-----------------------------------------------------------------------
Final Gibbs free energy         ...   -114.48941902 Eh

For completeness - the Gibbs free energy minus the electronic energy
G-E(el)                           ...      0.00558187 Eh      3.50 kcal/mol


Total Time for Numerical Frequencies  :        17.158 sec

Timings for individual modules:

Sum of individual times         ...       21.255 sec (=   0.354 min)
GTO integral calculation        ...        4.310 sec (=   0.072 min)  20.3 %
SCF iterations                  ...       11.194 sec (=   0.187 min)  52.7 %
SCF Gradient evaluation         ...        5.541 sec (=   0.092 min)  26.1 %
Geometry relaxation             ...        0.210 sec (=   0.003 min)   1.0 %
                             ****ORCA TERMINATED NORMALLY****
TOTAL RUN TIME: 0 days 0 hours 0 minutes 37 seconds 83 msec
