
                                 *****************
                                 * O   R   C   A *
                                 *****************

           --- An Ab Initio, DFT and Semiempirical electronic structure package ---

                  #######################################################
                  #                        -***-                        #
                  #          Department of theory and spectroscopy      #
                  #               Directorship: Frank Neese             #
                  #        Max Planck Institute fuer Kohlenforschung    #
                  #                Kaiser Wilhelm Platz 1               #
                  #                 D-45470 Muelheim/Ruhr               #
                  #                      Germany                        #
                  #                                                     #
                  #                  All rights reserved                #
                  #                        -***-                        #
                  #######################################################


                         Program Version 4.2.0 -  RELEASE  -


 With contributions from (in alphabetic order):
   Daniel Aravena         : Magnetic Suceptibility
   Michael Atanasov       : Ab Initio Ligand Field Theory (pilot matlab implementation)
   Alexander A. Auer      : GIAO ZORA, VPT2
   Ute Becker             : Parallelization
   Giovanni Bistoni       : ED, misc. LED, open-shell LED, HFLED
   Martin Brehm           : Molecular dynamics
   Dmytro Bykov           : SCF Hessian
   Vijay G. Chilkuri      : MRCI spin determinant printing, contributions to CSF-ICE
   Dipayan Datta          : RHF DLPNO-CCSD density
   Achintya Kumar Dutta   : EOM-CC, STEOM-CC
   Dmitry Ganyushin       : Spin-Orbit,Spin-Spin,Magnetic field MRCI
   Miquel Garcia          : C-PCM Hessian, Gaussian charge scheme
   Yang Guo               : DLPNO-NEVPT2, CIM, IAO-localization
   Andreas Hansen         : Spin unrestricted coupled pair/coupled cluster methods
   Benjamin Helmich-Paris : CASSCF linear response (MC-RPA)
   Lee Huntington         : MR-EOM, pCC
   Robert Izsak           : Overlap fitted RIJCOSX, COSX-SCS-MP3, EOM
   Christian Kollmar      : KDIIS, OOCD, Brueckner-CCSD(T), CCSD density
   Simone Kossmann        : Meta GGA functionals, TD-DFT gradient, OOMP2, MP2 Hessian
   Martin Krupicka        : AUTO-CI
   Lucas Lang             : DCDCAS
   Dagmar Lenk            : GEPOL surface, SMD
   Dimitrios Liakos       : Extrapolation schemes; Compound Job, initial MDCI parallelization
   Dimitrios Manganas     : Further ROCIS development; embedding schemes
   Dimitrios Pantazis     : SARC Basis sets
   Taras Petrenko         : DFT Hessian,TD-DFT gradient, ASA, ECA, R-Raman, ABS, FL, XAS/XES, NRVS
   Peter Pinski           : DLPNO-MP2, DLPNO-MP2 Gradient
   Christoph Reimann      : Effective Core Potentials
   Marius Retegan         : Local ZFS, SOC
   Christoph Riplinger    : Optimizer, TS searches, QM/MM, DLPNO-CCSD(T), (RO)-DLPNO pert. Triples
   Tobias Risthaus        : Range-separated hybrids, TD-DFT gradient, RPA, STAB
   Michael Roemelt        : Original ROCIS implementation
   Masaaki Saitow         : Open-shell DLPNO-CCSD energy and density
   Barbara Sandhoefer     : DKH picture change effects
   Avijit Sen             : IP-ROCIS
   Kantharuban Sivalingam : CASSCF convergence, NEVPT2, FIC-MRCI
   Bernardo de Souza      : ESD, SOC TD-DFT
   Georgi Stoychev        : AutoAux, RI-MP2 NMR
   Willem Van den Heuvel  : Paramagnetic NMR
   Boris Wezisla          : Elementary symmetry handling
   Frank Wennmohs         : Technical directorship


 We gratefully acknowledge several colleagues who have allowed us to
 interface, adapt or use parts of their codes:
   Stefan Grimme, W. Hujo, H. Kruse,             : VdW corrections, initial TS optimization,
                  C. Bannwarth                     DFT functionals, gCP, sTDA/sTD-DF
   Ed Valeev, F. Pavosevic, A. Kumar             : LibInt (2-el integral package), F12 methods
   Garnet Chan, S. Sharma, J. Yang, R. Olivares  : DMRG
   Ulf Ekstrom                                   : XCFun DFT Library
   Mihaly Kallay                                 : mrcc  (arbitrary order and MRCC methods)
   Andreas Klamt, Michael Diedenhofen            : otool_cosmo (COSMO solvation model)
   Jiri Pittner, Ondrej Demel                    : Mk-CCSD
   Frank Weinhold                                : gennbo (NPA and NBO analysis)
   Christopher J. Cramer and Donald G. Truhlar   : smd solvation model
   Lars Goerigk                                  : TD-DFT with DH, B97 family of functionals
   V. Asgeirsson, H. Jonsson                     : NEB implementation
   FAccTs GmbH                                   : IRC, NEB, NEB-TS, Multilevel, MM, QM/MM, CI optimization
   S Lehtola, MJT Oliveira, MAL Marques          : LibXC Library


 Your calculation uses the libint2 library for the computation of 2-el integrals
 For citations please refer to: http://libint.valeyev.net

 Your ORCA version has been built with support for libXC version: 4.2.3
 For citations please refer to: https://tddft.org/programs/libxc/

 This ORCA versions uses:
   CBLAS   interface :  Fast vector & matrix operations
   LAPACKE interface :  Fast linear algebra routines
   SCALAPACK package :  Parallel linear algebra routines


Your calculation utilizes the atom-pairwise dispersion correction
with the Becke-Johnson damping scheme (D3BJ)
Cite in your paper:
S.Grimme, S.Ehrlich, L.Goerigk, J Comput Chem, (2011), 32, 1456–1465 
S.Grimme, J.Antony, S.Ehrlich and H.Krieg, J.Chem.Phys., 132, (2010), 154104 
   

----- Orbital basis set information -----
Your calculation utilizes the basis: aug-cc-pV(T+d)Z 
             Al - Ar: T.H. Dunning, Jr., K. A. Peterson and A. K. Wilson, J. Chem. Phys.
                      114, 9244 (2001)

----- AuxJ basis set information -----
Your calculation utilizes the auxiliary basis: def2/J
   F. Weigend, Phys. Chem. Chem. Phys. 8, 1057 (2006).

================================================================================
                                        WARNINGS
                       Please study these warnings very carefully!
================================================================================


WARNING: Geometry Optimization
  ===> : Switching off AutoStart
         For restart on a previous wavefunction, please use MOREAD

WARNING: The SCAN functional is very grid-sensitive!
         Use at least GRID5 and a higher intacc

INFO   : the flag for use of LIBINT has been found!

================================================================================
                                       INPUT FILE
================================================================================
NAME = 18_H2S.in
|  1> #
|  2> # 18_H2S scanfunc/aug-cc-pvt(+d)z
|  3> #
|  4> ! scanfunc d3bj aug-cc-pvt(+d)z def2/j opt xyzfile numfreq
|  5> 
|  6> *xyz 0 1
|  7> S           -0.001470633          0.617319337         -0.000000023
|  8> H            0.970605688         -0.306349104         -0.000000002
|  9> H           -0.969135055         -0.310970228          0.000000025
| 10> *
| 11> 
| 12> %pal
| 13> nprocs 24
| 14> end
| 15> 
| 16> 
| 17>                          ****END OF INPUT****
================================================================================

                       *****************************
                       * Geometry Optimization Run *
                       *****************************

Geometry optimization settings:
Update method            Update   .... BFGS
Choice of coordinates    CoordSys .... Z-matrix Internals
Initial Hessian          InHess   .... Almoef's Model

Convergence Tolerances:
Energy Change            TolE     ....  5.0000e-06 Eh
Max. Gradient            TolMAXG  ....  3.0000e-04 Eh/bohr
RMS Gradient             TolRMSG  ....  1.0000e-04 Eh/bohr
Max. Displacement        TolMAXD  ....  4.0000e-03 bohr
RMS Displacement         TolRMSD  ....  2.0000e-03 bohr
Strict Convergence                ....  False
------------------------------------------------------------------------------
                        ORCA OPTIMIZATION COORDINATE SETUP
------------------------------------------------------------------------------

The optimization will be done in new redundant internal coordinates
Making redundant internal coordinates   ...  (new redundants) done
Evaluating the initial hessian          ...  (Almloef) done
Evaluating the coordinates              ...  done
Calculating the B-matrix                .... done
Calculating the G-matrix                .... done
Diagonalizing the G-matrix              .... done
The first mode is                       ....    0
The number of degrees of freedom        ....    3

    -----------------------------------------------------------------
                    Redundant Internal Coordinates


    -----------------------------------------------------------------
         Definition                    Initial Value    Approx d2E/dq
    -----------------------------------------------------------------
      1. B(H   1,S   0)                  1.3409         0.386231   
      2. B(H   2,S   0)                  1.3409         0.386230   
      3. A(H   1,S   0,H   2)           92.6525         0.339907   
    -----------------------------------------------------------------

Number of atoms                         .... 3
Number of degrees of freedom            .... 3

         *************************************************************
         *                GEOMETRY OPTIMIZATION CYCLE   1            *
         *************************************************************
---------------------------------
CARTESIAN COORDINATES (ANGSTROEM)
---------------------------------
  S     -0.001471    0.617319   -0.000000
  H      0.970606   -0.306349   -0.000000
  H     -0.969135   -0.310970    0.000000

----------------------------
CARTESIAN COORDINATES (A.U.)
----------------------------
  NO LB      ZA    FRAG     MASS         X           Y           Z
   0 S    16.0000    0    32.060   -0.002779    1.166564   -0.000000
   1 H     1.0000    0     1.008    1.834179   -0.578916   -0.000000
   2 H     1.0000    0     1.008   -1.831400   -0.587649    0.000000

--------------------------------
INTERNAL COORDINATES (ANGSTROEM)
--------------------------------
 S      0   0   0     0.000000000000     0.00000000     0.00000000
 H      1   0   0     1.340930931386     0.00000000     0.00000000
 H      1   2   0     1.340931001242    92.65246919     0.00000000

---------------------------
INTERNAL COORDINATES (A.U.)
---------------------------
 S      0   0   0     0.000000000000     0.00000000     0.00000000
 H      1   0   0     2.533992224824     0.00000000     0.00000000
 H      1   2   0     2.533992356833    92.65246919     0.00000000

---------------------
BASIS SET INFORMATION
---------------------
There are 2 groups of distinct atoms

 Group   1 Type S   : 42s17p4d2f contracted to 6s5p4d2f pattern {131313111/77111/1111/11}
 Group   2 Type H   : 6s3p2d contracted to 4s3p2d pattern {3111/111/11}

Atom   0S    basis set group =>   1
Atom   1H    basis set group =>   2
Atom   2H    basis set group =>   2
---------------------------------
AUXILIARY/J BASIS SET INFORMATION
---------------------------------
There are 2 groups of distinct atoms

 Group   1 Type S   : 14s5p5d2f1g contracted to 8s4p3d1f1g pattern {71111111/2111/311/2/1}
 Group   2 Type H   : 5s2p1d contracted to 3s1p1d pattern {311/2/1}

Atom   0S    basis set group =>   1
Atom   1H    basis set group =>   2
Atom   2H    basis set group =>   2


           ************************************************************
           *        Program running with 24 parallel MPI-processes    *
           *              working on a common directory               *
           ************************************************************
------------------------------------------------------------------------------
                           ORCA GTO INTEGRAL CALCULATION
                           -- RI-GTO INTEGRALS CHOSEN --
------------------------------------------------------------------------------

                         BASIS SET STATISTICS AND STARTUP INFO

Gaussian basis set:
 # of primitive gaussian shells          ...   87
 # of primitive gaussian functions       ...  177
 # of contracted shells                  ...   35
 # of contracted basis functions         ...  101
 Highest angular momentum                ...    3
 Maximum contraction depth               ...   13
Auxiliary gaussian basis set:
 # of primitive gaussian shells          ...   43
 # of primitive gaussian functions       ...  109
 # of contracted shells                  ...   27
 # of contracted aux-basis functions     ...   73
 Highest angular momentum                ...    4
 Maximum contraction depth               ...    7
Ratio of auxiliary to basis functions    ...  0.72
Integral package used                  ... LIBINT
 One Electron integrals                  ... done
 Ordering auxiliary basis shells         ... done
 Integral threshhold             Thresh  ...  2.500e-11
 Primitive cut-off               TCut    ...  2.500e-12
 Pre-screening matrix                    ... done
 Shell pair data                         ... 
 Ordering of the shell pairs             ... done (   0.000 sec) 630 of 630 pairs
 Determination of significant pairs      ... done (   0.000 sec)
 Creation of shell pair data             ... done (   0.000 sec)
 Storage of shell pair data              ... done (   0.000 sec)
 Shell pair data done in (   0.001 sec)
 Computing two index integrals           ... done
 Cholesky decomposition of the V-matrix  ... done


Timings:
 Total evaluation time                   ...   0.194 sec (  0.003 min)
 One electron matrix time                ...   0.011 sec (  0.000 min) =  5.6%
 Schwartz matrix evaluation time         ...   0.157 sec (  0.003 min) = 80.8%
 Two index repulsion integral time       ...   0.000 sec (  0.000 min) =  0.2%
 Cholesky decomposition of V             ...   0.003 sec (  0.000 min) =  1.4%
 Three index repulsion integral time     ...   0.000 sec (  0.000 min) =  0.0%



           ************************************************************
           *        Program running with 24 parallel MPI-processes    *
           *              working on a common directory               *
           ************************************************************
-------------------------------------------------------------------------------
                                 ORCA SCF
-------------------------------------------------------------------------------

------------
SCF SETTINGS
------------
Hamiltonian:
 Density Functional     Method          .... DFT(GTOs)
 Exchange Functional    Exchange        .... SCAN
 Correlation Functional Correlation     .... SCAN
 Gradients option       PostSCFGGA      .... off
   Density functional embedding theory  .... OFF
   NL short-range parameter             ....  6.400000
 RI-approximation to the Coulomb term is turned on
   Number of auxiliary basis functions  .... 73


General Settings:
 Integral files         IntName         .... 18_H2S
 Hartree-Fock type      HFTyp           .... RHF
 Total Charge           Charge          ....    0
 Multiplicity           Mult            ....    1
 Number of Electrons    NEL             ....   18
 Basis Dimension        Dim             ....  101
 Nuclear Repulsion      ENuc            ....     12.9011015813 Eh

Convergence Acceleration:
 DIIS                   CNVDIIS         .... on
   Start iteration      DIISMaxIt       ....    12
   Startup error        DIISStart       ....  0.200000
   # of expansion vecs  DIISMaxEq       ....     5
   Bias factor          DIISBfac        ....   1.050
   Max. coefficient     DIISMaxC        ....  10.000
 Newton-Raphson         CNVNR           .... off
 SOSCF                  CNVSOSCF        .... on
   Start iteration      SOSCFMaxIt      ....   150
   Startup grad/error   SOSCFStart      ....  0.003300
 Level Shifting         CNVShift        .... on
   Level shift para.    LevelShift      ....    0.2500
   Turn off err/grad.   ShiftErr        ....    0.0010
 Zerner damping         CNVZerner       .... off
 Static damping         CNVDamp         .... on
   Fraction old density DampFac         ....    0.7000
   Max. Damping (<1)    DampMax         ....    0.9800
   Min. Damping (>=0)   DampMin         ....    0.0000
   Turn off err/grad.   DampErr         ....    0.1000
 Fernandez-Rico         CNVRico         .... off

SCF Procedure:
 Maximum # iterations   MaxIter         ....   125
 SCF integral mode      SCFMode         .... Direct
   Integral package                     .... LIBINT
 Reset frequency        DirectResetFreq ....    20
 Integral Threshold     Thresh          ....  2.500e-11 Eh
 Primitive CutOff       TCut            ....  2.500e-12 Eh

Convergence Tolerance:
 Convergence Check Mode ConvCheckMode   .... Total+1el-Energy
 Convergence forced     ConvForced      .... 0
 Energy Change          TolE            ....  1.000e-08 Eh
 1-El. energy change                    ....  1.000e-05 Eh
 Orbital Gradient       TolG            ....  1.000e-05
 Orbital Rotation angle TolX            ....  1.000e-05
 DIIS Error             TolErr          ....  5.000e-07


Diagonalization of the overlap matrix:
Smallest eigenvalue                        ... 1.617e-04
Time for diagonalization                   ...    0.003 sec
Threshold for overlap eigenvalues          ... 1.000e-08
Number of eigenvalues below threshold      ... 0
Time for construction of square roots      ...    0.001 sec
Total time needed                          ...    0.005 sec

-------------------
DFT GRID GENERATION
-------------------

General Integration Accuracy     IntAcc      ...  4.340
Radial Grid Type                 RadialGrid  ... Gauss-Chebyshev
Angular Grid (max. acc.)         AngularGrid ... Lebedev-110
Angular grid pruning method      GridPruning ... 3 (G Style)
Weight generation scheme         WeightScheme... Becke
Basis function cutoff            BFCut       ...    1.0000e-11
Integration weight cutoff        WCut        ...    1.0000e-14
Grids for H and He will be reduced by one unit

# of grid points (after initial pruning)     ...   3394 (   0.0 sec)
# of grid points (after weights+screening)   ...   3336 (   0.0 sec)
nearest neighbour list constructed           ...    0.0 sec
Grid point re-assignment to atoms done       ...    0.0 sec
Grid point division into batches done        ...    0.0 sec
Reduced shell lists constructed in    0.0 sec

Total number of grid points                  ...     3336
Total number of batches                      ...       54
Average number of points per batch           ...       61
Average number of grid points per atom       ...     1112
Average number of shells per batch           ...    21.50 (61.43%)
Average number of basis functions per batch  ...    62.50 (61.88%)
Average number of large shells per batch     ...    17.50 (81.40%)
Average number of large basis fcns per batch ...    52.00 (83.20%)
Maximum spatial batch extension              ...  22.78, 15.53, 22.78 au
Average spatial batch extension              ...   0.99,  0.84,  1.06 au

Time for grid setup =    0.014 sec

------------------------------
INITIAL GUESS: MODEL POTENTIAL
------------------------------
Loading Hartree-Fock densities                     ... done
Calculating cut-offs                               ... done
Setting up the integral package                    ... done
Initializing the effective Hamiltonian             ... done
Starting the Coulomb interaction                   ... done (   0.0 sec)
Reading the grid                                   ... done
Mapping shells                                     ... done
Starting the XC term evaluation                    ... done (   0.0 sec)
  promolecular density results
     # of electrons  =     17.998536239
     EX              =    -28.534751050
     EC              =     -0.302020216
     EX+EC           =    -28.836771265
Transforming the Hamiltonian                       ... done (   0.0 sec)
Diagonalizing the Hamiltonian                      ... done (   0.0 sec)
Back transforming the eigenvectors                 ... done (   0.0 sec)
Now organizing SCF variables                       ... done
                      ------------------
                      INITIAL GUESS DONE (   0.1 sec)
                      ------------------
--------------
SCF ITERATIONS
--------------
ITER       Energy         Delta-E        Max-DP      RMS-DP      [F,P]     Damp
               ***  Starting incremental Fock matrix formation  ***
  0   -399.3585350925   0.000000000000 0.03968480  0.00133723  0.1645077 0.7000
  1   -399.3892790098  -0.030743917308 0.02559307  0.00091839  0.0945881 0.7000
                               ***Turning on DIIS***
  2   -399.4033912769  -0.014112267087 0.04716541  0.00175404  0.0435152 0.0000
  3   -399.4224288715  -0.019037594592 0.02523493  0.00063421  0.0446673 0.0000
  4   -399.4278105261  -0.005381654679 0.00934979  0.00016276  0.0114940 0.0000
  5   -399.4281612586  -0.000350732511 0.00327550  0.00006467  0.0037826 0.0000
                      *** Initiating the SOSCF procedure ***
                           *** Shutting down DIIS ***
                      *** Re-Reading the Fockian *** 
                      *** Removing any level shift *** 
ITER      Energy       Delta-E        Grad      Rot      Max-DP    RMS-DP
  6   -399.42819866  -0.0000373973  0.000553  0.000553  0.001300  0.000027
               *** Restarting incremental Fock matrix formation ***
  7   -399.42820198  -0.0000033248  0.000291  0.000898  0.000983  0.000017
  8   -399.42820242  -0.0000004421  0.000131  0.000167  0.000280  0.000007
  9   -399.42820263  -0.0000002095  0.000031  0.000079  0.000098  0.000003
 10   -399.42820264  -0.0000000115  0.000016  0.000019  0.000026  0.000001
 11   -399.42820264   0.0000000069  0.000004  0.000009  0.000014  0.000000
                 **** Energy Check signals convergence ****
              ***Rediagonalizing the Fockian in SOSCF/NRSCF***

               *****************************************************
               *                     SUCCESS                       *
               *           SCF CONVERGED AFTER  12 CYCLES          *
               *****************************************************

Setting up the final grid:

General Integration Accuracy     IntAcc      ...  4.670
Radial Grid Type                 RadialGrid  ... Gauss-Chebyshev
Angular Grid (max. acc.)         AngularGrid ... Lebedev-302
Angular grid pruning method      GridPruning ... 3 (G Style)
Weight generation scheme         WeightScheme... Becke
Basis function cutoff            BFCut       ...    1.0000e-11
Integration weight cutoff        WCut        ...    1.0000e-14
Grids for H and He will be reduced by one unit

# of grid points (after initial pruning)     ...  13634 (   0.0 sec)
# of grid points (after weights+screening)   ...  13534 (   0.0 sec)
nearest neighbour list constructed           ...    0.0 sec
Grid point re-assignment to atoms done       ...    0.0 sec
Grid point division into batches done        ...    0.0 sec
Reduced shell lists constructed in    0.0 sec

Total number of grid points                  ...    13534
Total number of batches                      ...      214
Average number of points per batch           ...       63
Average number of grid points per atom       ...     4511
Average number of shells per batch           ...    16.30 (46.57%)
Average number of basis functions per batch  ...    44.90 (44.46%)
Average number of large shells per batch     ...    11.40 (69.94%)
Average number of large basis fcns per batch ...    30.20 (67.26%)
Maximum spatial batch extension              ...  19.55, 13.00, 25.31 au
Average spatial batch extension              ...   0.56,  0.46,  0.63 au

Final grid set up in    0.1 sec
Final integration                            ... done (   0.0 sec)
Change in XC energy                          ...    -0.041800866
Integrated number of electrons               ...    17.999989587
Previous integrated no of electrons          ...    17.999104676

----------------
TOTAL SCF ENERGY
----------------

Total Energy       :         -399.47000351 Eh          -10870.13142 eV

Components:
Nuclear Repulsion  :           12.90110158 Eh             351.05682 eV
Electronic Energy  :         -412.37110509 Eh          -11221.18824 eV
One Electron Energy:         -576.72061509 Eh          -15693.36577 eV
Two Electron Energy:          164.34951000 Eh            4472.17753 eV

Virial components:
Potential Energy   :         -797.85576675 Eh          -21710.75917 eV
Kinetic Energy     :          398.38576323 Eh           10840.62774 eV
Virial Ratio       :            2.00272158


DFT components:
N(Alpha)           :        8.999994793268 electrons
N(Beta)            :        8.999994793268 electrons
N(Total)           :       17.999989586535 electrons
E(X)               :      -25.810667309353 Eh       
E(C)               :       -0.647800405208 Eh       
E(XC)              :      -26.458467714561 Eh       
DFET-embed. en.    :        0.000000000000 Eh       

---------------
SCF CONVERGENCE
---------------

  Last Energy change         ...   -9.2226e-09  Tolerance :   1.0000e-08
  Last MAX-Density change    ...    2.5281e-06  Tolerance :   1.0000e-07
  Last RMS-Density change    ...    5.6260e-08  Tolerance :   5.0000e-09
  Last Orbital Gradient      ...    6.4999e-07  Tolerance :   1.0000e-05
  Last Orbital Rotation      ...    2.0145e-06  Tolerance :   1.0000e-05

             **** THE GBW FILE WAS UPDATED (18_H2S.gbw) ****
             **** DENSITY FILE WAS UPDATED (18_H2S.scfp) ****
             **** ENERGY FILE WAS UPDATED (18_H2S.en.tmp) ****
             **** THE GBW FILE WAS UPDATED (18_H2S.gbw) ****
             **** DENSITY FILE WAS UPDATED (18_H2S.scfp) ****
----------------
ORBITAL ENERGIES
----------------

  NO   OCC          E(Eh)            E(eV) 
   0   2.0000     -88.540081     -2409.2981 
   1   2.0000      -7.893300      -214.7876 
   2   2.0000      -5.836453      -158.8180 
   3   2.0000      -5.831415      -158.6809 
   4   2.0000      -5.821840      -158.4203 
   5   2.0000      -0.707274       -19.2459 
   6   2.0000      -0.422111       -11.4862 
   7   2.0000      -0.344232        -9.3670 
   8   2.0000      -0.242284        -6.5929 
   9   0.0000      -0.007152        -0.1946 
  10   0.0000      -0.005330        -0.1450 
  11   0.0000       0.040166         1.0930 
  12   0.0000       0.066115         1.7991 
  13   0.0000       0.069940         1.9032 
  14   0.0000       0.081921         2.2292 
  15   0.0000       0.106764         2.9052 
  16   0.0000       0.116064         3.1583 
  17   0.0000       0.129481         3.5234 
  18   0.0000       0.143081         3.8934 
  19   0.0000       0.151352         4.1185 
  20   0.0000       0.241851         6.5811 
  21   0.0000       0.273457         7.4412 
  22   0.0000       0.297191         8.0870 
  23   0.0000       0.305828         8.3220 
  24   0.0000       0.310522         8.4497 
  25   0.0000       0.320906         8.7323 
  26   0.0000       0.325039         8.8448 
  27   0.0000       0.342291         9.3142 
  28   0.0000       0.436673        11.8825 
  29   0.0000       0.458364        12.4727 
  30   0.0000       0.468544        12.7497 
  31   0.0000       0.488907        13.3038 
  32   0.0000       0.520458        14.1624 
  33   0.0000       0.540072        14.6961 
  34   0.0000       0.547583        14.9005 
  35   0.0000       0.655398        17.8343 
  36   0.0000       0.664832        18.0910 
  37   0.0000       0.665045        18.0968 
  38   0.0000       0.726852        19.7786 
  39   0.0000       0.746921        20.3248 
  40   0.0000       0.761048        20.7092 
  41   0.0000       0.765679        20.8352 
  42   0.0000       0.788263        21.4497 
  43   0.0000       0.860357        23.4115 
  44   0.0000       0.902730        24.5645 
  45   0.0000       0.917056        24.9544 
  46   0.0000       0.982927        26.7468 
  47   0.0000       1.001911        27.2634 
  48   0.0000       1.005228        27.3536 
  49   0.0000       1.029549        28.0155 
  50   0.0000       1.045803        28.4577 
  51   0.0000       1.083094        29.4725 
  52   0.0000       1.123293        30.5663 
  53   0.0000       1.158160        31.5151 
  54   0.0000       1.247715        33.9521 
  55   0.0000       1.429069        38.8869 
  56   0.0000       1.459065        39.7032 
  57   0.0000       1.473575        40.0980 
  58   0.0000       1.492843        40.6223 
  59   0.0000       1.498745        40.7829 
  60   0.0000       1.572491        42.7897 
  61   0.0000       1.685347        45.8606 
  62   0.0000       1.721152        46.8349 
  63   0.0000       1.734297        47.1926 
  64   0.0000       1.791140        48.7394 
  65   0.0000       1.938056        52.7372 
  66   0.0000       1.998904        54.3929 
  67   0.0000       2.116730        57.5992 
  68   0.0000       2.141343        58.2689 
  69   0.0000       2.185634        59.4741 
  70   0.0000       2.200645        59.8826 
  71   0.0000       2.326103        63.2965 
  72   0.0000       2.367724        64.4290 
  73   0.0000       2.405069        65.4453 
  74   0.0000       2.438166        66.3459 
  75   0.0000       2.579714        70.1976 
  76   0.0000       2.812533        76.5329 
  77   0.0000       3.206742        87.2599 
  78   0.0000       3.312711        90.1434 
  79   0.0000       3.719811       101.2212 
  80   0.0000       3.794551       103.2550 
  81   0.0000       3.816106       103.8415 
  82   0.0000       3.847646       104.6998 
  83   0.0000       4.075906       110.9111 
  84   0.0000       4.118862       112.0799 
  85   0.0000       4.174589       113.5964 
  86   0.0000       4.176314       113.6433 
  87   0.0000       4.274246       116.3082 
  88   0.0000       4.320493       117.5666 
  89   0.0000       4.362133       118.6997 
  90   0.0000       4.368208       118.8650 
  91   0.0000       4.509759       122.7168 
  92   0.0000       4.541542       123.5816 
  93   0.0000       4.763886       129.6319 
  94   0.0000       5.195144       141.3671 
  95   0.0000       6.468781       176.0245 
  96   0.0000       6.900809       187.7806 
  97   0.0000       6.913453       188.1246 
  98   0.0000       6.997110       190.4010 
  99   0.0000       8.032103       218.5646 
 100   0.0000       8.181700       222.6354 

                    ********************************
                    * MULLIKEN POPULATION ANALYSIS *
                    ********************************

-----------------------
MULLIKEN ATOMIC CHARGES
-----------------------
   0 S :   -0.181457
   1 H :    0.090627
   2 H :    0.090830
Sum of atomic charges:    0.0000000

--------------------------------
MULLIKEN REDUCED ORBITAL CHARGES
--------------------------------
  0 S s       :     5.834435  s :     5.834435
      pz      :     3.911270  p :    10.262488
      px      :     3.047374
      py      :     3.303844
      dz2     :     0.012670  d :     0.080016
      dxz     :     0.000000
      dyz     :     0.002470
      dx2y2   :     0.000835
      dxy     :     0.064040
      f0      :     0.000456  f :     0.004518
      f+1     :     0.000891
      f-1     :     0.000898
      f+2     :     0.000027
      f-2     :     0.000000
      f+3     :     0.001821
      f-3     :     0.000425
  1 H s       :     0.841178  s :     0.841178
      pz      :     0.036097  p :     0.057510
      px      :     0.009296
      py      :     0.012116
      dz2     :     0.000039  d :     0.010685
      dxz     :     0.004157
      dyz     :     0.002678
      dx2y2   :     0.000975
      dxy     :     0.002837
  2 H s       :     0.840826  s :     0.840826
      pz      :     0.036046  p :     0.057646
      px      :     0.009386
      py      :     0.012215
      dz2     :     0.000037  d :     0.010698
      dxz     :     0.004118
      dyz     :     0.002681
      dx2y2   :     0.001046
      dxy     :     0.002817


                     *******************************
                     * LOEWDIN POPULATION ANALYSIS *
                     *******************************

----------------------
LOEWDIN ATOMIC CHARGES
----------------------
   0 S :    1.312403
   1 H :   -0.656208
   2 H :   -0.656195

-------------------------------
LOEWDIN REDUCED ORBITAL CHARGES
-------------------------------
  0 S s       :     5.037545  s :     5.037545
      pz      :     3.385761  p :     9.460313
      px      :     2.899700
      py      :     3.174853
      dz2     :     0.028422  d :     0.151930
      dxz     :     0.000000
      dyz     :     0.004146
      dx2y2   :     0.007374
      dxy     :     0.111988
      f0      :     0.000243  f :     0.037809
      f+1     :     0.006503
      f-1     :     0.004909
      f+2     :     0.000020
      f-2     :     0.000000
      f+3     :     0.013545
      f-3     :     0.012588
  1 H s       :     0.789216  s :     0.789216
      pz      :     0.183071  p :     0.549722
      px      :     0.162414
      py      :     0.204237
      dz2     :     0.025497  d :     0.317270
      dxz     :     0.061515
      dyz     :     0.060339
      dx2y2   :     0.101505
      dxy     :     0.068415
  2 H s       :     0.789208  s :     0.789208
      pz      :     0.183067  p :     0.549740
      px      :     0.161843
      py      :     0.204830
      dz2     :     0.025496  d :     0.317246
      dxz     :     0.060934
      dyz     :     0.060905
      dx2y2   :     0.101882
      dxy     :     0.068030


                      *****************************
                      * MAYER POPULATION ANALYSIS *
                      *****************************

  NA   - Mulliken gross atomic population
  ZA   - Total nuclear charge
  QA   - Mulliken gross atomic charge
  VA   - Mayer's total valence
  BVA  - Mayer's bonded valence
  FA   - Mayer's free valence

  ATOM       NA         ZA         QA         VA         BVA        FA
  0 S     16.1815    16.0000    -0.1815     2.0802     2.0802     0.0000
  1 H      0.9094     1.0000     0.0906     1.0473     1.0473     0.0000
  2 H      0.9092     1.0000     0.0908     1.0476     1.0476     0.0000

  Mayer bond orders larger than 0.100000
B(  0-S ,  1-H ) :   1.0399 B(  0-S ,  2-H ) :   1.0403 

-------
TIMINGS
-------

Total SCF time: 0 days 0 hours 0 min 1 sec 

Total time                  ....       1.431 sec
Sum of individual times     ....       1.336 sec  ( 93.4%)

Fock matrix formation       ....       1.129 sec  ( 78.9%)
  Split-RI-J                ....       0.897 sec  ( 79.4% of F)
  XC integration            ....       0.192 sec  ( 17.0% of F)
    Basis function eval.    ....       0.013 sec  (  6.9% of XC)
    Density eval.           ....       0.013 sec  (  7.0% of XC)
    XC-Functional eval.     ....       0.005 sec  (  2.8% of XC)
    XC-Potential eval.      ....       0.032 sec  ( 16.7% of XC)
Diagonalization             ....       0.015 sec  (  1.0%)
Density matrix formation    ....       0.004 sec  (  0.3%)
Population analysis         ....       0.003 sec  (  0.2%)
Initial guess               ....       0.109 sec  (  7.6%)
Orbital Transformation      ....       0.000 sec  (  0.0%)
Orbital Orthonormalization  ....       0.000 sec  (  0.0%)
DIIS solution               ....       0.006 sec  (  0.4%)
SOSCF solution              ....       0.004 sec  (  0.3%)
Grid generation             ....       0.066 sec  (  4.6%)


-------------------------------------------------------------------------------
                          DFT DISPERSION CORRECTION                            
                                                                               
                              DFTD3 V3.1  Rev 1                                
                          USING Becke-Johnson damping                          
-------------------------------------------------------------------------------
The SCAN functional is recognized
Active option DFTDOPT                   ...         4   

molecular C6(AA) [au] = 217.066291 


            DFT-D V3
 parameters
 s6 scaling factor         :     1.0000 
 a1 scaling factor         :     0.5380 
 s8 scaling factor         :     0.0000 
 a2 scaling factor         :     5.4200 
 ad hoc parameters k1-k3   :    16.0000     1.3333    -4.0000 

 Edisp/kcal,au: -0.101864888233  -0.000162332015 
 E6   /kcal   :  -0.101864888 
 E8   /kcal   :  -0.000000000 
 % E8         :   0.000000000 

-------------------------   ----------------
Dispersion correction           -0.000162332
-------------------------   ----------------


-------------------------   --------------------
FINAL SINGLE POINT ENERGY      -399.470165844396
-------------------------   --------------------



           ************************************************************
           *        Program running with 24 parallel MPI-processes    *
           *              working on a common directory               *
           ************************************************************
------------------------------------------------------------------------------
                         ORCA SCF GRADIENT CALCULATION
------------------------------------------------------------------------------

Gradient of the Kohn-Sham DFT energy:
Kohn-Sham wavefunction type      ... RKS
Hartree-Fock exchange scaling    ...    0.000
Number of operators              ...    1
Number of atoms                  ...    3
Basis set dimensions             ...  101
Integral neglect threshold       ... 2.5e-11
Integral primitive cutoff        ... 2.5e-12

Nuclear repulsion gradient       ... done
One Electron Gradient            ... done
Pre-screening matrix             ... done
RI-J gradient                    ... done
Exchange-correlation gradient    ... done
Dispersion correction            ... done

------------------
CARTESIAN GRADIENT
------------------

   1   S   :    0.000204923   -0.082246618   -0.000000006
   2   H   :    0.001550518   -0.000870165    0.000000001
   3   H   :   -0.001550529   -0.000867806    0.000000010

Difference to translation invariance:
           :    0.0002049108   -0.0839845885    0.0000000051

Norm of the cartesian gradient     ...    0.0822852758
RMS gradient                       ...    0.0274284253
MAX gradient                       ...    0.0822466175

-------
TIMINGS
-------

Total SCF gradient time            ...        0.366 sec

One electron gradient       ....       0.004 sec  (  1.0%)
Prescreening matrices       ....       0.031 sec  (  8.4%)
RI-J Coulomb gradient       ....       0.073 sec  ( 20.0%)
XC gradient                 ....       0.032 sec  (  8.8%)
------------------------------------------------------------------------------
                         ORCA GEOMETRY RELAXATION STEP
------------------------------------------------------------------------------

Reading the OPT-File                    .... done
Getting information on internals        .... done
Copying old internal coords+grads       .... done
Making the new internal coordinates     .... (new redundants).... done
Validating the new internal coordinates .... (new redundants).... done
Calculating the B-matrix                .... done
Calculating the G,G- and P matrices     .... done
Transforming gradient to internals      .... done
Projecting the internal gradient        .... done
Number of atoms                         ....   3
Number of internal coordinates          ....   3
Current Energy                          ....  -399.470165844 Eh
Current gradient norm                   ....     0.082285276 Eh/bohr
Maximum allowed component of the step   ....  0.300
Current trust radius                    ....  0.300
Evaluating the initial hessian          ....  (Almloef) done
Projecting the Hessian                  .... done
Forming the augmented Hessian           .... done
Diagonalizing the augmented Hessian     .... done
Last element of RFO vector              ....  0.987014369
Lowest eigenvalues of augmented Hessian:
 -0.009436247  0.347469517  0.386230484
Length of the computed step             ....  0.162745338
The final length of the internal step   ....  0.162745338
Converting the step to cartesian space:
 Initial RMS(Int)=    0.0939610646
Transforming coordinates:
 Iter   0:  RMS(Cart)=    0.0654255706 RMS(Int)=    0.0948353543
 Iter   1:  RMS(Cart)=    0.0036164065 RMS(Int)=    0.0057842551
 Iter   2:  RMS(Cart)=    0.0001459552 RMS(Int)=    0.0003196337
 Iter   3:  RMS(Cart)=    0.0000205778 RMS(Int)=    0.0000280123
 Iter   4:  RMS(Cart)=    0.0000008148 RMS(Int)=    0.0000021270
 Iter   5:  RMS(Cart)=    0.0000001109 RMS(Int)=    0.0000001307
 Iter   6:  RMS(Cart)=    0.0000000055 RMS(Int)=    0.0000000133
done
Storing new coordinates                 .... done

                                .--------------------.
          ----------------------|Geometry convergence|-------------------------
          Item                value                   Tolerance       Converged
          ---------------------------------------------------------------------
          RMS gradient        0.0335117118            0.0001000000      NO
          MAX gradient        0.0524294922            0.0003000000      NO
          RMS step            0.0939610646            0.0020000000      NO
          MAX step            0.1500802738            0.0040000000      NO
          ........................................................
          Max(Bonds)      0.0236      Max(Angles)    8.60
          Max(Dihed)        0.00      Max(Improp)    0.00
          ---------------------------------------------------------------------

The optimization has not yet converged - more geometry cycles are needed


    ---------------------------------------------------------------------------
                         Redundant Internal Coordinates
                            (Angstroem and degrees)

        Definition                    Value    dE/dq     Step     New-Value
    ----------------------------------------------------------------------------
     1. B(H   1,S   0)                1.3409 -0.017613  0.0236    1.3645   
     2. B(H   2,S   0)                1.3409 -0.017608  0.0235    1.3645   
     3. A(H   1,S   0,H   2)           92.65  0.052429   -8.60     84.05   
    ----------------------------------------------------------------------------

         *************************************************************
         *                GEOMETRY OPTIMIZATION CYCLE   2            *
         *************************************************************
---------------------------------
CARTESIAN COORDINATES (ANGSTROEM)
---------------------------------
  S     -0.001612    0.675720   -0.000000
  H      0.914295   -0.335685   -0.000000
  H     -0.912683   -0.340035    0.000000

----------------------------
CARTESIAN COORDINATES (A.U.)
----------------------------
  NO LB      ZA    FRAG     MASS         X           Y           Z
   0 S    16.0000    0    32.060   -0.003046    1.276925   -0.000000
   1 H     1.0000    0     1.008    1.727766   -0.634352   -0.000000
   2 H     1.0000    0     1.008   -1.724720   -0.642573    0.000000

--------------------------------
INTERNAL COORDINATES (ANGSTROEM)
--------------------------------
 S      0   0   0     0.000000000000     0.00000000     0.00000000
 H      1   0   0     1.364486673049     0.00000000     0.00000000
 H      1   2   0     1.364480689182    84.05350286     0.00000000

---------------------------
INTERNAL COORDINATES (A.U.)
---------------------------
 S      0   0   0     0.000000000000     0.00000000     0.00000000
 H      1   0   0     2.578506125447     0.00000000     0.00000000
 H      1   2   0     2.578494817579    84.05350286     0.00000000



           ************************************************************
           *        Program running with 24 parallel MPI-processes    *
           *              working on a common directory               *
           ************************************************************
 One Electron integrals                  ... done
 Pre-screening matrix                    ... done


           ************************************************************
           *        Program running with 24 parallel MPI-processes    *
           *              working on a common directory               *
           ************************************************************

Diagonalization of the overlap matrix:
Smallest eigenvalue                        ... 1.804e-04
Time for diagonalization                   ...    0.004 sec
Threshold for overlap eigenvalues          ... 1.000e-08
Number of eigenvalues below threshold      ... 0
Time for construction of square roots      ...    0.002 sec
Total time needed                          ...    0.005 sec

-------------------
DFT GRID GENERATION
-------------------

General Integration Accuracy     IntAcc      ...  4.340
Radial Grid Type                 RadialGrid  ... Gauss-Chebyshev
Angular Grid (max. acc.)         AngularGrid ... Lebedev-110
Angular grid pruning method      GridPruning ... 3 (G Style)
Weight generation scheme         WeightScheme... Becke
Basis function cutoff            BFCut       ...    1.0000e-11
Integration weight cutoff        WCut        ...    1.0000e-14
Grids for H and He will be reduced by one unit

# of grid points (after initial pruning)     ...   3394 (   0.0 sec)
# of grid points (after weights+screening)   ...   3338 (   0.0 sec)
nearest neighbour list constructed           ...    0.0 sec
Grid point re-assignment to atoms done       ...    0.0 sec
Grid point division into batches done        ...    0.0 sec
Reduced shell lists constructed in    0.0 sec

Total number of grid points                  ...     3338
Total number of batches                      ...       54
Average number of points per batch           ...       61
Average number of grid points per atom       ...     1113
Average number of shells per batch           ...    22.50 (64.29%)
Average number of basis functions per batch  ...    63.50 (62.87%)
Average number of large shells per batch     ...    18.00 (80.00%)
Average number of large basis fcns per batch ...    52.50 (82.68%)
Maximum spatial batch extension              ...  22.78, 15.66, 22.78 au
Average spatial batch extension              ...   0.99,  0.84,  1.06 au

Time for grid setup =    0.010 sec

--------------
SCF ITERATIONS
--------------
ITER       Energy         Delta-E        Max-DP      RMS-DP      [F,P]     Damp
               ***  Starting incremental Fock matrix formation  ***
  0   -399.4248320729   0.000000000000 0.00265059  0.00010606  0.0732669 0.7000
                      *** Initiating the SOSCF procedure ***
                      *** Re-Reading the Fockian *** 
                      *** Removing any level shift *** 
ITER      Energy       Delta-E        Grad      Rot      Max-DP    RMS-DP
  1   -399.42514331  -0.0003112332  0.001637  0.001637  0.008714  0.000324
               *** Restarting incremental Fock matrix formation ***
  2   -399.42592235  -0.0007790481  0.000928  0.001564  0.003212  0.000096
  3   -399.42593432  -0.0000119644  0.000703  0.001181  0.001206  0.000030
  4   -399.42593832  -0.0000039990  0.000275  0.000416  0.000429  0.000015
  5   -399.42593893  -0.0000006163  0.000065  0.000094  0.000162  0.000004
  6   -399.42593898  -0.0000000483  0.000028  0.000034  0.000051  0.000002
  7   -399.42593901  -0.0000000327  0.000003  0.000005  0.000009  0.000000
                  ***Gradient check signals convergence***
              ***Rediagonalizing the Fockian in SOSCF/NRSCF***

               *****************************************************
               *                     SUCCESS                       *
               *           SCF CONVERGED AFTER   8 CYCLES          *
               *****************************************************

Setting up the final grid:

General Integration Accuracy     IntAcc      ...  4.670
Radial Grid Type                 RadialGrid  ... Gauss-Chebyshev
Angular Grid (max. acc.)         AngularGrid ... Lebedev-302
Angular grid pruning method      GridPruning ... 3 (G Style)
Weight generation scheme         WeightScheme... Becke
Basis function cutoff            BFCut       ...    1.0000e-11
Integration weight cutoff        WCut        ...    1.0000e-14
Grids for H and He will be reduced by one unit

# of grid points (after initial pruning)     ...  13634 (   0.0 sec)
# of grid points (after weights+screening)   ...  13535 (   0.0 sec)
nearest neighbour list constructed           ...    0.0 sec
Grid point re-assignment to atoms done       ...    0.0 sec
Grid point division into batches done        ...    0.0 sec
Reduced shell lists constructed in    0.0 sec

Total number of grid points                  ...    13535
Total number of batches                      ...      213
Average number of points per batch           ...       63
Average number of grid points per atom       ...     4512
Average number of shells per batch           ...    16.40 (46.86%)
Average number of basis functions per batch  ...    44.60 (44.16%)
Average number of large shells per batch     ...    11.40 (69.51%)
Average number of large basis fcns per batch ...    30.20 (67.71%)
Maximum spatial batch extension              ...  19.55, 13.06, 25.31 au
Average spatial batch extension              ...   0.56,  0.48,  0.62 au

Final grid set up in    0.1 sec
Final integration                            ... done (   0.1 sec)
Change in XC energy                          ...    -0.041901120
Integrated number of electrons               ...    17.999992544
Previous integrated no of electrons          ...    17.998589164
Total Energy       :         -399.46784011 Eh          -10870.07255 eV
  Last Energy change         ...    2.2924e-08  Tolerance :   1.0000e-08
  Last MAX-Density change    ...    8.7945e-07  Tolerance :   1.0000e-07
             **** THE GBW FILE WAS UPDATED (18_H2S.gbw) ****
             **** DENSITY FILE WAS UPDATED (18_H2S.scfp) ****
             **** ENERGY FILE WAS UPDATED (18_H2S.en.tmp) ****
             **** THE GBW FILE WAS UPDATED (18_H2S.gbw) ****
             **** DENSITY FILE WAS UPDATED (18_H2S.scfp) ****
Total SCF time: 0 days 0 hours 0 min 1 sec 


-------------------------------------------------------------------------------
                          DFT DISPERSION CORRECTION                            
                                                                               
                              DFTD3 V3.1  Rev 1                                
                          USING Becke-Johnson damping                          
-------------------------------------------------------------------------------
-------------------------   ----------------
Dispersion correction           -0.000162447
-------------------------   ----------------


-------------------------   --------------------
FINAL SINGLE POINT ENERGY      -399.468002558259
-------------------------   --------------------



           ************************************************************
           *        Program running with 24 parallel MPI-processes    *
           *              working on a common directory               *
           ************************************************************
------------------------------------------------------------------------------
                         ORCA SCF GRADIENT CALCULATION
------------------------------------------------------------------------------

Gradient of the Kohn-Sham DFT energy:
Kohn-Sham wavefunction type      ... RKS
Hartree-Fock exchange scaling    ...    0.000
Number of operators              ...    1
Number of atoms                  ...    3
Basis set dimensions             ...  101
Integral neglect threshold       ... 2.5e-11
Integral primitive cutoff        ... 2.5e-12

Nuclear repulsion gradient       ... done
One Electron Gradient            ... done
Pre-screening matrix             ... done
RI-J gradient                    ... done
Exchange-correlation gradient    ... done
Dispersion correction            ... done

------------------
CARTESIAN GRADIENT
------------------

   1   S   :    0.000140709   -0.056176977   -0.000000012
   2   H   :    0.000631724   -0.014928051    0.000000012
   3   H   :   -0.000562403   -0.014925533    0.000000004

Difference to translation invariance:
           :    0.0002100306   -0.0860305616    0.0000000041

Norm of the cartesian gradient     ...    0.0600183823
RMS gradient                       ...    0.0200061274
MAX gradient                       ...    0.0561769774

-------
TIMINGS
-------

Total SCF gradient time            ...        0.364 sec

One electron gradient       ....       0.010 sec  (  2.7%)
Prescreening matrices       ....       0.031 sec  (  8.6%)
RI-J Coulomb gradient       ....       0.074 sec  ( 20.2%)
XC gradient                 ....       0.031 sec  (  8.5%)
------------------------------------------------------------------------------
                         ORCA GEOMETRY RELAXATION STEP
------------------------------------------------------------------------------

Reading the OPT-File                    .... done
Getting information on internals        .... done
Copying old internal coords+grads       .... done
Making the new internal coordinates     .... (new redundants).... done
Validating the new internal coordinates .... (new redundants).... done
Calculating the B-matrix                .... done
Calculating the G,G- and P matrices     .... done
Transforming gradient to internals      .... done
Projecting the internal gradient        .... done
Number of atoms                         ....   3
Number of internal coordinates          ....   3
Current Energy                          ....  -399.468002558 Eh
Current gradient norm                   ....     0.060018382 Eh/bohr
Maximum allowed component of the step   ....  0.300
Current trust radius                    ....  0.300
Updating the Hessian (BFGS)             .... done
Forming the augmented Hessian           .... done
Diagonalizing the augmented Hessian     .... done
Last element of RFO vector              ....  0.988623744
Lowest eigenvalues of augmented Hessian:
 -0.004329101  0.186572833  0.378629221
Length of the computed step             ....  0.152140538
The final length of the internal step   ....  0.152140538
Converting the step to cartesian space:
 Initial RMS(Int)=    0.0878383807
Transforming coordinates:
 Iter   0:  RMS(Cart)=    0.0624472003 RMS(Int)=    0.0887218937
 Iter   1:  RMS(Cart)=    0.0031140618 RMS(Int)=    0.0048973188
 Iter   2:  RMS(Cart)=    0.0001119946 RMS(Int)=    0.0002544091
 Iter   3:  RMS(Cart)=    0.0000146310 RMS(Int)=    0.0000190323
 Iter   4:  RMS(Cart)=    0.0000005281 RMS(Int)=    0.0000014114
 Iter   5:  RMS(Cart)=    0.0000000642 RMS(Int)=    0.0000000708
done
Storing new coordinates                 .... done

                                .--------------------.
          ----------------------|Geometry convergence|-------------------------
          Item                value                   Tolerance       Converged
          ---------------------------------------------------------------------
          Energy change       0.0021632861            0.0000050000      NO
          RMS gradient        0.0164483092            0.0001000000      NO
          MAX gradient        0.0248796985            0.0003000000      NO
          RMS step            0.0878383807            0.0020000000      NO
          MAX step            0.1363589803            0.0040000000      NO
          ........................................................
          Max(Bonds)      0.0253      Max(Angles)    7.81
          Max(Dihed)        0.00      Max(Improp)    0.00
          ---------------------------------------------------------------------

The optimization has not yet converged - more geometry cycles are needed


    ---------------------------------------------------------------------------
                         Redundant Internal Coordinates
                            (Angstroem and degrees)

        Definition                    Value    dE/dq     Step     New-Value
    ----------------------------------------------------------------------------
     1. B(H   1,S   0)                1.3645 -0.009816  0.0253    1.3897   
     2. B(H   2,S   0)                1.3645 -0.009813  0.0252    1.3897   
     3. A(H   1,S   0,H   2)           84.05  0.024880   -7.81     76.24   
    ----------------------------------------------------------------------------

         *************************************************************
         *                GEOMETRY OPTIMIZATION CYCLE   3            *
         *************************************************************
---------------------------------
CARTESIAN COORDINATES (ANGSTROEM)
---------------------------------
  S     -0.001742    0.728881   -0.000000
  H      0.858772   -0.362399    0.000000
  H     -0.857030   -0.366481    0.000000

----------------------------
CARTESIAN COORDINATES (A.U.)
----------------------------
  NO LB      ZA    FRAG     MASS         X           Y           Z
   0 S    16.0000    0    32.060   -0.003292    1.377385   -0.000000
   1 H     1.0000    0     1.008    1.622843   -0.684835    0.000000
   2 H     1.0000    0     1.008   -1.619551   -0.692549    0.000000

--------------------------------
INTERNAL COORDINATES (ANGSTROEM)
--------------------------------
 S      0   0   0     0.000000000000     0.00000000     0.00000000
 H      1   0   0     1.389739361678     0.00000000     0.00000000
 H      1   2   0     1.389724780675    76.24070873     0.00000000

---------------------------
INTERNAL COORDINATES (A.U.)
---------------------------
 S      0   0   0     0.000000000000     0.00000000     0.00000000
 H      1   0   0     2.626226791101     0.00000000     0.00000000
 H      1   2   0     2.626199236999    76.24070873     0.00000000



           ************************************************************
           *        Program running with 24 parallel MPI-processes    *
           *              working on a common directory               *
           ************************************************************
 One Electron integrals                  ... done
 Pre-screening matrix                    ... done


           ************************************************************
           *        Program running with 24 parallel MPI-processes    *
           *              working on a common directory               *
           ************************************************************

Diagonalization of the overlap matrix:
Smallest eigenvalue                        ... 2.025e-04
Time for diagonalization                   ...    0.004 sec
Threshold for overlap eigenvalues          ... 1.000e-08
Number of eigenvalues below threshold      ... 0
Time for construction of square roots      ...    0.001 sec
Total time needed                          ...    0.005 sec

-------------------
DFT GRID GENERATION
-------------------

General Integration Accuracy     IntAcc      ...  4.340
Radial Grid Type                 RadialGrid  ... Gauss-Chebyshev
Angular Grid (max. acc.)         AngularGrid ... Lebedev-110
Angular grid pruning method      GridPruning ... 3 (G Style)
Weight generation scheme         WeightScheme... Becke
Basis function cutoff            BFCut       ...    1.0000e-11
Integration weight cutoff        WCut        ...    1.0000e-14
Grids for H and He will be reduced by one unit

# of grid points (after initial pruning)     ...   3394 (   0.0 sec)
# of grid points (after weights+screening)   ...   3357 (   0.0 sec)
nearest neighbour list constructed           ...    0.0 sec
Grid point re-assignment to atoms done       ...    0.0 sec
Grid point division into batches done        ...    0.0 sec
Reduced shell lists constructed in    0.0 sec

Total number of grid points                  ...     3357
Total number of batches                      ...       54
Average number of points per batch           ...       62
Average number of grid points per atom       ...     1119
Average number of shells per batch           ...    22.50 (64.29%)
Average number of basis functions per batch  ...    63.50 (62.87%)
Average number of large shells per batch     ...    18.00 (80.00%)
Average number of large basis fcns per batch ...    52.50 (82.68%)
Maximum spatial batch extension              ...  22.78, 15.53, 22.78 au
Average spatial batch extension              ...   1.09,  0.84,  1.06 au

Time for grid setup =    0.011 sec

--------------
SCF ITERATIONS
--------------
ITER       Energy         Delta-E        Max-DP      RMS-DP      [F,P]     Damp
               ***  Starting incremental Fock matrix formation  ***
  0   -399.4186722073   0.000000000000 0.00249793  0.00010820  0.0524105 0.7000
                      *** Initiating the SOSCF procedure ***
                      *** Re-Reading the Fockian *** 
                      *** Removing any level shift *** 
ITER      Energy       Delta-E        Grad      Rot      Max-DP    RMS-DP
  1   -399.41897355  -0.0003013457  0.001763  0.001763  0.008038  0.000323
               *** Restarting incremental Fock matrix formation ***
  2   -399.41972038  -0.0007468294  0.000975  0.001535  0.003084  0.000098
  3   -399.41973168  -0.0000113015  0.000874  0.001491  0.001164  0.000032
  4   -399.41973858  -0.0000068912  0.000309  0.000555  0.000590  0.000016
  5   -399.41973906  -0.0000004880  0.000118  0.000141  0.000227  0.000006
  6   -399.41973929  -0.0000002282  0.000022  0.000029  0.000040  0.000002
  7   -399.41973932  -0.0000000320  0.000005  0.000006  0.000010  0.000000
                  ***Gradient check signals convergence***
              ***Rediagonalizing the Fockian in SOSCF/NRSCF***

               *****************************************************
               *                     SUCCESS                       *
               *           SCF CONVERGED AFTER   8 CYCLES          *
               *****************************************************

Setting up the final grid:

General Integration Accuracy     IntAcc      ...  4.670
Radial Grid Type                 RadialGrid  ... Gauss-Chebyshev
Angular Grid (max. acc.)         AngularGrid ... Lebedev-302
Angular grid pruning method      GridPruning ... 3 (G Style)
Weight generation scheme         WeightScheme... Becke
Basis function cutoff            BFCut       ...    1.0000e-11
Integration weight cutoff        WCut        ...    1.0000e-14
Grids for H and He will be reduced by one unit

# of grid points (after initial pruning)     ...  13634 (   0.0 sec)
# of grid points (after weights+screening)   ...  13547 (   0.0 sec)
nearest neighbour list constructed           ...    0.0 sec
Grid point re-assignment to atoms done       ...    0.0 sec
Grid point division into batches done        ...    0.0 sec
Reduced shell lists constructed in    0.0 sec

Total number of grid points                  ...    13547
Total number of batches                      ...      213
Average number of points per batch           ...       63
Average number of grid points per atom       ...     4516
Average number of shells per batch           ...    16.20 (46.29%)
Average number of basis functions per batch  ...    44.40 (43.96%)
Average number of large shells per batch     ...    11.00 (67.90%)
Average number of large basis fcns per batch ...    29.40 (66.22%)
Maximum spatial batch extension              ...  19.55, 13.54, 25.31 au
Average spatial batch extension              ...   0.57,  0.48,  0.63 au

Final grid set up in    0.1 sec
Final integration                            ... done (   0.0 sec)
Change in XC energy                          ...    -0.041933282
Integrated number of electrons               ...    17.999997660
Previous integrated no of electrons          ...    17.998656898
Total Energy       :         -399.46167258 Eh          -10869.90473 eV
  Last Energy change         ...    2.5383e-08  Tolerance :   1.0000e-08
  Last MAX-Density change    ...    8.1031e-07  Tolerance :   1.0000e-07
             **** THE GBW FILE WAS UPDATED (18_H2S.gbw) ****
             **** DENSITY FILE WAS UPDATED (18_H2S.scfp) ****
             **** ENERGY FILE WAS UPDATED (18_H2S.en.tmp) ****
             **** THE GBW FILE WAS UPDATED (18_H2S.gbw) ****
             **** DENSITY FILE WAS UPDATED (18_H2S.scfp) ****
Total SCF time: 0 days 0 hours 0 min 1 sec 


-------------------------------------------------------------------------------
                          DFT DISPERSION CORRECTION                            
                                                                               
                              DFTD3 V3.1  Rev 1                                
                          USING Becke-Johnson damping                          
-------------------------------------------------------------------------------
-------------------------   ----------------
Dispersion correction           -0.000162549
-------------------------   ----------------


-------------------------   --------------------
FINAL SINGLE POINT ENERGY      -399.461835128849
-------------------------   --------------------



           ************************************************************
           *        Program running with 24 parallel MPI-processes    *
           *              working on a common directory               *
           ************************************************************
------------------------------------------------------------------------------
                         ORCA SCF GRADIENT CALCULATION
------------------------------------------------------------------------------

Gradient of the Kohn-Sham DFT energy:
Kohn-Sham wavefunction type      ... RKS
Hartree-Fock exchange scaling    ...    0.000
Number of operators              ...    1
Number of atoms                  ...    3
Basis set dimensions             ...  101
Integral neglect threshold       ... 2.5e-11
Integral primitive cutoff        ... 2.5e-12

Nuclear repulsion gradient       ... done
One Electron Gradient            ... done
Pre-screening matrix             ... done
RI-J gradient                    ... done
Exchange-correlation gradient    ... done
Dispersion correction            ... done

------------------
CARTESIAN GRADIENT
------------------

   1   S   :    0.000073414   -0.033927133   -0.000000004
   2   H   :   -0.001741792   -0.026844073    0.000000003
   3   H   :    0.001878590   -0.026838777    0.000000010

Difference to translation invariance:
           :    0.0002102123   -0.0876099825    0.0000000086

Norm of the cartesian gradient     ...    0.0509759048
RMS gradient                       ...    0.0169919683
MAX gradient                       ...    0.0339271332

-------
TIMINGS
-------

Total SCF gradient time            ...        0.376 sec

One electron gradient       ....       0.022 sec  (  5.9%)
Prescreening matrices       ....       0.031 sec  (  8.1%)
RI-J Coulomb gradient       ....       0.073 sec  ( 19.5%)
XC gradient                 ....       0.032 sec  (  8.4%)
------------------------------------------------------------------------------
                         ORCA GEOMETRY RELAXATION STEP
------------------------------------------------------------------------------

Reading the OPT-File                    .... done
Getting information on internals        .... done
Copying old internal coords+grads       .... done
Making the new internal coordinates     .... (new redundants).... done
Validating the new internal coordinates .... (new redundants).... done
Calculating the B-matrix                .... done
Calculating the G,G- and P matrices     .... done
Transforming gradient to internals      .... done
Projecting the internal gradient        .... done
Number of atoms                         ....   3
Number of internal coordinates          ....   3
Current Energy                          ....  -399.461835129 Eh
Current gradient norm                   ....     0.050975905 Eh/bohr
Maximum allowed component of the step   ....  0.300
Current trust radius                    ....  0.300
Updating the Hessian (BFGS)             .... done
Forming the augmented Hessian           .... done
Diagonalizing the augmented Hessian     .... done
Last element of RFO vector              ....  0.999873783
Lowest eigenvalues of augmented Hessian:
 -0.000062053  0.173129086  0.380218002
Length of the computed step             ....  0.015889673
The final length of the internal step   ....  0.015889673
Converting the step to cartesian space:
 Initial RMS(Int)=    0.0091739068
Transforming coordinates:
 Iter   0:  RMS(Cart)=    0.0035889769 RMS(Int)=    0.0091779318
 Iter   1:  RMS(Cart)=    0.0000158463 RMS(Int)=    0.0000174575
 Iter   2:  RMS(Cart)=    0.0000000617 RMS(Int)=    0.0000000900
done
Storing new coordinates                 .... done

                                .--------------------.
          ----------------------|Geometry convergence|-------------------------
          Item                value                   Tolerance       Converged
          ---------------------------------------------------------------------
          Energy change       0.0061674294            0.0000050000      NO
          RMS gradient        0.0024301164            0.0001000000      NO
          MAX gradient        0.0029790234            0.0003000000      NO
          RMS step            0.0091739068            0.0020000000      NO
          MAX step            0.0103427740            0.0040000000      NO
          ........................................................
          Max(Bonds)      0.0055      Max(Angles)    0.36
          Max(Dihed)        0.00      Max(Improp)    0.00
          ---------------------------------------------------------------------

The optimization has not yet converged - more geometry cycles are needed


    ---------------------------------------------------------------------------
                         Redundant Internal Coordinates
                            (Angstroem and degrees)

        Definition                    Value    dE/dq     Step     New-Value
    ----------------------------------------------------------------------------
     1. B(H   1,S   0)                1.3897 -0.002972  0.0055    1.3952   
     2. B(H   2,S   0)                1.3897 -0.002979  0.0055    1.3952   
     3. A(H   1,S   0,H   2)           76.24  0.000089   -0.36     75.88   
    ----------------------------------------------------------------------------

         *************************************************************
         *                GEOMETRY OPTIMIZATION CYCLE   4            *
         *************************************************************
---------------------------------
CARTESIAN COORDINATES (ANGSTROEM)
---------------------------------
  S     -0.001750    0.733536   -0.000000
  H      0.858723   -0.364725    0.000000
  H     -0.856974   -0.368811    0.000000

----------------------------
CARTESIAN COORDINATES (A.U.)
----------------------------
  NO LB      ZA    FRAG     MASS         X           Y           Z
   0 S    16.0000    0    32.060   -0.003306    1.386182   -0.000000
   1 H     1.0000    0     1.008    1.622752   -0.689230    0.000000
   2 H     1.0000    0     1.008   -1.619445   -0.696952    0.000000

--------------------------------
INTERNAL COORDINATES (ANGSTROEM)
--------------------------------
 S      0   0   0     0.000000000000     0.00000000     0.00000000
 H      1   0   0     1.395202829134     0.00000000     0.00000000
 H      1   2   0     1.395197941083    75.88328998     0.00000000

---------------------------
INTERNAL COORDINATES (A.U.)
---------------------------
 S      0   0   0     0.000000000000     0.00000000     0.00000000
 H      1   0   0     2.636551248335     0.00000000     0.00000000
 H      1   2   0     2.636542011257    75.88328998     0.00000000



           ************************************************************
           *        Program running with 24 parallel MPI-processes    *
           *              working on a common directory               *
           ************************************************************
 One Electron integrals                  ... done
 Pre-screening matrix                    ... done


           ************************************************************
           *        Program running with 24 parallel MPI-processes    *
           *              working on a common directory               *
           ************************************************************

Diagonalization of the overlap matrix:
Smallest eigenvalue                        ... 2.075e-04
Time for diagonalization                   ...    0.003 sec
Threshold for overlap eigenvalues          ... 1.000e-08
Number of eigenvalues below threshold      ... 0
Time for construction of square roots      ...    0.001 sec
Total time needed                          ...    0.005 sec

-------------------
DFT GRID GENERATION
-------------------

General Integration Accuracy     IntAcc      ...  4.340
Radial Grid Type                 RadialGrid  ... Gauss-Chebyshev
Angular Grid (max. acc.)         AngularGrid ... Lebedev-110
Angular grid pruning method      GridPruning ... 3 (G Style)
Weight generation scheme         WeightScheme... Becke
Basis function cutoff            BFCut       ...    1.0000e-11
Integration weight cutoff        WCut        ...    1.0000e-14
Grids for H and He will be reduced by one unit

# of grid points (after initial pruning)     ...   3394 (   0.0 sec)
# of grid points (after weights+screening)   ...   3359 (   0.0 sec)
nearest neighbour list constructed           ...    0.0 sec
Grid point re-assignment to atoms done       ...    0.0 sec
Grid point division into batches done        ...    0.0 sec
Reduced shell lists constructed in    0.0 sec

Total number of grid points                  ...     3359
Total number of batches                      ...       54
Average number of points per batch           ...       62
Average number of grid points per atom       ...     1120
Average number of shells per batch           ...    22.50 (64.29%)
Average number of basis functions per batch  ...    63.50 (62.87%)
Average number of large shells per batch     ...    18.00 (80.00%)
Average number of large basis fcns per batch ...    52.50 (82.68%)
Maximum spatial batch extension              ...  22.78, 15.53, 22.78 au
Average spatial batch extension              ...   1.09,  0.84,  1.06 au

Time for grid setup =    0.010 sec

--------------
SCF ITERATIONS
--------------
ITER       Energy         Delta-E        Max-DP      RMS-DP      [F,P]     Damp
               ***  Starting incremental Fock matrix formation  ***
                      *** Initiating the SOSCF procedure ***
                      *** Re-Reading the Fockian *** 
                      *** Removing any level shift *** 
ITER      Energy       Delta-E        Grad      Rot      Max-DP    RMS-DP
  0   -399.41904530 -399.4190452996  0.001264  0.001264  0.001499  0.000045
               *** Restarting incremental Fock matrix formation ***
  1   -399.41905495  -0.0000096463  0.000195  0.000540  0.000468  0.000018
  2   -399.41905536  -0.0000004185  0.000175  0.000302  0.000170  0.000006
  3   -399.41905565  -0.0000002836  0.000071  0.000132  0.000162  0.000003
  4   -399.41905568  -0.0000000308  0.000023  0.000026  0.000041  0.000001
  5   -399.41905566   0.0000000144  0.000006  0.000010  0.000007  0.000000
                  ***Gradient check signals convergence***
              ***Rediagonalizing the Fockian in SOSCF/NRSCF***

               *****************************************************
               *                     SUCCESS                       *
               *           SCF CONVERGED AFTER   6 CYCLES          *
               *****************************************************

Setting up the final grid:

General Integration Accuracy     IntAcc      ...  4.670
Radial Grid Type                 RadialGrid  ... Gauss-Chebyshev
Angular Grid (max. acc.)         AngularGrid ... Lebedev-302
Angular grid pruning method      GridPruning ... 3 (G Style)
Weight generation scheme         WeightScheme... Becke
Basis function cutoff            BFCut       ...    1.0000e-11
Integration weight cutoff        WCut        ...    1.0000e-14
Grids for H and He will be reduced by one unit

# of grid points (after initial pruning)     ...  13634 (   0.0 sec)
# of grid points (after weights+screening)   ...  13550 (   0.0 sec)
nearest neighbour list constructed           ...    0.0 sec
Grid point re-assignment to atoms done       ...    0.0 sec
Grid point division into batches done        ...    0.0 sec
Reduced shell lists constructed in    0.0 sec

Total number of grid points                  ...    13550
Total number of batches                      ...      213
Average number of points per batch           ...       63
Average number of grid points per atom       ...     4517
Average number of shells per batch           ...    16.20 (46.29%)
Average number of basis functions per batch  ...    44.40 (43.96%)
Average number of large shells per batch     ...    11.00 (67.90%)
Average number of large basis fcns per batch ...    29.40 (66.22%)
Maximum spatial batch extension              ...  19.55, 13.71, 25.31 au
Average spatial batch extension              ...   0.57,  0.48,  0.63 au

Final grid set up in    0.1 sec
Final integration                            ... done (   0.0 sec)
Change in XC energy                          ...    -0.041911562
Integrated number of electrons               ...    17.999997763
Previous integrated no of electrons          ...    17.998663083
Total Energy       :         -399.46096724 Eh          -10869.88553 eV
  Last Energy change         ...   -1.2782e-08  Tolerance :   1.0000e-08
  Last MAX-Density change    ...    2.5903e-06  Tolerance :   1.0000e-07
             **** THE GBW FILE WAS UPDATED (18_H2S.gbw) ****
             **** DENSITY FILE WAS UPDATED (18_H2S.scfp) ****
             **** ENERGY FILE WAS UPDATED (18_H2S.en.tmp) ****
             **** THE GBW FILE WAS UPDATED (18_H2S.gbw) ****
             **** DENSITY FILE WAS UPDATED (18_H2S.scfp) ****
Total SCF time: 0 days 0 hours 0 min 0 sec 


-------------------------------------------------------------------------------
                          DFT DISPERSION CORRECTION                            
                                                                               
                              DFTD3 V3.1  Rev 1                                
                          USING Becke-Johnson damping                          
-------------------------------------------------------------------------------
-------------------------   ----------------
Dispersion correction           -0.000162559
-------------------------   ----------------


-------------------------   --------------------
FINAL SINGLE POINT ENERGY      -399.461129797977
-------------------------   --------------------



           ************************************************************
           *        Program running with 24 parallel MPI-processes    *
           *              working on a common directory               *
           ************************************************************
[...]
  69   0.0000       2.159415        58.7607 
  70   0.0000       2.178194        59.2717 
  71   0.0000       2.273252        61.8583 
  72   0.0000       2.343231        63.7626 
  73   0.0000       2.371470        64.5310 
  74   0.0000       2.423152        65.9373 
  75   0.0000       2.670322        72.6632 
  76   0.0000       2.765318        75.2481 
  77   0.0000       3.132766        85.2469 
  78   0.0000       3.322538        90.4108 
  79   0.0000       3.668554        99.8264 
  80   0.0000       3.784734       102.9878 
  81   0.0000       3.791212       103.1641 
  82   0.0000       3.913225       106.4843 
  83   0.0000       4.029909       109.6594 
  84   0.0000       4.103063       111.6500 
  85   0.0000       4.134871       112.5156 
  86   0.0000       4.183416       113.8365 
  87   0.0000       4.195720       114.1714 
  88   0.0000       4.290248       116.7436 
  89   0.0000       4.293207       116.8241 
  90   0.0000       4.393369       119.5497 
  91   0.0000       4.441644       120.8633 
  92   0.0000       4.625715       125.8721 
  93   0.0000       4.690631       127.6385 
  94   0.0000       5.172022       140.7379 
  95   0.0000       6.274613       170.7409 
  96   0.0000       6.871148       186.9734 
  97   0.0000       6.897596       187.6931 
  98   0.0000       6.931352       188.6117 
  99   0.0000       7.814548       212.6447 
 100   0.0000       7.827573       212.9991 

                    ********************************
                    * MULLIKEN POPULATION ANALYSIS *
                    ********************************

-----------------------
MULLIKEN ATOMIC CHARGES
-----------------------
   0 S :   -0.168908
   1 H :    0.084254
   2 H :    0.084654
Sum of atomic charges:    0.0000000

--------------------------------
MULLIKEN REDUCED ORBITAL CHARGES
--------------------------------
  0 S s       :     5.863888  s :     5.863888
      pz      :     3.916924  p :    10.223682
      px      :     3.118980
      py      :     3.187778
      dz2     :     0.011349  d :     0.077038
      dxz     :     0.000000
      dyz     :     0.001944
      dx2y2   :     0.005253
      dxy     :     0.058491
      f0      :     0.000384  f :     0.004300
      f+1     :     0.000865
      f-1     :     0.000969
      f+2     :    -0.000018
      f-2     :    -0.000000
      f+3     :     0.002240
      f-3     :    -0.000140
  1 H s       :     0.850135  s :     0.850135
      pz      :     0.033665  p :     0.055505
      px      :     0.006081
      py      :     0.015758
      dz2     :     0.000346  d :     0.010107
      dxz     :     0.002989
      dyz     :     0.003786
      dx2y2   :     0.000882
      dxy     :     0.002104
  2 H s       :     0.849948  s :     0.849948
      pz      :     0.033593  p :     0.055314
      px      :     0.006065
      py      :     0.015656
      dz2     :     0.000348  d :     0.010083
      dxz     :     0.002934
      dyz     :     0.003798
      dx2y2   :     0.000917
      dxy     :     0.002086


                     *******************************
                     * LOEWDIN POPULATION ANALYSIS *
                     *******************************

----------------------
LOEWDIN ATOMIC CHARGES
----------------------
   0 S :    1.211956
   1 H :   -0.605971
   2 H :   -0.605985

-------------------------------
LOEWDIN REDUCED ORBITAL CHARGES
-------------------------------
  0 S s       :     5.108204  s :     5.108204
      pz      :     3.440206  p :     9.513235
      px      :     2.933004
      py      :     3.140025
      dz2     :     0.026856  d :     0.128090
      dxz     :     0.000000
      dyz     :     0.005935
      dx2y2   :     0.001805
      dxy     :     0.093494
      f0      :     0.000261  f :     0.038515
      f+1     :     0.004758
      f-1     :     0.006802
      f+2     :     0.000042
      f-2     :     0.000000
      f+3     :     0.021936
      f-3     :     0.004716
  1 H s       :     0.750756  s :     0.750756
      pz      :     0.162399  p :     0.536379
      px      :     0.166872
      py      :     0.207108
      dz2     :     0.025888  d :     0.318836
      dxz     :     0.040973
      dyz     :     0.073421
      dx2y2   :     0.122037
      dxy     :     0.056517
  2 H s       :     0.750791  s :     0.750791
      pz      :     0.162383  p :     0.536364
      px      :     0.166489
      py      :     0.207492
      dz2     :     0.025889  d :     0.318830
      dxz     :     0.040445
      dyz     :     0.073935
      dx2y2   :     0.122258
      dxy     :     0.056303


                      *****************************
                      * MAYER POPULATION ANALYSIS *
                      *****************************

  NA   - Mulliken gross atomic population
  ZA   - Total nuclear charge
  QA   - Mulliken gross atomic charge
  VA   - Mayer's total valence
  BVA  - Mayer's bonded valence
  FA   - Mayer's free valence

  ATOM       NA         ZA         QA         VA         BVA        FA
  0 S     16.1689    16.0000    -0.1689     2.0812     2.0812     0.0000
  1 H      0.9157     1.0000     0.0843     1.0429     1.0429     0.0000
  2 H      0.9153     1.0000     0.0847     1.0423     1.0423     0.0000

  Mayer bond orders larger than 0.100000
B(  0-S ,  1-H ) :   1.0409 B(  0-S ,  2-H ) :   1.0403 

-------
TIMINGS
-------

Total SCF time: 0 days 0 hours 0 min 0 sec 

Total time                  ....       0.482 sec
Sum of individual times     ....       0.346 sec  ( 71.9%)

Fock matrix formation       ....       0.270 sec  ( 56.1%)
  Split-RI-J                ....       0.164 sec  ( 60.7% of F)
  XC integration            ....       0.025 sec  (  9.4% of F)
    Basis function eval.    ....       0.003 sec  ( 10.7% of XC)
    Density eval.           ....       0.004 sec  ( 13.8% of XC)
    XC-Functional eval.     ....       0.001 sec  (  4.9% of XC)
    XC-Potential eval.      ....       0.007 sec  ( 28.4% of XC)
Diagonalization             ....       0.001 sec  (  0.3%)
Density matrix formation    ....       0.002 sec  (  0.5%)
Population analysis         ....       0.003 sec  (  0.6%)
Initial guess               ....       0.005 sec  (  1.1%)
Orbital Transformation      ....       0.000 sec  (  0.0%)
Orbital Orthonormalization  ....       0.002 sec  (  0.5%)
DIIS solution               ....       0.000 sec  (  0.0%)
SOSCF solution              ....       0.001 sec  (  0.2%)
Grid generation             ....       0.063 sec  ( 13.2%)


-------------------------------------------------------------------------------
                          DFT DISPERSION CORRECTION                            
                                                                               
                              DFTD3 V3.1  Rev 1                                
                          USING Becke-Johnson damping                          
-------------------------------------------------------------------------------
The SCAN functional is recognized
Active option DFTDOPT                   ...         4   

molecular C6(AA) [au] = 217.134952 


            DFT-D V3
 parameters
 s6 scaling factor         :     1.0000 
 a1 scaling factor         :     0.5380 
 s8 scaling factor         :     0.0000 
 a2 scaling factor         :     5.4200 
 ad hoc parameters k1-k3   :    16.0000     1.3333    -4.0000 

 Edisp/kcal,au: -0.102010166512  -0.000162563531 
 E6   /kcal   :  -0.102010167 
 E8   /kcal   :  -0.000000000 
 % E8         :   0.000000000 

-------------------------   ----------------
Dispersion correction           -0.000162564
-------------------------   ----------------


-------------------------   --------------------
FINAL SINGLE POINT ENERGY      -399.460798813966
-------------------------   --------------------

                                *** OPTIMIZATION RUN DONE ***

                            ***************************************
                            *     ORCA property calculations      *
                            ***************************************

                                    ---------------------
                                    Active property flags
                                    ---------------------
   (+) Dipole Moment


------------------------------------------------------------------------------
                       ORCA ELECTRIC PROPERTIES CALCULATION
------------------------------------------------------------------------------

Dipole Moment Calculation                       ... on
Quadrupole Moment Calculation                   ... off
Polarizability Calculation                      ... off
GBWName                                         ... 18_H2S.gbw
Electron density file                           ... 18_H2S.scfp
The origin for moment calculation is the CENTER OF MASS  = (-0.003020,  1.266774 -0.000000)

-------------
DIPOLE MOMENT
-------------
                                X             Y             Z
Electronic contribution:     -0.00365       1.55596      -0.00000
Nuclear contribution   :      0.00465      -1.94985       0.00000
                        -----------------------------------------
Total Dipole Moment    :      0.00100      -0.39389       0.00000
                        -----------------------------------------
Magnitude (a.u.)       :      0.39389
Magnitude (Debye)      :      1.00120



--------------------
Rotational spectrum 
--------------------
 
Rotational constants in cm-1:    11.326580     7.299410     4.438816 
Rotational constants in MHz : 339562.314661 218830.805629 133072.368155 

 Dipole components along the rotational axes: 
x,y,z [a.u.] :    -0.393895     0.000061     0.000000 
x,y,z [Debye]:    -1.001200     0.000156     0.000000 

 

----------------------------------------------------------------------------
                           ORCA NUMERICAL FREQUENCIES
                              (24-process run)
----------------------------------------------------------------------------

Number of atoms                ... 3
Central differences            ... used
Number of displacements        ... 18
Numerical increment            ... 5.000e-03 bohr
IR-spectrum generation         ... on
Raman-spectrum generation      ... off
Surface Crossing Hessian       ... off

 WARNING: There are more processes than displacements to do
  ====> : Reducing number of processes to   9

The output will be reduced. Please look at the following files:
SCF program output             ... >18_H2S.lastscf
Integral program output        ... >18_H2S.lastint
Gradient program output        ... >18_H2S.lastgrad
Dipole moment program output   ... >18_H2S.lastmom
AutoCI program output          ... >18_H2S.lastautoci


         <<< Energy and Gradient at the input geometry >>>

        <<< Energy and Gradient at displaced geometries >>>
             <<<Displacing   1/coordinate 3 (+)>>>
             <<<Displacing   2/coordinate 2 (+)>>>
             <<<Displacing   3/coordinate 1 (+)>>>
             <<<Displacing   3/coordinate 3 (+)>>>
             <<<Displacing   2/coordinate 3 (+)>>>
             <<<Displacing   1/coordinate 1 (+)>>>
             <<<Displacing   2/coordinate 1 (+)>>>
             <<<Displacing   3/coordinate 2 (+)>>>
             <<<Displacing   1/coordinate 2 (+)>>>
             <<<Displacing   1/coordinate 1 (-)>>>
             <<<Displacing   3/coordinate 1 (-)>>>
             <<<Displacing   1/coordinate 3 (-)>>>
             <<<Displacing   2/coordinate 1 (-)>>>
             <<<Displacing   3/coordinate 2 (-)>>>
             <<<Displacing   2/coordinate 2 (-)>>>
             <<<Displacing   1/coordinate 2 (-)>>>
             <<<Displacing   3/coordinate 3 (-)>>>
             <<<Displacing   2/coordinate 3 (-)>>>

-----------------------
VIBRATIONAL FREQUENCIES
-----------------------

Scaling factor for frequencies =  1.000000000 (already applied!)

   0:         0.00 cm**-1
   1:         0.00 cm**-1
   2:         0.00 cm**-1
   3:         0.00 cm**-1
   4:         0.00 cm**-1
   5:         0.00 cm**-1
   6:      1220.30 cm**-1
   7:      2293.47 cm**-1
   8:      2348.81 cm**-1


------------
NORMAL MODES
------------

These modes are the cartesian displacements weighted by the diagonal matrix
M(i,i)=1/sqrt(m[i]) where m[i] is the mass of the displaced atom
Thus, these vectors are normalized but *not* orthogonal

                  0          1          2          3          4          5    
      0       0.000000   0.000000   0.000000   0.000000   0.000000   0.000000
      1       0.000000   0.000000   0.000000   0.000000   0.000000   0.000000
      2       0.000000   0.000000   0.000000   0.000000   0.000000   0.000000
      3       0.000000   0.000000   0.000000   0.000000   0.000000   0.000000
      4       0.000000   0.000000   0.000000   0.000000   0.000000   0.000000
      5       0.000000   0.000000   0.000000   0.000000   0.000000   0.000000
      6       0.000000   0.000000   0.000000   0.000000   0.000000   0.000000
      7       0.000000   0.000000   0.000000   0.000000   0.000000   0.000000
      8       0.000000   0.000000   0.000000   0.000000   0.000000   0.000000
                   6          7          8    
      0       0.000078  -0.027307   0.000192
      1      -0.030921  -0.000203  -0.030965
      2       0.000000   0.000000   0.000000
      3       0.506422   0.433488  -0.510028
      4       0.493025  -0.554484   0.493626
      5      -0.000000   0.000000  -0.000000
      6      -0.508899   0.435028   0.503929
      7       0.490437   0.560928   0.491225
      8      -0.000000  -0.000000  -0.000000


-----------
IR SPECTRUM  
-----------

 Mode    freq (cm**-1)   T**2         TX         TY         TZ
-------------------------------------------------------------------
   6:      1220.30    0.892054  ( -0.014231   0.944379   0.000003)
   7:      2293.47    4.963757  ( -2.227898   0.015074   0.000004)
   8:      2348.81    0.371866  (  0.026686   0.609224  -0.000003)

The first frequency considered to be a vibration is 6
The total number of vibrations considered is 3


--------------------------
THERMOCHEMISTRY AT 298.15K
--------------------------

Temperature         ... 298.15 K
Pressure            ... 1.00 atm
Total Mass          ... 34.08 AMU

Throughout the following assumptions are being made:
  (1) The electronic state is orbitally nondegenerate
  (2) There are no thermally accessible electronically excited states
  (3) Hindered rotations indicated by low frequency modes are not
      treated as such but are treated as vibrations and this may
      cause some error
  (4) All equations used are the standard statistical mechanics
      equations for an ideal gas
  (5) All vibrations are strictly harmonic

freq.    1220.30  E(vib)   ...       0.01 
freq.    2293.47  E(vib)   ...       0.00 
freq.    2348.81  E(vib)   ...       0.00 

------------
INNER ENERGY
------------

The inner energy is: U= E(el) + E(ZPE) + E(vib) + E(rot) + E(trans)
    E(el)   - is the total energy from the electronic structure calculation
              = E(kin-el) + E(nuc-el) + E(el-el) + E(nuc-nuc)
    E(ZPE)  - the the zero temperature vibrational energy from the frequency calculation
    E(vib)  - the the finite temperature correction to E(ZPE) due to population
              of excited vibrational states
    E(rot)  - is the rotational thermal energy
    E(trans)- is the translational thermal energy

Summary of contributions to the inner energy U:
Electronic energy                ...   -399.46079876 Eh
Zero point energy                ...      0.01335595 Eh       8.38 kcal/mol
Thermal vibrational correction   ...      0.00001574 Eh       0.01 kcal/mol
Thermal rotational correction    ...      0.00141627 Eh       0.89 kcal/mol
Thermal translational correction ...      0.00141627 Eh       0.89 kcal/mol
-----------------------------------------------------------------------
Total thermal energy                   -399.44459453 Eh


Summary of corrections to the electronic energy:
(perhaps to be used in another calculation)
Total thermal correction                  0.00284828 Eh       1.79 kcal/mol
Non-thermal (ZPE) correction              0.01335595 Eh       8.38 kcal/mol
-----------------------------------------------------------------------
Total correction                          0.01620423 Eh      10.17 kcal/mol


--------
ENTHALPY
--------

The enthalpy is H = U + kB*T
                kB is Boltzmann's constant
Total free energy                 ...   -399.44459453 Eh 
Thermal Enthalpy correction       ...      0.00094421 Eh       0.59 kcal/mol
-----------------------------------------------------------------------
Total Enthalpy                    ...   -399.44365032 Eh


Note: Rotational entropy computed according to Herzberg 
Infrared and Raman Spectra, Chapter V,1, Van Nostrand Reinhold, 1945 
Point Group:  Cs, Symmetry Number:   1  
Rotational constants in cm-1:    11.326580     7.299410     4.438816 

Vibrational entropy computed according to the QRRHO of S. Grimme
Chem.Eur.J. 2012 18 9955


-------
ENTROPY
-------

The entropy contributions are T*S = T*(S(el)+S(vib)+S(rot)+S(trans))
     S(el)   - electronic entropy
     S(vib)  - vibrational entropy
     S(rot)  - rotational entropy
     S(trans)- translational entropy
The entropies will be listed as mutliplied by the temperature to get
units of energy

Electronic entropy                ...      0.00000000 Eh      0.00 kcal/mol
Vibrational entropy               ...      0.00001839 Eh      0.01 kcal/mol
Rotational entropy                ...      0.00672296 Eh      4.22 kcal/mol
Translational entropy             ...      0.01734652 Eh     10.89 kcal/mol
-----------------------------------------------------------------------
Final entropy term                ...      0.02408787 Eh     15.12 kcal/mol

In case the symmetry of your molecule has not been determined correctly
or in case you have a reason to use a different symmetry number we print 
out the resulting rotational entropy values for sn=1,12 :
 --------------------------------------------------------
|  sn= 1 | S(rot)=       0.00672296 Eh      4.22 kcal/mol|
|  sn= 2 | S(rot)=       0.00606850 Eh      3.81 kcal/mol|
|  sn= 3 | S(rot)=       0.00568567 Eh      3.57 kcal/mol|
|  sn= 4 | S(rot)=       0.00541405 Eh      3.40 kcal/mol|
|  sn= 5 | S(rot)=       0.00520336 Eh      3.27 kcal/mol|
|  sn= 6 | S(rot)=       0.00503121 Eh      3.16 kcal/mol|
|  sn= 7 | S(rot)=       0.00488567 Eh      3.07 kcal/mol|
|  sn= 8 | S(rot)=       0.00475959 Eh      2.99 kcal/mol|
|  sn= 9 | S(rot)=       0.00464838 Eh      2.92 kcal/mol|
|  sn=10 | S(rot)=       0.00454890 Eh      2.85 kcal/mol|
|  sn=11 | S(rot)=       0.00445891 Eh      2.80 kcal/mol|
|  sn=12 | S(rot)=       0.00437676 Eh      2.75 kcal/mol|
 --------------------------------------------------------


-------------------
GIBBS FREE ENERGY
-------------------

The Gibbs free energy is G = H - T*S

Total enthalpy                    ...   -399.44365032 Eh 
Total entropy correction          ...     -0.02408787 Eh    -15.12 kcal/mol
-----------------------------------------------------------------------
Final Gibbs free energy         ...   -399.46773818 Eh

For completeness - the Gibbs free energy minus the electronic energy
G-E(el)                           ...     -0.00693942 Eh     -4.35 kcal/mol


Total Time for Numerical Frequencies  :        10.879 sec

Timings for individual modules:

Sum of individual times         ...       19.993 sec (=   0.333 min)
GTO integral calculation        ...        4.633 sec (=   0.077 min)  23.2 %
SCF iterations                  ...       10.066 sec (=   0.168 min)  50.3 %
SCF Gradient evaluation         ...        5.084 sec (=   0.085 min)  25.4 %
Geometry relaxation             ...        0.210 sec (=   0.004 min)   1.1 %
                             ****ORCA TERMINATED NORMALLY****
TOTAL RUN TIME: 0 days 0 hours 0 minutes 29 seconds 681 msec
