
                                 *****************
                                 * O   R   C   A *
                                 *****************

           --- An Ab Initio, DFT and Semiempirical electronic structure package ---

                  #######################################################
                  #                        -***-                        #
                  #          Department of theory and spectroscopy      #
                  #               Directorship: Frank Neese             #
                  #        Max Planck Institute fuer Kohlenforschung    #
                  #                Kaiser Wilhelm Platz 1               #
                  #                 D-45470 Muelheim/Ruhr               #
                  #                      Germany                        #
                  #                                                     #
                  #                  All rights reserved                #
                  #                        -***-                        #
                  #######################################################


                         Program Version 4.2.0 -  RELEASE  -


 With contributions from (in alphabetic order):
   Daniel Aravena         : Magnetic Suceptibility
   Michael Atanasov       : Ab Initio Ligand Field Theory (pilot matlab implementation)
   Alexander A. Auer      : GIAO ZORA, VPT2
   Ute Becker             : Parallelization
   Giovanni Bistoni       : ED, misc. LED, open-shell LED, HFLED
   Martin Brehm           : Molecular dynamics
   Dmytro Bykov           : SCF Hessian
   Vijay G. Chilkuri      : MRCI spin determinant printing, contributions to CSF-ICE
   Dipayan Datta          : RHF DLPNO-CCSD density
   Achintya Kumar Dutta   : EOM-CC, STEOM-CC
   Dmitry Ganyushin       : Spin-Orbit,Spin-Spin,Magnetic field MRCI
   Miquel Garcia          : C-PCM Hessian, Gaussian charge scheme
   Yang Guo               : DLPNO-NEVPT2, CIM, IAO-localization
   Andreas Hansen         : Spin unrestricted coupled pair/coupled cluster methods
   Benjamin Helmich-Paris : CASSCF linear response (MC-RPA)
   Lee Huntington         : MR-EOM, pCC
   Robert Izsak           : Overlap fitted RIJCOSX, COSX-SCS-MP3, EOM
   Christian Kollmar      : KDIIS, OOCD, Brueckner-CCSD(T), CCSD density
   Simone Kossmann        : Meta GGA functionals, TD-DFT gradient, OOMP2, MP2 Hessian
   Martin Krupicka        : AUTO-CI
   Lucas Lang             : DCDCAS
   Dagmar Lenk            : GEPOL surface, SMD
   Dimitrios Liakos       : Extrapolation schemes; Compound Job, initial MDCI parallelization
   Dimitrios Manganas     : Further ROCIS development; embedding schemes
   Dimitrios Pantazis     : SARC Basis sets
   Taras Petrenko         : DFT Hessian,TD-DFT gradient, ASA, ECA, R-Raman, ABS, FL, XAS/XES, NRVS
   Peter Pinski           : DLPNO-MP2, DLPNO-MP2 Gradient
   Christoph Reimann      : Effective Core Potentials
   Marius Retegan         : Local ZFS, SOC
   Christoph Riplinger    : Optimizer, TS searches, QM/MM, DLPNO-CCSD(T), (RO)-DLPNO pert. Triples
   Tobias Risthaus        : Range-separated hybrids, TD-DFT gradient, RPA, STAB
   Michael Roemelt        : Original ROCIS implementation
   Masaaki Saitow         : Open-shell DLPNO-CCSD energy and density
   Barbara Sandhoefer     : DKH picture change effects
   Avijit Sen             : IP-ROCIS
   Kantharuban Sivalingam : CASSCF convergence, NEVPT2, FIC-MRCI
   Bernardo de Souza      : ESD, SOC TD-DFT
   Georgi Stoychev        : AutoAux, RI-MP2 NMR
   Willem Van den Heuvel  : Paramagnetic NMR
   Boris Wezisla          : Elementary symmetry handling
   Frank Wennmohs         : Technical directorship


 We gratefully acknowledge several colleagues who have allowed us to
 interface, adapt or use parts of their codes:
   Stefan Grimme, W. Hujo, H. Kruse,             : VdW corrections, initial TS optimization,
                  C. Bannwarth                     DFT functionals, gCP, sTDA/sTD-DF
   Ed Valeev, F. Pavosevic, A. Kumar             : LibInt (2-el integral package), F12 methods
   Garnet Chan, S. Sharma, J. Yang, R. Olivares  : DMRG
   Ulf Ekstrom                                   : XCFun DFT Library
   Mihaly Kallay                                 : mrcc  (arbitrary order and MRCC methods)
   Andreas Klamt, Michael Diedenhofen            : otool_cosmo (COSMO solvation model)
   Jiri Pittner, Ondrej Demel                    : Mk-CCSD
   Frank Weinhold                                : gennbo (NPA and NBO analysis)
   Christopher J. Cramer and Donald G. Truhlar   : smd solvation model
   Lars Goerigk                                  : TD-DFT with DH, B97 family of functionals
   V. Asgeirsson, H. Jonsson                     : NEB implementation
   FAccTs GmbH                                   : IRC, NEB, NEB-TS, Multilevel, MM, QM/MM, CI optimization
   S Lehtola, MJT Oliveira, MAL Marques          : LibXC Library


 Your calculation uses the libint2 library for the computation of 2-el integrals
 For citations please refer to: http://libint.valeyev.net

 Your ORCA version has been built with support for libXC version: 4.2.3
 For citations please refer to: https://tddft.org/programs/libxc/

 This ORCA versions uses:
   CBLAS   interface :  Fast vector & matrix operations
   LAPACKE interface :  Fast linear algebra routines
   SCALAPACK package :  Parallel linear algebra routines


Your calculation utilizes the atom-pairwise dispersion correction
with the Becke-Johnson damping scheme (D3BJ)
Cite in your paper:
S.Grimme, S.Ehrlich, L.Goerigk, J Comput Chem, (2011), 32, 1456–1465 
S.Grimme, J.Antony, S.Ehrlich and H.Krieg, J.Chem.Phys., 132, (2010), 154104 
   

----- Orbital basis set information -----
Your calculation utilizes the basis: aug-cc-pV(T+d)Z 
             Al - Ar: T.H. Dunning, Jr., K. A. Peterson and A. K. Wilson, J. Chem. Phys.
                      114, 9244 (2001)

----- AuxJ basis set information -----
Your calculation utilizes the auxiliary basis: def2/J
   F. Weigend, Phys. Chem. Chem. Phys. 8, 1057 (2006).

================================================================================
                                        WARNINGS
                       Please study these warnings very carefully!
================================================================================


WARNING: Geometry Optimization
  ===> : Switching off AutoStart
         For restart on a previous wavefunction, please use MOREAD

WARNING: The SCAN functional is very grid-sensitive!
         Use at least GRID5 and a higher intacc

INFO   : the flag for use of LIBINT has been found!

================================================================================
                                       INPUT FILE
================================================================================
NAME = 28_PH3.in
|  1> #
|  2> # 28_PH3 scanfunc/aug-cc-pvt(+d)z
|  3> #
|  4> ! scanfunc d3bj aug-cc-pvt(+d)z def2/j opt xyzfile numfreq
|  5> 
|  6> *xyz 0 1
|  7> P           -0.005097099         -0.001153152          0.571181006
|  8> H           -0.658920833         -0.993994611         -0.198293924
|  9> H           -0.529115053          1.069739515         -0.192973374
| 10> H            1.193132979         -0.074591751         -0.179913708
| 11> *
| 12> 
| 13> %pal
| 14> nprocs 24
| 15> end
| 16> 
| 17> 
| 18>                          ****END OF INPUT****
================================================================================

                       *****************************
                       * Geometry Optimization Run *
                       *****************************

Geometry optimization settings:
Update method            Update   .... BFGS
Choice of coordinates    CoordSys .... Z-matrix Internals
Initial Hessian          InHess   .... Almoef's Model

Convergence Tolerances:
Energy Change            TolE     ....  5.0000e-06 Eh
Max. Gradient            TolMAXG  ....  3.0000e-04 Eh/bohr
RMS Gradient             TolRMSG  ....  1.0000e-04 Eh/bohr
Max. Displacement        TolMAXD  ....  4.0000e-03 bohr
RMS Displacement         TolRMSD  ....  2.0000e-03 bohr
Strict Convergence                ....  False
------------------------------------------------------------------------------
                        ORCA OPTIMIZATION COORDINATE SETUP
------------------------------------------------------------------------------

The optimization will be done in new redundant internal coordinates
Making redundant internal coordinates   ...  (new redundants) done
Evaluating the initial hessian          ...  (Almloef) done
Evaluating the coordinates              ...  done
Calculating the B-matrix                .... done
Calculating the G-matrix                .... done
Diagonalizing the G-matrix              .... done
The first mode is                       ....    1
The number of degrees of freedom        ....    6

    -----------------------------------------------------------------
                    Redundant Internal Coordinates


    -----------------------------------------------------------------
         Definition                    Initial Value    Approx d2E/dq
    -----------------------------------------------------------------
      1. B(H   1,P   0)                  1.4161         0.365310   
      2. B(H   2,P   0)                  1.4161         0.365297   
      3. B(H   3,P   0)                  1.4161         0.365319   
      4. A(H   1,P   0,H   3)           93.7906         0.342697   
      5. A(H   2,P   0,H   3)           93.7910         0.342696   
      6. A(H   1,P   0,H   2)           93.7918         0.342694   
      7. I(H   1,H   3,H   2,P   0)    -84.4473         0.002503   
    -----------------------------------------------------------------

Number of atoms                         .... 4
Number of degrees of freedom            .... 7

         *************************************************************
         *                GEOMETRY OPTIMIZATION CYCLE   1            *
         *************************************************************
---------------------------------
CARTESIAN COORDINATES (ANGSTROEM)
---------------------------------
  P     -0.005097   -0.001153    0.571181
  H     -0.658921   -0.993995   -0.198294
  H     -0.529115    1.069740   -0.192973
  H      1.193133   -0.074592   -0.179914

----------------------------
CARTESIAN COORDINATES (A.U.)
----------------------------
  NO LB      ZA    FRAG     MASS         X           Y           Z
   0 P    15.0000    0    30.974   -0.009632   -0.002179    1.079376
   1 H     1.0000    0     1.008   -1.245180   -1.878378   -0.374721
   2 H     1.0000    0     1.008   -0.999883    2.021515   -0.364667
   3 H     1.0000    0     1.008    2.254695   -0.140958   -0.339988

--------------------------------
INTERNAL COORDINATES (ANGSTROEM)
--------------------------------
 P      0   0   0     0.000000000000     0.00000000     0.00000000
 H      1   0   0     1.416090147466     0.00000000     0.00000000
 H      1   2   0     1.416099515155    93.79178024     0.00000000
 H      1   2   3     1.416083266283    93.79056964   265.94011883

---------------------------
INTERNAL COORDINATES (A.U.)
---------------------------
 P      0   0   0     0.000000000000     0.00000000     0.00000000
 H      1   0   0     2.676022559654     0.00000000     0.00000000
 H      1   2   0     2.676040262021    93.79178024     0.00000000
 H      1   2   3     2.676009556103    93.79056964   265.94011883

---------------------
BASIS SET INFORMATION
---------------------
There are 2 groups of distinct atoms

 Group   1 Type P   : 42s17p4d2f contracted to 6s5p4d2f pattern {131313111/77111/1111/11}
 Group   2 Type H   : 6s3p2d contracted to 4s3p2d pattern {3111/111/11}

Atom   0P    basis set group =>   1
Atom   1H    basis set group =>   2
Atom   2H    basis set group =>   2
Atom   3H    basis set group =>   2
---------------------------------
AUXILIARY/J BASIS SET INFORMATION
---------------------------------
There are 2 groups of distinct atoms

 Group   1 Type P   : 14s5p5d2f1g contracted to 8s4p3d1f1g pattern {71111111/2111/311/2/1}
 Group   2 Type H   : 5s2p1d contracted to 3s1p1d pattern {311/2/1}

Atom   0P    basis set group =>   1
Atom   1H    basis set group =>   2
Atom   2H    basis set group =>   2
Atom   3H    basis set group =>   2


           ************************************************************
           *        Program running with 24 parallel MPI-processes    *
           *              working on a common directory               *
           ************************************************************
------------------------------------------------------------------------------
                           ORCA GTO INTEGRAL CALCULATION
                           -- RI-GTO INTEGRALS CHOSEN --
------------------------------------------------------------------------------

                         BASIS SET STATISTICS AND STARTUP INFO

Gaussian basis set:
 # of primitive gaussian shells          ...   98
 # of primitive gaussian functions       ...  202
 # of contracted shells                  ...   44
 # of contracted basis functions         ...  124
 Highest angular momentum                ...    3
 Maximum contraction depth               ...   13
Auxiliary gaussian basis set:
 # of primitive gaussian shells          ...   51
 # of primitive gaussian functions       ...  125
 # of contracted shells                  ...   32
 # of contracted aux-basis functions     ...   84
 Highest angular momentum                ...    4
 Maximum contraction depth               ...    7
Ratio of auxiliary to basis functions    ...  0.68
Integral package used                  ... LIBINT
 One Electron integrals                  ... done
 Ordering auxiliary basis shells         ... done
 Integral threshhold             Thresh  ...  2.500e-11
 Primitive cut-off               TCut    ...  2.500e-12
 Pre-screening matrix                    ... done
 Shell pair data                         ... 
 Ordering of the shell pairs             ... done (   0.000 sec) 990 of 990 pairs
 Determination of significant pairs      ... done (   0.000 sec)
 Creation of shell pair data             ... done (   0.000 sec)
 Storage of shell pair data              ... done (   0.015 sec)
 Shell pair data done in (   0.015 sec)
 Computing two index integrals           ... done
 Cholesky decomposition of the V-matrix  ... done


Timings:
 Total evaluation time                   ...   0.204 sec (  0.003 min)
 One electron matrix time                ...   0.019 sec (  0.000 min) =  9.1%
 Schwartz matrix evaluation time         ...   0.151 sec (  0.003 min) = 74.2%
 Two index repulsion integral time       ...   0.000 sec (  0.000 min) =  0.2%
 Cholesky decomposition of V             ...   0.001 sec (  0.000 min) =  0.3%
 Three index repulsion integral time     ...   0.000 sec (  0.000 min) =  0.0%



           ************************************************************
           *        Program running with 24 parallel MPI-processes    *
           *              working on a common directory               *
           ************************************************************
-------------------------------------------------------------------------------
                                 ORCA SCF
-------------------------------------------------------------------------------

------------
SCF SETTINGS
------------
Hamiltonian:
 Density Functional     Method          .... DFT(GTOs)
 Exchange Functional    Exchange        .... SCAN
 Correlation Functional Correlation     .... SCAN
 Gradients option       PostSCFGGA      .... off
   Density functional embedding theory  .... OFF
   NL short-range parameter             ....  6.400000
 RI-approximation to the Coulomb term is turned on
   Number of auxiliary basis functions  .... 84


General Settings:
 Integral files         IntName         .... 28_PH3
 Hartree-Fock type      HFTyp           .... RHF
 Total Charge           Charge          ....    0
 Multiplicity           Mult            ....    1
 Number of Electrons    NEL             ....   18
 Basis Dimension        Dim             ....  124
 Nuclear Repulsion      ENuc            ....     17.5837303925 Eh

Convergence Acceleration:
 DIIS                   CNVDIIS         .... on
   Start iteration      DIISMaxIt       ....    12
   Startup error        DIISStart       ....  0.200000
   # of expansion vecs  DIISMaxEq       ....     5
   Bias factor          DIISBfac        ....   1.050
   Max. coefficient     DIISMaxC        ....  10.000
 Newton-Raphson         CNVNR           .... off
 SOSCF                  CNVSOSCF        .... on
   Start iteration      SOSCFMaxIt      ....   150
   Startup grad/error   SOSCFStart      ....  0.003300
 Level Shifting         CNVShift        .... on
   Level shift para.    LevelShift      ....    0.2500
   Turn off err/grad.   ShiftErr        ....    0.0010
 Zerner damping         CNVZerner       .... off
 Static damping         CNVDamp         .... on
   Fraction old density DampFac         ....    0.7000
   Max. Damping (<1)    DampMax         ....    0.9800
   Min. Damping (>=0)   DampMin         ....    0.0000
   Turn off err/grad.   DampErr         ....    0.1000
 Fernandez-Rico         CNVRico         .... off

SCF Procedure:
 Maximum # iterations   MaxIter         ....   125
 SCF integral mode      SCFMode         .... Direct
   Integral package                     .... LIBINT
 Reset frequency        DirectResetFreq ....    20
 Integral Threshold     Thresh          ....  2.500e-11 Eh
 Primitive CutOff       TCut            ....  2.500e-12 Eh

Convergence Tolerance:
 Convergence Check Mode ConvCheckMode   .... Total+1el-Energy
 Convergence forced     ConvForced      .... 0
 Energy Change          TolE            ....  1.000e-08 Eh
 1-El. energy change                    ....  1.000e-05 Eh
 Orbital Gradient       TolG            ....  1.000e-05
 Orbital Rotation angle TolX            ....  1.000e-05
 DIIS Error             TolErr          ....  5.000e-07


Diagonalization of the overlap matrix:
Smallest eigenvalue                        ... 1.933e-04
Time for diagonalization                   ...    0.003 sec
Threshold for overlap eigenvalues          ... 1.000e-08
Number of eigenvalues below threshold      ... 0
Time for construction of square roots      ...    0.002 sec
Total time needed                          ...    0.005 sec

-------------------
DFT GRID GENERATION
-------------------

General Integration Accuracy     IntAcc      ...  4.340
Radial Grid Type                 RadialGrid  ... Gauss-Chebyshev
Angular Grid (max. acc.)         AngularGrid ... Lebedev-110
Angular grid pruning method      GridPruning ... 3 (G Style)
Weight generation scheme         WeightScheme... Becke
Basis function cutoff            BFCut       ...    1.0000e-11
Integration weight cutoff        WCut        ...    1.0000e-14
Grids for H and He will be reduced by one unit

# of grid points (after initial pruning)     ...   4188 (   0.0 sec)
# of grid points (after weights+screening)   ...   4139 (   0.0 sec)
nearest neighbour list constructed           ...    0.0 sec
Grid point re-assignment to atoms done       ...    0.0 sec
Grid point division into batches done        ...    0.0 sec
Reduced shell lists constructed in    0.0 sec

Total number of grid points                  ...     4139
Total number of batches                      ...       66
Average number of points per batch           ...       62
Average number of grid points per atom       ...     1035
Average number of shells per batch           ...    29.50 (67.05%)
Average number of basis functions per batch  ...    83.00 (66.94%)
Average number of large shells per batch     ...    25.50 (86.44%)
Average number of large basis fcns per batch ...    72.50 (87.35%)
Maximum spatial batch extension              ...  23.40, 14.45, 17.83 au
Average spatial batch extension              ...   0.62,  0.44,  0.49 au

Time for grid setup =    0.014 sec

------------------------------
INITIAL GUESS: MODEL POTENTIAL
------------------------------
Loading Hartree-Fock densities                     ... done
Calculating cut-offs                               ... done
Setting up the integral package                    ... done
Initializing the effective Hamiltonian             ... done
Starting the Coulomb interaction                   ... done (   0.0 sec)
Reading the grid                                   ... done
Mapping shells                                     ... done
Starting the XC term evaluation                    ... done (   0.0 sec)
  promolecular density results
     # of electrons  =     17.998272808
     EX              =    -26.150584755
     EC              =     -0.298112930
     EX+EC           =    -26.448697685
Transforming the Hamiltonian                       ... done (   0.0 sec)
Diagonalizing the Hamiltonian                      ... done (   0.0 sec)
Back transforming the eigenvectors                 ... done (   0.0 sec)
Now organizing SCF variables                       ... done
                      ------------------
                      INITIAL GUESS DONE (   0.1 sec)
                      ------------------
--------------
SCF ITERATIONS
--------------
ITER       Energy         Delta-E        Max-DP      RMS-DP      [F,P]     Damp
               ***  Starting incremental Fock matrix formation  ***
  0   -343.1260440082   0.000000000000 0.04797078  0.00128033  0.1288415 0.7000
  1   -343.1486220826  -0.022578074364 0.03124190  0.00090832  0.0778613 0.7000
                               ***Turning on DIIS***
  2   -343.1599536764  -0.011331593875 0.07568605  0.00202392  0.0400689 0.0000
  3   -343.1762922221  -0.016338545644 0.02600212  0.00048569  0.0298457 0.0000
  4   -343.1799084971  -0.003616274989 0.00552771  0.00012030  0.0077550 0.0000
                      *** Initiating the SOSCF procedure ***
                           *** Shutting down DIIS ***
                      *** Re-Reading the Fockian *** 
                      *** Removing any level shift *** 
ITER      Energy       Delta-E        Grad      Rot      Max-DP    RMS-DP
  5   -343.18011375  -0.0002052571  0.000611  0.000611  0.002339  0.000057
               *** Restarting incremental Fock matrix formation ***
  6   -343.18013585  -0.0000220917  0.000263  0.000707  0.001714  0.000028
  7   -343.18013721  -0.0000013674  0.000182  0.000151  0.001058  0.000014
  8   -343.18013787  -0.0000006563  0.000034  0.000076  0.000128  0.000004
  9   -343.18013787   0.0000000031  0.000025  0.000037  0.000019  0.000001
 10   -343.18013788  -0.0000000095  0.000005  0.000004  0.000012  0.000000
                  ***Gradient check signals convergence***
              ***Rediagonalizing the Fockian in SOSCF/NRSCF***

               *****************************************************
               *                     SUCCESS                       *
               *           SCF CONVERGED AFTER  11 CYCLES          *
               *****************************************************

Setting up the final grid:

General Integration Accuracy     IntAcc      ...  4.670
Radial Grid Type                 RadialGrid  ... Gauss-Chebyshev
Angular Grid (max. acc.)         AngularGrid ... Lebedev-302
Angular grid pruning method      GridPruning ... 3 (G Style)
Weight generation scheme         WeightScheme... Becke
Basis function cutoff            BFCut       ...    1.0000e-11
Integration weight cutoff        WCut        ...    1.0000e-14
Grids for H and He will be reduced by one unit

# of grid points (after initial pruning)     ...  17028 (   0.0 sec)
# of grid points (after weights+screening)   ...  16809 (   0.0 sec)
nearest neighbour list constructed           ...    0.0 sec
Grid point re-assignment to atoms done       ...    0.0 sec
Grid point division into batches done        ...    0.0 sec
Reduced shell lists constructed in    0.1 sec

Total number of grid points                  ...    16809
Total number of batches                      ...      266
Average number of points per batch           ...       63
Average number of grid points per atom       ...     4202
Average number of shells per batch           ...    27.69 (62.94%)
Average number of basis functions per batch  ...    76.62 (61.79%)
Average number of large shells per batch     ...    23.08 (83.33%)
Average number of large basis fcns per batch ...    62.31 (81.33%)
Maximum spatial batch extension              ...  16.68, 16.68, 15.93 au
Average spatial batch extension              ...   0.39,  0.37,  0.35 au

Final grid set up in    0.1 sec
Final integration                            ... done (   0.0 sec)
Change in XC energy                          ...    -0.015832424
Integrated number of electrons               ...    17.999985014
Previous integrated no of electrons          ...    18.000140578

----------------
TOTAL SCF ENERGY
----------------

Total Energy       :         -343.19597031 Eh           -9338.83713 eV

Components:
Nuclear Repulsion  :           17.58373039 Eh             478.47763 eV
Electronic Energy  :         -360.77970070 Eh           -9817.31476 eV
One Electron Energy:         -508.64306835 Eh          -13840.88155 eV
Two Electron Energy:          147.86336765 Eh            4023.56679 eV

Virial components:
Potential Energy   :         -685.45082894 Eh          -18652.06531 eV
Kinetic Energy     :          342.25485863 Eh            9313.22818 eV
Virial Ratio       :            2.00274974


DFT components:
N(Alpha)           :        8.999992507229 electrons
N(Beta)            :        8.999992507229 electrons
N(Total)           :       17.999985014458 electrons
E(X)               :      -23.744589217775 Eh       
E(C)               :       -0.621630507328 Eh       
E(XC)              :      -24.366219725103 Eh       
DFET-embed. en.    :        0.000000000000 Eh       

---------------
SCF CONVERGENCE
---------------

  Last Energy change         ...   -6.4658e-09  Tolerance :   1.0000e-08
  Last MAX-Density change    ...    3.8643e-06  Tolerance :   1.0000e-07
  Last RMS-Density change    ...    1.1000e-07  Tolerance :   5.0000e-09
  Last Orbital Gradient      ...    1.9034e-06  Tolerance :   1.0000e-05
  Last Orbital Rotation      ...    6.9875e-07  Tolerance :   1.0000e-05

             **** THE GBW FILE WAS UPDATED (28_PH3.gbw) ****
             **** DENSITY FILE WAS UPDATED (28_PH3.scfp) ****
             **** ENERGY FILE WAS UPDATED (28_PH3.en.tmp) ****
             **** THE GBW FILE WAS UPDATED (28_PH3.gbw) ****
             **** DENSITY FILE WAS UPDATED (28_PH3.scfp) ****
----------------
ORBITAL ENERGIES
----------------

  NO   OCC          E(Eh)            E(eV) 
   0   2.0000     -76.681036     -2086.5971 
   1   2.0000      -6.504836      -177.0056 
   2   2.0000      -4.639350      -126.2431 
   3   2.0000      -4.639226      -126.2397 
   4   2.0000      -4.634068      -126.0994 
   5   2.0000      -0.610166       -16.6035 
   6   2.0000      -0.362177        -9.8553 
   7   2.0000      -0.361105        -9.8262 
   8   2.0000      -0.254615        -6.9284 
   9   0.0000       0.003279         0.0892 
  10   0.0000       0.003778         0.1028 
  11   0.0000       0.004224         0.1149 
  12   0.0000       0.047316         1.2875 
  13   0.0000       0.047936         1.3044 
  14   0.0000       0.076977         2.0946 
  15   0.0000       0.085541         2.3277 
  16   0.0000       0.100865         2.7447 
  17   0.0000       0.101981         2.7750 
  18   0.0000       0.111871         3.0442 
  19   0.0000       0.112447         3.0598 
  20   0.0000       0.117331         3.1927 
  21   0.0000       0.224363         6.1052 
  22   0.0000       0.237186         6.4542 
  23   0.0000       0.238033         6.4772 
  24   0.0000       0.271298         7.3824 
  25   0.0000       0.273158         7.4330 
  26   0.0000       0.283704         7.7200 
  27   0.0000       0.307946         8.3796 
  28   0.0000       0.311697         8.4817 
  29   0.0000       0.312679         8.5084 
  30   0.0000       0.336700         9.1621 
  31   0.0000       0.339903         9.2492 
  32   0.0000       0.366683         9.9780 
  33   0.0000       0.406897        11.0722 
  34   0.0000       0.409726        11.1492 
  35   0.0000       0.425240        11.5714 
  36   0.0000       0.529405        14.4058 
  37   0.0000       0.540531        14.7086 
  38   0.0000       0.564476        15.3602 
  39   0.0000       0.566219        15.4076 
  40   0.0000       0.605499        16.4765 
  41   0.0000       0.618283        16.8243 
  42   0.0000       0.619651        16.8616 
  43   0.0000       0.657000        17.8779 
  44   0.0000       0.670694        18.2505 
  45   0.0000       0.673616        18.3300 
  46   0.0000       0.707072        19.2404 
  47   0.0000       0.707562        19.2537 
  48   0.0000       0.775380        21.0992 
  49   0.0000       0.828037        22.5320 
  50   0.0000       0.829411        22.5694 
  51   0.0000       0.892037        24.2736 
  52   0.0000       0.896052        24.3828 
  53   0.0000       0.911781        24.8108 
  54   0.0000       0.915035        24.8994 
  55   0.0000       0.946501        25.7556 
  56   0.0000       0.950234        25.8572 
  57   0.0000       0.980929        26.6924 
  58   0.0000       1.060930        28.8694 
  59   0.0000       1.062909        28.9232 
  60   0.0000       1.081237        29.4220 
  61   0.0000       1.125752        30.6333 
  62   0.0000       1.126255        30.6470 
  63   0.0000       1.162314        31.6282 
  64   0.0000       1.165999        31.7284 
  65   0.0000       1.243823        33.8461 
  66   0.0000       1.341212        36.4962 
  67   0.0000       1.375118        37.4189 
  68   0.0000       1.376127        37.4463 
  69   0.0000       1.384770        37.6815 
  70   0.0000       1.413445        38.4618 
  71   0.0000       1.413703        38.4688 
  72   0.0000       1.416584        38.5472 
  73   0.0000       1.518260        41.3140 
  74   0.0000       1.519474        41.3470 
  75   0.0000       1.621813        44.1318 
  76   0.0000       1.637915        44.5699 
  77   0.0000       1.644593        44.7517 
  78   0.0000       1.672403        45.5084 
  79   0.0000       1.867067        50.8055 
  80   0.0000       1.953915        53.1687 
  81   0.0000       1.955897        53.2227 
  82   0.0000       1.995523        54.3009 
  83   0.0000       2.085816        56.7579 
  84   0.0000       2.086893        56.7873 
  85   0.0000       2.141491        58.2729 
  86   0.0000       2.218724        60.3745 
  87   0.0000       2.222642        60.4812 
  88   0.0000       2.432634        66.1953 
  89   0.0000       2.633335        71.6567 
  90   0.0000       2.636813        71.7513 
  91   0.0000       3.210483        87.3617 
  92   0.0000       3.337221        90.8104 
  93   0.0000       3.337567        90.8198 
  94   0.0000       3.731758       101.5463 
  95   0.0000       3.734617       101.6241 
  96   0.0000       3.746271       101.9412 
  97   0.0000       3.804670       103.5303 
  98   0.0000       3.807928       103.6190 
  99   0.0000       3.942828       107.2898 
 100   0.0000       3.945160       107.3533 
 101   0.0000       3.953471       107.5794 
 102   0.0000       4.041003       109.9613 
 103   0.0000       4.042538       110.0030 
 104   0.0000       4.186415       113.9182 
 105   0.0000       4.190812       114.0378 
 106   0.0000       4.222620       114.9033 
 107   0.0000       4.273698       116.2932 
 108   0.0000       4.278514       116.4243 
 109   0.0000       4.320392       117.5639 
 110   0.0000       4.384394       119.3054 
 111   0.0000       4.387031       119.3772 
 112   0.0000       4.469099       121.6104 
 113   0.0000       4.578373       124.5839 
 114   0.0000       4.586235       124.7978 
 115   0.0000       4.640454       126.2732 
 116   0.0000       5.004597       136.1820 
 117   0.0000       5.006254       136.2271 
 118   0.0000       5.953597       162.0056 
 119   0.0000       5.975416       162.5993 
 120   0.0000       5.976180       162.6201 
 121   0.0000       7.094512       193.0515 
 122   0.0000       7.095886       193.0889 
 123   0.0000       8.173383       222.4090 

                    ********************************
                    * MULLIKEN POPULATION ANALYSIS *
                    ********************************

-----------------------
MULLIKEN ATOMIC CHARGES
-----------------------
   0 P :   -0.029182
   1 H :   -0.012561
   2 H :    0.019900
   3 H :    0.021844
Sum of atomic charges:    0.0000000

--------------------------------
MULLIKEN REDUCED ORBITAL CHARGES
--------------------------------
  0 P s       :     5.674471  s :     5.674471
      pz      :     3.361078  p :     9.197375
      px      :     2.918744
      py      :     2.917552
      dz2     :     0.001662  d :     0.148467
      dxz     :     0.049224
      dyz     :     0.048141
      dx2y2   :     0.024594
      dxy     :     0.024846
      f0      :     0.000557  f :     0.008869
      f+1     :     0.000696
      f-1     :     0.000531
      f+2     :     0.003246
      f-2     :     0.003670
      f+3     :     0.000173
      f-3     :    -0.000004
  1 H s       :     1.000608  s :     1.000608
      pz      :     0.006393  p :     0.009473
      px      :     0.002013
      py      :     0.001067
      dz2     :    -0.000370  d :     0.002480
      dxz     :     0.001157
      dyz     :     0.001726
      dx2y2   :    -0.000415
      dxy     :     0.000382
  2 H s       :     0.966788  s :     0.966788
      pz      :     0.006783  p :     0.010706
      px      :     0.002806
      py      :     0.001116
      dz2     :    -0.000484  d :     0.002607
      dxz     :     0.000859
      dyz     :     0.001936
      dx2y2   :     0.000005
      dxy     :     0.000290
  3 H s       :     0.961996  s :     0.961996
      pz      :     0.007080  p :     0.012153
      px      :     0.002978
      py      :     0.002095
      dz2     :     0.000277  d :     0.004007
      dxz     :     0.001990
      dyz     :     0.000598
      dx2y2   :     0.000675
      dxy     :     0.000467


                     *******************************
                     * LOEWDIN POPULATION ANALYSIS *
                     *******************************

----------------------
LOEWDIN ATOMIC CHARGES
----------------------
   0 P :    1.343341
   1 H :   -0.449043
   2 H :   -0.447379
   3 H :   -0.446920

-------------------------------
LOEWDIN REDUCED ORBITAL CHARGES
-------------------------------
  0 P s       :     4.769422  s :     4.769422
      pz      :     3.076687  p :     8.524539
      px      :     2.723839
      py      :     2.724012
      dz2     :     0.013394  d :     0.287283
      dxz     :     0.070300
      dyz     :     0.071818
      dx2y2   :     0.066882
      dxy     :     0.064889
      f0      :     0.009174  f :     0.075415
      f+1     :     0.002555
      f-1     :     0.002898
      f+2     :     0.023576
      f-2     :     0.023351
      f+3     :     0.013372
      f-3     :     0.000490
  1 H s       :     0.819742  s :     0.819742
      pz      :     0.173712  p :     0.410874
      px      :     0.106364
      py      :     0.130798
      dz2     :     0.054804  d :     0.218428
      dxz     :     0.025008
      dyz     :     0.045735
      dx2y2   :     0.055750
      dxy     :     0.037131
  2 H s       :     0.817197  s :     0.817197
      pz      :     0.173581  p :     0.411659
      px      :     0.099888
      py      :     0.138190
      dz2     :     0.054444  d :     0.218523
      dxz     :     0.019144
      dyz     :     0.051719
      dx2y2   :     0.050001
      dxy     :     0.043215
  3 H s       :     0.817130  s :     0.817130
      pz      :     0.172565  p :     0.411638
      px      :     0.151037
      py      :     0.088036
      dz2     :     0.053065  d :     0.218152
      dxz     :     0.062262
      dyz     :     0.008962
      dx2y2   :     0.033814
      dxy     :     0.060049


                      *****************************
                      * MAYER POPULATION ANALYSIS *
                      *****************************

  NA   - Mulliken gross atomic population
  ZA   - Total nuclear charge
  QA   - Mulliken gross atomic charge
  VA   - Mayer's total valence
  BVA  - Mayer's bonded valence
  FA   - Mayer's free valence

  ATOM       NA         ZA         QA         VA         BVA        FA
  0 P     15.0292    15.0000    -0.0292     2.8994     2.8994     0.0000
  1 H      1.0126     1.0000    -0.0126     0.9571     0.9571     0.0000
  2 H      0.9801     1.0000     0.0199     0.9666     0.9666     0.0000
  3 H      0.9782     1.0000     0.0218     0.9574     0.9574     0.0000

  Mayer bond orders larger than 0.100000
B(  0-P ,  1-H ) :   0.9644 B(  0-P ,  2-H ) :   0.9740 B(  0-P ,  3-H ) :   0.9610 


-------
TIMINGS
-------

Total SCF time: 0 days 0 hours 0 min 1 sec 

Total time                  ....       1.314 sec
Sum of individual times     ....       1.219 sec  ( 92.8%)

Fock matrix formation       ....       1.004 sec  ( 76.4%)
  Split-RI-J                ....       0.842 sec  ( 83.9% of F)
  XC integration            ....       0.130 sec  ( 13.0% of F)
    Basis function eval.    ....       0.010 sec  (  8.0% of XC)
    Density eval.           ....       0.014 sec  ( 10.8% of XC)
    XC-Functional eval.     ....       0.004 sec  (  3.4% of XC)
    XC-Potential eval.      ....       0.036 sec  ( 28.0% of XC)
Diagonalization             ....       0.012 sec  (  0.9%)
Density matrix formation    ....       0.005 sec  (  0.4%)
Population analysis         ....       0.003 sec  (  0.2%)
Initial guess               ....       0.110 sec  (  8.4%)
Orbital Transformation      ....       0.000 sec  (  0.0%)
Orbital Orthonormalization  ....       0.000 sec  (  0.0%)
DIIS solution               ....       0.004 sec  (  0.3%)
SOSCF solution              ....       0.007 sec  (  0.5%)
Grid generation             ....       0.075 sec  (  5.7%)


-------------------------------------------------------------------------------
                          DFT DISPERSION CORRECTION                            
                                                                               
                              DFTD3 V3.1  Rev 1                                
                          USING Becke-Johnson damping                          
-------------------------------------------------------------------------------
The SCAN functional is recognized
Active option DFTDOPT                   ...         4   

molecular C6(AA) [au] = 309.169907 


            DFT-D V3
 parameters
 s6 scaling factor         :     1.0000 
 a1 scaling factor         :     0.5380 
 s8 scaling factor         :     0.0000 
 a2 scaling factor         :     5.4200 
 ad hoc parameters k1-k3   :    16.0000     1.3333    -4.0000 

 Edisp/kcal,au: -0.175285388904  -0.000279335018 
 E6   /kcal   :  -0.175285389 
 E8   /kcal   :  -0.000000000 
 % E8         :   0.000000000 

-------------------------   ----------------
Dispersion correction           -0.000279335
-------------------------   ----------------


-------------------------   --------------------
FINAL SINGLE POINT ENERGY      -343.196249641725
-------------------------   --------------------



           ************************************************************
           *        Program running with 24 parallel MPI-processes    *
           *              working on a common directory               *
           ************************************************************
------------------------------------------------------------------------------
                         ORCA SCF GRADIENT CALCULATION
------------------------------------------------------------------------------

Gradient of the Kohn-Sham DFT energy:
Kohn-Sham wavefunction type      ... RKS
Hartree-Fock exchange scaling    ...    0.000
Number of operators              ...    1
Number of atoms                  ...    4
Basis set dimensions             ...  124
Integral neglect threshold       ... 2.5e-11
Integral primitive cutoff        ... 2.5e-12

Nuclear repulsion gradient       ... done
One Electron Gradient            ... done
Pre-screening matrix             ... done
RI-J gradient                    ... done
Exchange-correlation gradient    ... done
Dispersion correction            ... done

------------------
CARTESIAN GRADIENT
------------------

   1   P   :    0.000191090   -0.000627621   -0.063641709
   2   H   :   -0.000683238   -0.000977897   -0.000006894
   3   H   :   -0.000413956    0.001067098    0.000166612
   4   H   :    0.001154982    0.000094553    0.000457630

Difference to translation invariance:
           :    0.0002488776   -0.0004438669   -0.0630243614

Norm of the cartesian gradient     ...    0.0636789669
RMS gradient                       ...    0.0183825343
MAX gradient                       ...    0.0636417087

-------
TIMINGS
-------

Total SCF gradient time            ...        0.448 sec

One electron gradient       ....       0.016 sec  (  3.6%)
Prescreening matrices       ....       0.034 sec  (  7.6%)
RI-J Coulomb gradient       ....       0.086 sec  ( 19.1%)
XC gradient                 ....       0.089 sec  ( 19.9%)
------------------------------------------------------------------------------
                         ORCA GEOMETRY RELAXATION STEP
------------------------------------------------------------------------------

Reading the OPT-File                    .... done
Getting information on internals        .... done
Copying old internal coords+grads       .... done
Making the new internal coordinates     .... (new redundants).... done
Validating the new internal coordinates .... (new redundants).... done
Calculating the B-matrix                .... done
Calculating the G,G- and P matrices     .... done
Transforming gradient to internals      .... done
Projecting the internal gradient        .... done
Number of atoms                         ....   4
Number of internal coordinates          ....   7
Current Energy                          ....  -343.196249642 Eh
Current gradient norm                   ....     0.063678967 Eh/bohr
Maximum allowed component of the step   ....  0.300
Current trust radius                    ....  0.300
Evaluating the initial hessian          ....  (Almloef) done
Projecting the Hessian                  .... done
Forming the augmented Hessian           .... done
Diagonalizing the augmented Hessian     .... done
Last element of RFO vector              ....  0.983841214
Lowest eigenvalues of augmented Hessian:
 -0.006889933  0.170707637  0.342695783  0.344503347  0.365301842
Length of the computed step             ....  0.181983833
The final length of the internal step   ....  0.181983833
Converting the step to cartesian space:
 Initial RMS(Int)=    0.0687834236
Transforming coordinates:
 Iter   0:  RMS(Cart)=    0.0474629359 RMS(Int)=    0.0616984122
 Iter   1:  RMS(Cart)=    0.0086737907 RMS(Int)=    0.0102143034
 Iter   2:  RMS(Cart)=    0.0080165621 RMS(Int)=    0.0100697280
 Iter   3:  RMS(Cart)=    0.0081691806 RMS(Int)=    0.0102180136
 Iter   4:  RMS(Cart)=    0.0083312316 RMS(Int)=    0.0103635013
 Iter   5:  RMS(Cart)=    0.0084952641 RMS(Int)=    0.0105089305
 Iter   6:  RMS(Cart)=    0.0086625270 RMS(Int)=    0.0106552493
 Iter   7:  RMS(Cart)=    0.0088338799 RMS(Int)=    0.0108033859
 Iter   8:  RMS(Cart)=    0.0090102737 RMS(Int)=    0.0109543683
 Iter   9:  RMS(Cart)=    0.0091927805 RMS(Int)=    0.0111093304
 Iter  10:  RMS(Cart)=    0.0093826064 RMS(Int)=    0.0112695217
 Iter  11:  RMS(Cart)=    0.0095811085 RMS(Int)=    0.0114363199
 Iter  12:  RMS(Cart)=    0.0097898165 RMS(Int)=    0.0116112469
 Iter  13:  RMS(Cart)=    0.0100104589 RMS(Int)=    0.0117959897
 Iter  14:  RMS(Cart)=    0.0102449961 RMS(Int)=    0.0119924251
 Iter  15:  RMS(Cart)=    0.0115376620 RMS(Int)=    0.0135144245
 Iter  16:  RMS(Cart)=    0.0170555850 RMS(Int)=    0.0202287740
 Iter  17:  RMS(Cart)=    0.0257273102 RMS(Int)=    0.0302477505
 Iter  18:  RMS(Cart)=    0.0389108260 RMS(Int)=    0.0450969235
 Iter  19:  RMS(Cart)=    0.0590535789 RMS(Int)=    0.0668697214
 Iter  20:  RMS(Cart)=    0.0900503578 RMS(Int)=    0.0980804849
 Iter  21:  RMS(Cart)=    0.1381638940 RMS(Int)=    0.1406511332
 Iter  22:  RMS(Cart)=    0.2135098583 RMS(Int)=    0.1932350226
 Iter  23:  RMS(Cart)=    0.3266157994 RMS(Int)=    0.2672240146
 Iter  24:  RMS(Cart)=    0.4957285416 RMS(Int)=    0.4396470944
 Iter  25:  RMS(Cart)=    0.7666599422 RMS(Int)=    0.7334008611
 Iter  26:  RMS(Cart) increases - taking linear step, building new B-matrix and trying again
 Initial RMS(Int)=    0.0147450064
Transforming coordinates:
 Iter   0:  RMS(Cart)=    0.0077742958 RMS(Int)=    0.0098327965
 Iter   1:  RMS(Cart)=    0.0009741280 RMS(Int)=    0.0012416877
 Iter   2:  RMS(Cart)=    0.0009854409 RMS(Int)=    0.0012332756
 Iter   3:  RMS(Cart)=    0.0009790026 RMS(Int)=    0.0012260453
 Iter   4:  RMS(Cart)=    0.0009726238 RMS(Int)=    0.0012188560
 Iter   5:  RMS(Cart)=    0.0009662902 RMS(Int)=    0.0012117054
 Iter   6:  RMS(Cart)=    0.0009600003 RMS(Int)=    0.0012045936
 Iter   7:  RMS(Cart)=    0.0009537541 RMS(Int)=    0.0011975215
 Iter   8:  RMS(Cart)=    0.0009475519 RMS(Int)=    0.0011904899
 Iter   9:  RMS(Cart)=    0.0009413943 RMS(Int)=    0.0011834998
 Iter  10:  RMS(Cart)=    0.0009352819 RMS(Int)=    0.0011765525
 Iter  11:  RMS(Cart)=    0.0009292153 RMS(Int)=    0.0011696489
 Iter  12:  RMS(Cart)=    0.0009231952 RMS(Int)=    0.0011627900
 Iter  13:  RMS(Cart)=    0.0009172222 RMS(Int)=    0.0011559769
 Iter  14:  RMS(Cart)=    0.0009112968 RMS(Int)=    0.0011492105
 Iter  15:  RMS(Cart)=    0.0009054197 RMS(Int)=    0.0011424917
 Iter  16:  RMS(Cart)=    0.0008995912 RMS(Int)=    0.0011358214
 Iter  17:  RMS(Cart)=    0.0008938120 RMS(Int)=    0.0011292005
 Iter  18:  RMS(Cart)=    0.0008880824 RMS(Int)=    0.0011226296
 Iter  19:  RMS(Cart)=    0.0008824029 RMS(Int)=    0.0011161096
 Iter  20:  RMS(Cart)=    0.0008767738 RMS(Int)=    0.0011096411
 Iter  21:  RMS(Cart)=    0.0008711955 RMS(Int)=    0.0011032248
 Iter  22:  RMS(Cart)=    0.0008656683 RMS(Int)=    0.0010968613
 Iter  23:  RMS(Cart)=    0.0008601925 RMS(Int)=    0.0010905512
 Iter  24:  RMS(Cart)=    0.0008547684 RMS(Int)=    0.0010842950
 Iter  25:  RMS(Cart)=    0.0008493961 RMS(Int)=    0.0010780933
 Iter  26:  RMS(Cart)=    0.0008440760 RMS(Int)=    0.0010719465
 Iter  27:  RMS(Cart)=    0.0008388081 RMS(Int)=    0.0010658550
 Iter  28:  RMS(Cart)=    0.0008335927 RMS(Int)=    0.0010598192
 Iter  29:  RMS(Cart)=    0.0008284298 RMS(Int)=    0.0010538395
 Iter  30:  RMS(Cart)=    0.0008233196 RMS(Int)=    0.0010479163
 Iter  31:  RMS(Cart)=    0.0008182622 RMS(Int)=    0.0010420498
 Iter  32:  RMS(Cart)=    0.0008132576 RMS(Int)=    0.0010362404
 Iter  33:  RMS(Cart)=    0.0008083059 RMS(Int)=    0.0010304883
 Iter  34:  RMS(Cart)=    0.0008034070 RMS(Int)=    0.0010247937
 Iter  35:  RMS(Cart)=    0.0007985611 RMS(Int)=    0.0010191568
 Iter  36:  RMS(Cart)=    0.0007937681 RMS(Int)=    0.0010135779
 Iter  37:  RMS(Cart)=    0.0007890279 RMS(Int)=    0.0010080570
 Iter  38:  RMS(Cart)=    0.0007843406 RMS(Int)=    0.0010025943
 Iter  39:  RMS(Cart)=    0.0007797061 RMS(Int)=    0.0009971900
 Iter  40:  RMS(Cart)=    0.0007751242 RMS(Int)=    0.0009918441
 Iter  41:  RMS(Cart)=    0.0007705950 RMS(Int)=    0.0009865567
 Iter  42:  RMS(Cart)=    0.0007661184 RMS(Int)=    0.0009813278
 Iter  43:  RMS(Cart)=    0.0007616941 RMS(Int)=    0.0009761576
 Iter  44:  RMS(Cart)=    0.0007573222 RMS(Int)=    0.0009710459
 Iter  45:  RMS(Cart)=    0.0007530025 RMS(Int)=    0.0009659930
 Iter  46:  RMS(Cart)=    0.0007487348 RMS(Int)=    0.0009609986
 Iter  47:  RMS(Cart)=    0.0007445190 RMS(Int)=    0.0009560629
 Iter  48:  RMS(Cart)=    0.0007403549 RMS(Int)=    0.0009511858
 Iter  49:  RMS(Cart)=    0.0007362424 RMS(Int)=    0.0009463672
 Iter  50:  RMS(Cart)=    0.0007321813 RMS(Int)=    0.0009416071
 Iter  51:  RMS(Cart)=    0.0007281714 RMS(Int)=    0.0009369054
 Iter  52:  RMS(Cart)=    0.0007242126 RMS(Int)=    0.0009322620
 Iter  53:  RMS(Cart)=    0.0007203046 RMS(Int)=    0.0009276770
 Iter  54:  RMS(Cart)=    0.0007164473 RMS(Int)=    0.0009231500
 Iter  55:  RMS(Cart)=    0.0007126404 RMS(Int)=    0.0009186812
 Iter  56:  RMS(Cart)=    0.0007088837 RMS(Int)=    0.0009142703
 Iter  57:  RMS(Cart)=    0.0007051771 RMS(Int)=    0.0009099172
 Iter  58:  RMS(Cart)=    0.0007015203 RMS(Int)=    0.0009056218
 Iter  59:  RMS(Cart)=    0.0006979130 RMS(Int)=    0.0009013840
 Iter  60:  RMS(Cart)=    0.0006943552 RMS(Int)=    0.0008972036
 Iter  61:  RMS(Cart)=    0.0006908465 RMS(Int)=    0.0008930804
 Iter  62:  RMS(Cart)=    0.0006873867 RMS(Int)=    0.0008890145
 Iter  63:  RMS(Cart)=    0.0006839757 RMS(Int)=    0.0008850055
 Iter  64:  RMS(Cart)=    0.0006806131 RMS(Int)=    0.0008810533
 Iter  65:  RMS(Cart)=    0.0006772987 RMS(Int)=    0.0008771578
 Iter  66:  RMS(Cart)=    0.0006740324 RMS(Int)=    0.0008733188
 Iter  67:  RMS(Cart)=    0.0006708138 RMS(Int)=    0.0008695362
 Iter  68:  RMS(Cart)=    0.0006676428 RMS(Int)=    0.0008658097
 Iter  69:  RMS(Cart)=    0.0006645191 RMS(Int)=    0.0008621392
 Iter  70:  RMS(Cart)=    0.0006614425 RMS(Int)=    0.0008585246
 Iter  71:  RMS(Cart)=    0.0006584127 RMS(Int)=    0.0008549656
 Iter  72:  RMS(Cart)=    0.0006554296 RMS(Int)=    0.0008514621
 Iter  73:  RMS(Cart)=    0.0006524929 RMS(Int)=    0.0008480139
 Iter  74:  RMS(Cart)=    0.0006496023 RMS(Int)=    0.0008446209
 Iter  75:  RMS(Cart)=    0.0006467577 RMS(Int)=    0.0008412829
 Iter  76:  RMS(Cart)=    0.0006439588 RMS(Int)=    0.0008379997
 Iter  77:  RMS(Cart)=    0.0006412055 RMS(Int)=    0.0008347711
 Iter  78:  RMS(Cart)=    0.0006384974 RMS(Int)=    0.0008315970
 Iter  79:  RMS(Cart)=    0.0006358344 RMS(Int)=    0.0008284772
 Iter  80:  RMS(Cart)=    0.0006332162 RMS(Int)=    0.0008254115
 Iter  81:  RMS(Cart)=    0.0006306427 RMS(Int)=    0.0008223998
 Iter  82:  RMS(Cart)=    0.0006281137 RMS(Int)=    0.0008194420
 Iter  83:  RMS(Cart)=    0.0006256289 RMS(Int)=    0.0008165378
 Iter  84:  RMS(Cart)=    0.0006231881 RMS(Int)=    0.0008136871
 Iter  85:  RMS(Cart)=    0.0006207911 RMS(Int)=    0.0008108898
 Iter  86:  RMS(Cart)=    0.0006184379 RMS(Int)=    0.0008081458
 Iter  87:  RMS(Cart)=    0.0006161280 RMS(Int)=    0.0008054548
 Iter  88:  RMS(Cart)=    0.0006138615 RMS(Int)=    0.0008028167
 Iter  89:  RMS(Cart)=    0.0006116380 RMS(Int)=    0.0008002315
 Iter  90:  RMS(Cart)=    0.0006094575 RMS(Int)=    0.0007976989
 Iter  91:  RMS(Cart)=    0.0006073197 RMS(Int)=    0.0007952189
 Iter  92:  RMS(Cart)=    0.0006052245 RMS(Int)=    0.0007927913
 Iter  93:  RMS(Cart)=    0.0006031718 RMS(Int)=    0.0007904161
 Iter  94:  RMS(Cart)=    0.0006011612 RMS(Int)=    0.0007880930
 Iter  95:  RMS(Cart)=    0.0005991929 RMS(Int)=    0.0007858221
 Iter  96:  RMS(Cart)=    0.0005972664 RMS(Int)=    0.0007836032
 Iter  97:  RMS(Cart)=    0.0005953818 RMS(Int)=    0.0007814363
 Iter  98:  RMS(Cart)=    0.0005935389 RMS(Int)=    0.0007793211
 Iter  99:  RMS(Cart)=    0.0005917376 RMS(Int)=    0.0007772578
 RMS(Cart) too big - taking linear step, building new B-matrix and trying again
 Initial RMS(Int)=    0.0111932056
Transforming coordinates:
 Iter   0:  RMS(Cart)=    0.0089078628 RMS(Int)=    0.0099424651
 Iter   1:  RMS(Cart)=    0.0078385652 RMS(Int)=    0.0097968365
 Iter   2:  RMS(Cart)=    0.0078347806 RMS(Int)=    0.0097406555
 Iter   3:  RMS(Cart)=    0.0078324890 RMS(Int)=    0.0096859682
 Iter   4:  RMS(Cart)=    0.0078317107 RMS(Int)=    0.0096334794
 Iter   5:  RMS(Cart)=    0.0078330204 RMS(Int)=    0.0095839057
 Iter   6:  RMS(Cart)=    0.0078370276 RMS(Int)=    0.0095379529
 Iter   7:  RMS(Cart)=    0.0078443541 RMS(Int)=    0.0094963129
 Iter   8:  RMS(Cart)=    0.0078556318 RMS(Int)=    0.0094596663
 Iter   9:  RMS(Cart)=    0.0078715057 RMS(Int)=    0.0094286874
 Iter  10:  RMS(Cart)=    0.0078926385 RMS(Int)=    0.0094040508
 Iter  11:  RMS(Cart)=    0.0079197166 RMS(Int)=    0.0093864378
 Iter  12:  RMS(Cart)=    0.0079534580 RMS(Int)=    0.0093765454
 Iter  13:  RMS(Cart)=    0.0079946207 RMS(Int)=    0.0093750946
 Iter  14:  RMS(Cart)=    0.0080440124 RMS(Int)=    0.0093828410
 Iter  15:  RMS(Cart)=    0.0081025025 RMS(Int)=    0.0094005853
 Iter  16:  RMS(Cart)=    0.0081710353 RMS(Int)=    0.0094291866
 Iter  17:  RMS(Cart)=    0.0091325642 RMS(Int)=    0.0105371403
 Iter  18:  RMS(Cart)=    0.0134522768 RMS(Int)=    0.0157600107
 Iter  19:  RMS(Cart)=    0.0202299175 RMS(Int)=    0.0235559003
 Iter  20:  RMS(Cart)=    0.0305081511 RMS(Int)=    0.0351491339
 Iter  21:  RMS(Cart)=    0.0461612043 RMS(Int)=    0.0522670091
 Iter  22:  RMS(Cart)=    0.0701541185 RMS(Int)=    0.0771751707
 Iter  23:  RMS(Cart)=    0.1072457764 RMS(Int)=    0.1122811940
 Iter  24:  RMS(Cart)=    0.1651591153 RMS(Int)=    0.1583809685
 Iter  25:  RMS(Cart)=    0.2564075143 RMS(Int)=    0.2150937999
 Iter  26:  RMS(Cart)=    0.3927846021 RMS(Int)=    0.3290504278
 Iter  27:  RMS(Cart)=    0.5973306407 RMS(Int)=    0.5579375661
 Iter  28:  RMS(Cart)=    0.9275553891 RMS(Int)=    0.9209578135
 Iter  29:  RMS(Cart) increases - taking linear step, building new B-matrix and trying again
 Initial RMS(Int)=    0.0148495343
Transforming coordinates:
 Iter   0:  RMS(Cart)=    0.0088997383 RMS(Int)=    0.0099406499
 Iter   1:  RMS(Cart)=    0.0009728744 RMS(Int)=    0.0012428096
 Iter   2:  RMS(Cart)=    0.0009864766 RMS(Int)=    0.0012344310
 Iter   3:  RMS(Cart)=    0.0009802979 RMS(Int)=    0.0012275138
 Iter   4:  RMS(Cart)=    0.0009741630 RMS(Int)=    0.0012206309
 Iter   5:  RMS(Cart)=    0.0009680680 RMS(Int)=    0.0012137816
 Iter   6:  RMS(Cart)=    0.0009620122 RMS(Int)=    0.0012069664
 Iter   7:  RMS(Cart)=    0.0009559958 RMS(Int)=    0.0012001863
 Iter   8:  RMS(Cart)=    0.0009500196 RMS(Int)=    0.0011934424
 Iter   9:  RMS(Cart)=    0.0009440842 RMS(Int)=    0.0011867359
 Iter  10:  RMS(Cart)=    0.0009381903 RMS(Int)=    0.0011800680
 Iter  11:  RMS(Cart)=    0.0009323386 RMS(Int)=    0.0011734398
 Iter  12:  RMS(Cart)=    0.0009265299 RMS(Int)=    0.0011668525
 Iter  13:  RMS(Cart)=    0.0009207648 RMS(Int)=    0.0011603070
 Iter  14:  RMS(Cart)=    0.0009150441 RMS(Int)=    0.0011538044
 Iter  15:  RMS(Cart)=    0.0009093682 RMS(Int)=    0.0011473457
 Iter  16:  RMS(Cart)=    0.0009037378 RMS(Int)=    0.0011409319
 Iter  17:  RMS(Cart)=    0.0008981534 RMS(Int)=    0.0011345638
 Iter  18:  RMS(Cart)=    0.0008926156 RMS(Int)=    0.0011282422
 Iter  19:  RMS(Cart)=    0.0008871248 RMS(Int)=    0.0011219680
 Iter  20:  RMS(Cart)=    0.0008816815 RMS(Int)=    0.0011157420
 Iter  21:  RMS(Cart)=    0.0008762860 RMS(Int)=    0.0011095648
 Iter  22:  RMS(Cart)=    0.0008709389 RMS(Int)=    0.0011034371
 Iter  23:  RMS(Cart)=    0.0008656403 RMS(Int)=    0.0010973597
 Iter  24:  RMS(Cart)=    0.0008603907 RMS(Int)=    0.0010913330
 Iter  25:  RMS(Cart)=    0.0008551903 RMS(Int)=    0.0010853578
 Iter  26:  RMS(Cart)=    0.0008500394 RMS(Int)=    0.0010794344
 Iter  27:  RMS(Cart)=    0.0008449383 RMS(Int)=    0.0010735634
 Iter  28:  RMS(Cart)=    0.0008398871 RMS(Int)=    0.0010677453
 Iter  29:  RMS(Cart)=    0.0008348861 RMS(Int)=    0.0010619806
 Iter  30:  RMS(Cart)=    0.0008299354 RMS(Int)=    0.0010562696
 Iter  31:  RMS(Cart)=    0.0008250352 RMS(Int)=    0.0010506126
 Iter  32:  RMS(Cart)=    0.0008201856 RMS(Int)=    0.0010450102
 Iter  33:  RMS(Cart)=    0.0008153867 RMS(Int)=    0.0010394625
 Iter  34:  RMS(Cart)=    0.0008106386 RMS(Int)=    0.0010339699
 Iter  35:  RMS(Cart)=    0.0008059414 RMS(Int)=    0.0010285327
 Iter  36:  RMS(Cart)=    0.0008012950 RMS(Int)=    0.0010231511
 Iter  37:  RMS(Cart)=    0.0007966997 RMS(Int)=    0.0010178253
 Iter  38:  RMS(Cart)=    0.0007921553 RMS(Int)=    0.0010125555
 Iter  39:  RMS(Cart)=    0.0007876619 RMS(Int)=    0.0010073420
 Iter  40:  RMS(Cart)=    0.0007832194 RMS(Int)=    0.0010021849
 Iter  41:  RMS(Cart)=    0.0007788279 RMS(Int)=    0.0009970843
 Iter  42:  RMS(Cart)=    0.0007744873 RMS(Int)=    0.0009920403
 Iter  43:  RMS(Cart)=    0.0007701976 RMS(Int)=    0.0009870531
 Iter  44:  RMS(Cart)=    0.0007659586 RMS(Int)=    0.0009821228
 Iter  45:  RMS(Cart)=    0.0007617703 RMS(Int)=    0.0009772494
 Iter  46:  RMS(Cart)=    0.0007576327 RMS(Int)=    0.0009724331
 Iter  47:  RMS(Cart)=    0.0007535456 RMS(Int)=    0.0009676737
 Iter  48:  RMS(Cart)=    0.0007495090 RMS(Int)=    0.0009629715
 Iter  49:  RMS(Cart)=    0.0007455227 RMS(Int)=    0.0009583263
 Iter  50:  RMS(Cart)=    0.0007415866 RMS(Int)=    0.0009537383
 Iter  51:  RMS(Cart)=    0.0007377006 RMS(Int)=    0.0009492073
 Iter  52:  RMS(Cart)=    0.0007338645 RMS(Int)=    0.0009447335
 Iter  53:  RMS(Cart)=    0.0007300782 RMS(Int)=    0.0009403167
 Iter  54:  RMS(Cart)=    0.0007263416 RMS(Int)=    0.0009359570
 Iter  55:  RMS(Cart)=    0.0007226545 RMS(Int)=    0.0009316542
 Iter  56:  RMS(Cart)=    0.0007190168 RMS(Int)=    0.0009274084
 Iter  57:  RMS(Cart)=    0.0007154283 RMS(Int)=    0.0009232195
 Iter  58:  RMS(Cart)=    0.0007118888 RMS(Int)=    0.0009190874
 Iter  59:  RMS(Cart)=    0.0007083981 RMS(Int)=    0.0009150120
 Iter  60:  RMS(Cart)=    0.0007049562 RMS(Int)=    0.0009109933
 Iter  61:  RMS(Cart)=    0.0007015627 RMS(Int)=    0.0009070313
 Iter  62:  RMS(Cart)=    0.0006982176 RMS(Int)=    0.0009031257
 Iter  63:  RMS(Cart)=    0.0006949207 RMS(Int)=    0.0008992765
 Iter  64:  RMS(Cart)=    0.0006916717 RMS(Int)=    0.0008954836
 Iter  65:  RMS(Cart)=    0.0006884706 RMS(Int)=    0.0008917470
 Iter  66:  RMS(Cart)=    0.0006853170 RMS(Int)=    0.0008880664
 Iter  67:  RMS(Cart)=    0.0006822109 RMS(Int)=    0.0008844419
 Iter  68:  RMS(Cart)=    0.0006791520 RMS(Int)=    0.0008808732
 Iter  69:  RMS(Cart)=    0.0006761402 RMS(Int)=    0.0008773604
 Iter  70:  RMS(Cart)=    0.0006731753 RMS(Int)=    0.0008739032
 Iter  71:  RMS(Cart)=    0.0006702570 RMS(Int)=    0.0008705016
 Iter  72:  RMS(Cart)=    0.0006673853 RMS(Int)=    0.0008671554
 Iter  73:  RMS(Cart)=    0.0006645598 RMS(Int)=    0.0008638646
 Iter  74:  RMS(Cart)=    0.0006617806 RMS(Int)=    0.0008606290
 Iter  75:  RMS(Cart)=    0.0006590472 RMS(Int)=    0.0008574485
 Iter  76:  RMS(Cart)=    0.0006563597 RMS(Int)=    0.0008543230
 Iter  77:  RMS(Cart)=    0.0006537178 RMS(Int)=    0.0008512524
 Iter  78:  RMS(Cart)=    0.0006511213 RMS(Int)=    0.0008482365
 Iter  79:  RMS(Cart)=    0.0006485701 RMS(Int)=    0.0008452754
 Iter  80:  RMS(Cart)=    0.0006460639 RMS(Int)=    0.0008423688
 Iter  81:  RMS(Cart)=    0.0006436028 RMS(Int)=    0.0008395167
 Iter  82:  RMS(Cart)=    0.0006411863 RMS(Int)=    0.0008367189
 Iter  83:  RMS(Cart)=    0.0006388145 RMS(Int)=    0.0008339755
 Iter  84:  RMS(Cart)=    0.0006364871 RMS(Int)=    0.0008312862
 Iter  85:  RMS(Cart)=    0.0006342041 RMS(Int)=    0.0008286509
 Iter  86:  RMS(Cart)=    0.0006319651 RMS(Int)=    0.0008260697
 Iter  87:  RMS(Cart)=    0.0006297702 RMS(Int)=    0.0008235424
 Iter  88:  RMS(Cart)=    0.0006276192 RMS(Int)=    0.0008210690
 Iter  89:  RMS(Cart)=    0.0006255119 RMS(Int)=    0.0008186493
 Iter  90:  RMS(Cart)=    0.0006234482 RMS(Int)=    0.0008162833
 Iter  91:  RMS(Cart)=    0.0006214279 RMS(Int)=    0.0008139709
 Iter  92:  RMS(Cart)=    0.0006194511 RMS(Int)=    0.0008117122
 Iter  93:  RMS(Cart)=    0.0006175174 RMS(Int)=    0.0008095069
 Iter  94:  RMS(Cart)=    0.0006156269 RMS(Int)=    0.0008073552
 Iter  95:  RMS(Cart)=    0.0006137795 RMS(Int)=    0.0008052569
 Iter  96:  RMS(Cart)=    0.0006119749 RMS(Int)=    0.0008032120
 Iter  97:  RMS(Cart)=    0.0006102132 RMS(Int)=    0.0008012205
 Iter  98:  RMS(Cart)=    0.0006084942 RMS(Int)=    0.0007992823
 Iter  99:  RMS(Cart)=    0.0006068179 RMS(Int)=    0.0007973976
 RMS(Cart) too big - taking linear step, building new B-matrix and trying again
 Initial RMS(Int)=    0.0111788904
Transforming coordinates:
 Iter   0:  RMS(Cart)=    0.0088995951 RMS(Int)=    0.0099403362
 Iter   1:  RMS(Cart)=    0.0078387325 RMS(Int)=    0.0097971103
 Iter   2:  RMS(Cart)=    0.0078350969 RMS(Int)=    0.0097409635
 Iter   3:  RMS(Cart)=    0.0078328346 RMS(Int)=    0.0096862758
 Iter   4:  RMS(Cart)=    0.0078320582 RMS(Int)=    0.0096337736
 Iter   5:  RMS(Cart)=    0.0078333588 RMS(Int)=    0.0095841803
 Iter   6:  RMS(Cart)=    0.0078373514 RMS(Int)=    0.0095382047
 Iter   7:  RMS(Cart)=    0.0078446601 RMS(Int)=    0.0094965400
 Iter   8:  RMS(Cart)=    0.0078559178 RMS(Int)=    0.0094598675
 Iter   9:  RMS(Cart)=    0.0078717700 RMS(Int)=    0.0094288617
 Iter  10:  RMS(Cart)=    0.0078928795 RMS(Int)=    0.0094041972
 Iter  11:  RMS(Cart)=    0.0079199329 RMS(Int)=    0.0093865555
 Iter  12:  RMS(Cart)=    0.0079536483 RMS(Int)=    0.0093766333
 Iter  13:  RMS(Cart)=    0.0079947832 RMS(Int)=    0.0093751517
 Iter  14:  RMS(Cart)=    0.0080441455 RMS(Int)=    0.0093828657
 Iter  15:  RMS(Cart)=    0.0081026041 RMS(Int)=    0.0094005761
 Iter  16:  RMS(Cart)=    0.0081711031 RMS(Int)=    0.0094291416
 Iter  17:  RMS(Cart)=    0.0092183297 RMS(Int)=    0.0105851460
 Iter  18:  RMS(Cart)=    0.0135208384 RMS(Int)=    0.0158038883
 Iter  19:  RMS(Cart)=    0.0202900692 RMS(Int)=    0.0236052965
 Iter  20:  RMS(Cart)=    0.0305735710 RMS(Int)=    0.0352130812
 Iter  21:  RMS(Cart)=    0.0462459893 RMS(Int)=    0.0523551752
 Iter  22:  RMS(Cart)=    0.0702750119 RMS(Int)=    0.0772985583
 Iter  23:  RMS(Cart)=    0.1074259494 RMS(Int)=    0.1124504367
 Iter  24:  RMS(Cart)=    0.1654342352 RMS(Int)=    0.1585939465
 Iter  25:  RMS(Cart)=    0.2568346871 RMS(Int)=    0.2153459922
 Iter  26:  RMS(Cart)=    0.3934107202 RMS(Int)=    0.3297501356
 Iter  27:  RMS(Cart)=    0.5983359639 RMS(Int)=    0.5590839891
 Iter  28:  RMS(Cart)=    0.9292430367 RMS(Int)=    0.9204490636
 Iter  29:  RMS(Cart) increases - taking linear step, building new B-matrix and trying again
 Initial RMS(Int)=    0.0148492984
Transforming coordinates:
 Iter   0:  RMS(Cart)=    0.0088996332 RMS(Int)=    0.0099403739
 Iter   1:  RMS(Cart)=    0.0009728418 RMS(Int)=    0.0012427836
 Iter   2:  RMS(Cart)=    0.0009864625 RMS(Int)=    0.0012344137
 Iter   3:  RMS(Cart)=    0.0009802906 RMS(Int)=    0.0012275011
 Iter   4:  RMS(Cart)=    0.0009741593 RMS(Int)=    0.0012206213
 Iter   5:  RMS(Cart)=    0.0009680666 RMS(Int)=    0.0012137742
 Iter   6:  RMS(Cart)=    0.0009620125 RMS(Int)=    0.0012069607
 Iter   7:  RMS(Cart)=    0.0009559976 RMS(Int)=    0.0012001820
 Iter   8:  RMS(Cart)=    0.0009500225 RMS(Int)=    0.0011934394
 Iter   9:  RMS(Cart)=    0.0009440880 RMS(Int)=    0.0011867341
 Iter  10:  RMS(Cart)=    0.0009381949 RMS(Int)=    0.0011800672
 Iter  11:  RMS(Cart)=    0.0009323440 RMS(Int)=    0.0011734399
 Iter  12:  RMS(Cart)=    0.0009265360 RMS(Int)=    0.0011668534
 Iter  13:  RMS(Cart)=    0.0009207716 RMS(Int)=    0.0011603087
 Iter  14:  RMS(Cart)=    0.0009150514 RMS(Int)=    0.0011538069
 Iter  15:  RMS(Cart)=    0.0009093761 RMS(Int)=    0.0011473489
 Iter  16:  RMS(Cart)=    0.0009037462 RMS(Int)=    0.0011409358
 Iter  17:  RMS(Cart)=    0.0008981623 RMS(Int)=    0.0011345683
 Iter  18:  RMS(Cart)=    0.0008926250 RMS(Int)=    0.0011282474
 Iter  19:  RMS(Cart)=    0.0008871347 RMS(Int)=    0.0011219738
 Iter  20:  RMS(Cart)=    0.0008816918 RMS(Int)=    0.0011157484
 Iter  21:  RMS(Cart)=    0.0008762968 RMS(Int)=    0.0011095718
 Iter  22:  RMS(Cart)=    0.0008709500 RMS(Int)=    0.0011034447
 Iter  23:  RMS(Cart)=    0.0008656519 RMS(Int)=    0.0010973678
 Iter  24:  RMS(Cart)=    0.0008604026 RMS(Int)=    0.0010913417
 Iter  25:  RMS(Cart)=    0.0008552026 RMS(Int)=    0.0010853669
 Iter  26:  RMS(Cart)=    0.0008500521 RMS(Int)=    0.0010794440
 Iter  27:  RMS(Cart)=    0.0008449513 RMS(Int)=    0.0010735736
 Iter  28:  RMS(Cart)=    0.0008399005 RMS(Int)=    0.0010677560
 Iter  29:  RMS(Cart)=    0.0008348998 RMS(Int)=    0.0010619917
 Iter  30:  RMS(Cart)=    0.0008299494 RMS(Int)=    0.0010562811
 Iter  31:  RMS(Cart)=    0.0008250495 RMS(Int)=    0.0010506246
 Iter  32:  RMS(Cart)=    0.0008202002 RMS(Int)=    0.0010450226
 Iter  33:  RMS(Cart)=    0.0008154016 RMS(Int)=    0.0010394753
 Iter  34:  RMS(Cart)=    0.0008106538 RMS(Int)=    0.0010339831
 Iter  35:  RMS(Cart)=    0.0008059568 RMS(Int)=    0.0010285463
 Iter  36:  RMS(Cart)=    0.0008013108 RMS(Int)=    0.0010231651
 Iter  37:  RMS(Cart)=    0.0007967157 RMS(Int)=    0.0010178397
 Iter  38:  RMS(Cart)=    0.0007921715 RMS(Int)=    0.0010125703
 Iter  39:  RMS(Cart)=    0.0007876784 RMS(Int)=    0.0010073571
 Iter  40:  RMS(Cart)=    0.0007832361 RMS(Int)=    0.0010022004
 Iter  41:  RMS(Cart)=    0.0007788449 RMS(Int)=    0.0009971001
 Iter  42:  RMS(Cart)=    0.0007745045 RMS(Int)=    0.0009920565
 Iter  43:  RMS(Cart)=    0.0007702149 RMS(Int)=    0.0009870696
 Iter  44:  RMS(Cart)=    0.0007659762 RMS(Int)=    0.0009821396
 Iter  45:  RMS(Cart)=    0.0007617881 RMS(Int)=    0.0009772666
 Iter  46:  RMS(Cart)=    0.0007576507 RMS(Int)=    0.0009724505
 Iter  47:  RMS(Cart)=    0.0007535638 RMS(Int)=    0.0009676915
 Iter  48:  RMS(Cart)=    0.0007495274 RMS(Int)=    0.0009629895
 Iter  49:  RMS(Cart)=    0.0007455412 RMS(Int)=    0.0009583446
 Iter  50:  RMS(Cart)=    0.0007416053 RMS(Int)=    0.0009537568
 Iter  51:  RMS(Cart)=    0.0007377194 RMS(Int)=    0.0009492262
 Iter  52:  RMS(Cart)=    0.0007338835 RMS(Int)=    0.0009447526
 Iter  53:  RMS(Cart)=    0.0007300974 RMS(Int)=    0.0009403360
 Iter  54:  RMS(Cart)=    0.0007263610 RMS(Int)=    0.0009359765
 Iter  55:  RMS(Cart)=    0.0007226740 RMS(Int)=    0.0009316740
 Iter  56:  RMS(Cart)=    0.0007190364 RMS(Int)=    0.0009274285
 Iter  57:  RMS(Cart)=    0.0007154480 RMS(Int)=    0.0009232398
 Iter  58:  RMS(Cart)=    0.0007119086 RMS(Int)=    0.0009191079
 Iter  59:  RMS(Cart)=    0.0007084181 RMS(Int)=    0.0009150327
 Iter  60:  RMS(Cart)=    0.0007049763 RMS(Int)=    0.0009110143
 Iter  61:  RMS(Cart)=    0.0007015830 RMS(Int)=    0.0009070524
 Iter  62:  RMS(Cart)=    0.0006982380 RMS(Int)=    0.0009031470
 Iter  63:  RMS(Cart)=    0.0006949411 RMS(Int)=    0.0008992980
 Iter  64:  RMS(Cart)=    0.0006916923 RMS(Int)=    0.0008955053
 Iter  65:  RMS(Cart)=    0.0006884912 RMS(Int)=    0.0008917688
 Iter  66:  RMS(Cart)=    0.0006853378 RMS(Int)=    0.0008880884
 Iter  67:  RMS(Cart)=    0.0006822317 RMS(Int)=    0.0008844640
 Iter  68:  RMS(Cart)=    0.0006791729 RMS(Int)=    0.0008808956
 Iter  69:  RMS(Cart)=    0.0006761612 RMS(Int)=    0.0008773828
 Iter  70:  RMS(Cart)=    0.0006731963 RMS(Int)=    0.0008739258
 Iter  71:  RMS(Cart)=    0.0006702781 RMS(Int)=    0.0008705243
 Iter  72:  RMS(Cart)=    0.0006674065 RMS(Int)=    0.0008671783
 Iter  73:  RMS(Cart)=    0.0006645811 RMS(Int)=    0.0008638876
 Iter  74:  RMS(Cart)=    0.0006618019 RMS(Int)=    0.0008606521
 Iter  75:  RMS(Cart)=    0.0006590686 RMS(Int)=    0.0008574717
 Iter  76:  RMS(Cart)=    0.0006563811 RMS(Int)=    0.0008543463
 Iter  77:  RMS(Cart)=    0.0006537393 RMS(Int)=    0.0008512758
 Iter  78:  RMS(Cart)=    0.0006511428 RMS(Int)=    0.0008482601
 Iter  79:  RMS(Cart)=    0.0006485916 RMS(Int)=    0.0008452991
 Iter  80:  RMS(Cart)=    0.0006460856 RMS(Int)=    0.0008423926
 Iter  81:  RMS(Cart)=    0.0006436244 RMS(Int)=    0.0008395405
 Iter  82:  RMS(Cart)=    0.0006412080 RMS(Int)=    0.0008367429
 Iter  83:  RMS(Cart)=    0.0006388362 RMS(Int)=    0.0008339995
 Iter  84:  RMS(Cart)=    0.0006365088 RMS(Int)=    0.0008313103
 Iter  85:  RMS(Cart)=    0.0006342258 RMS(Int)=    0.0008286751
 Iter  86:  RMS(Cart)=    0.0006319869 RMS(Int)=    0.0008260939
 Iter  87:  RMS(Cart)=    0.0006297920 RMS(Int)=    0.0008235667
 Iter  88:  RMS(Cart)=    0.0006276410 RMS(Int)=    0.0008210933
 Iter  89:  RMS(Cart)=    0.0006255337 RMS(Int)=    0.0008186737
 Iter  90:  RMS(Cart)=    0.0006234700 RMS(Int)=    0.0008163077
 Iter  91:  RMS(Cart)=    0.0006214498 RMS(Int)=    0.0008139954
 Iter  92:  RMS(Cart)=    0.0006194729 RMS(Int)=    0.0008117367
 Iter  93:  RMS(Cart)=    0.0006175392 RMS(Int)=    0.0008095315
 Iter  94:  RMS(Cart)=    0.0006156487 RMS(Int)=    0.0008073798
 Iter  95:  RMS(Cart)=    0.0006138013 RMS(Int)=    0.0008052815
 Iter  96:  RMS(Cart)=    0.0006119967 RMS(Int)=    0.0008032366
 Iter  97:  RMS(Cart)=    0.0006102350 RMS(Int)=    0.0008012451
 Iter  98:  RMS(Cart)=    0.0006085160 RMS(Int)=    0.0007993070
 Iter  99:  RMS(Cart)=    0.0006068397 RMS(Int)=    0.0007974223
 RMS(Cart) too big - taking linear step, building new B-matrix and trying again
 Initial RMS(Int)=    0.0111788401
Transforming coordinates:
 Iter   0:  RMS(Cart)=    0.0088994263 RMS(Int)=    0.0099400611
 Iter   1:  RMS(Cart)=    0.0078389578 RMS(Int)=    0.0097973651
 Iter   2:  RMS(Cart)=    0.0078354828 RMS(Int)=    0.0097412950
 Iter   3:  RMS(Cart)=    0.0078332820 RMS(Int)=    0.0096866520
 Iter   4:  RMS(Cart)=    0.0078325419 RMS(Int)=    0.0096341812
 Iter   5:  RMS(Cart)=    0.0078338681 RMS(Int)=    0.0095846121
 Iter   6:  RMS(Cart)=    0.0078378802 RMS(Int)=    0.0095386558
 Iter   7:  RMS(Cart)=    0.0078452042 RMS(Int)=    0.0094970067
 Iter   8:  RMS(Cart)=    0.0078564740 RMS(Int)=    0.0094603465
 Iter   9:  RMS(Cart)=    0.0078723354 RMS(Int)=    0.0094293502
 Iter  10:  RMS(Cart)=    0.0078934512 RMS(Int)=    0.0094046921
 Iter  11:  RMS(Cart)=    0.0079205083 RMS(Int)=    0.0093870540
 Iter  12:  RMS(Cart)=    0.0079542245 RMS(Int)=    0.0093771323
 Iter  13:  RMS(Cart)=    0.0079953574 RMS(Int)=    0.0093756481
 Iter  14:  RMS(Cart)=    0.0080447145 RMS(Int)=    0.0093833562
 Iter  15:  RMS(Cart)=    0.0081031646 RMS(Int)=    0.0094010572
 Iter  16:  RMS(Cart)=    0.0081716515 RMS(Int)=    0.0094296095
 Iter  17:  RMS(Cart)=    0.0093868548 RMS(Int)=    0.0107177706
 Iter  18:  RMS(Cart)=    0.0136685276 RMS(Int)=    0.0159114907
 Iter  19:  RMS(Cart)=    0.0204361293 RMS(Int)=    0.0237390225
 Iter  20:  RMS(Cart)=    0.0307511984 RMS(Int)=    0.0353957242
 Iter  21:  RMS(Cart)=    0.0464914605 RMS(Int)=    0.0526138326
 Iter  22:  RMS(Cart)=    0.0706365028 RMS(Int)=    0.0776650382
 Iter  23:  RMS(Cart)=    0.1079746823 RMS(Int)=    0.1129536331
 Iter  24:  RMS(Cart)=    0.1662825125 RMS(Int)=    0.1592241912
 Iter  25:  RMS(Cart)=    0.2581625591 RMS(Int)=    0.2161427141
 Iter  26:  RMS(Cart)=    0.3953188745 RMS(Int)=    0.3318383999
 Iter  27:  RMS(Cart)=    0.6013878546 RMS(Int)=    0.5625204826
 Iter  28:  RMS(Cart)=    0.9343323851 RMS(Int)=    0.9233374213
 Iter  29:  RMS(Cart) increases - taking linear step, building new B-matrix and trying again
 Initial RMS(Int)=    0.0148490639
Transforming coordinates:
 Iter   0:  RMS(Cart)=    0.0088994715 RMS(Int)=    0.0099400911
 Iter   1:  RMS(Cart)=    0.0009728178 RMS(Int)=    0.0012427632
 Iter   2:  RMS(Cart)=    0.0009864534 RMS(Int)=    0.0012344006
 Iter   3:  RMS(Cart)=    0.0009802871 RMS(Int)=    0.0012274918
 Iter   4:  RMS(Cart)=    0.0009741589 RMS(Int)=    0.0012206145
 Iter   5:  RMS(Cart)=    0.0009680682 RMS(Int)=    0.0012137693
 Iter   6:  RMS(Cart)=    0.0009620156 RMS(Int)=    0.0012069574
 Iter   7:  RMS(Cart)=    0.0009560018 RMS(Int)=    0.0012001800
 Iter   8:  RMS(Cart)=    0.0009500276 RMS(Int)=    0.0011934385
 Iter   9:  RMS(Cart)=    0.0009440940 RMS(Int)=    0.0011867341
 Iter  10:  RMS(Cart)=    0.0009382017 RMS(Int)=    0.0011800682
 Iter  11:  RMS(Cart)=    0.0009323515 RMS(Int)=    0.0011734417
 Iter  12:  RMS(Cart)=    0.0009265441 RMS(Int)=    0.0011668560
 Iter  13:  RMS(Cart)=    0.0009207802 RMS(Int)=    0.0011603121
 Iter  14:  RMS(Cart)=    0.0009150606 RMS(Int)=    0.0011538109
 Iter  15:  RMS(Cart)=    0.0009093858 RMS(Int)=    0.0011473537
 Iter  16:  RMS(Cart)=    0.0009037564 RMS(Int)=    0.0011409412
 Iter  17:  RMS(Cart)=    0.0008981730 RMS(Int)=    0.0011345743
 Iter  18:  RMS(Cart)=    0.0008926361 RMS(Int)=    0.0011282540
 Iter  19:  RMS(Cart)=    0.0008871462 RMS(Int)=    0.0011219810
 Iter  20:  RMS(Cart)=    0.0008817037 RMS(Int)=    0.0011157561
 Iter  21:  RMS(Cart)=    0.0008763091 RMS(Int)=    0.0011095801
 Iter  22:  RMS(Cart)=    0.0008709627 RMS(Int)=    0.0011034535
 Iter  23:  RMS(Cart)=    0.0008656649 RMS(Int)=    0.0010973771
 Iter  24:  RMS(Cart)=    0.0008604160 RMS(Int)=    0.0010913515
 Iter  25:  RMS(Cart)=    0.0008552164 RMS(Int)=    0.0010853772
 Iter  26:  RMS(Cart)=    0.0008500662 RMS(Int)=    0.0010794548
 Iter  27:  RMS(Cart)=    0.0008449657 RMS(Int)=    0.0010735848
 Iter  28:  RMS(Cart)=    0.0008399152 RMS(Int)=    0.0010677677
 Iter  29:  RMS(Cart)=    0.0008349148 RMS(Int)=    0.0010620038
 Iter  30:  RMS(Cart)=    0.0008299647 RMS(Int)=    0.0010562937
 Iter  31:  RMS(Cart)=    0.0008250651 RMS(Int)=    0.0010506376
 Iter  32:  RMS(Cart)=    0.0008202161 RMS(Int)=    0.0010450360
 Iter  33:  RMS(Cart)=    0.0008154178 RMS(Int)=    0.0010394892
 Iter  34:  RMS(Cart)=    0.0008106702 RMS(Int)=    0.0010339974
 Iter  35:  RMS(Cart)=    0.0008059735 RMS(Int)=    0.0010285609
 Iter  36:  RMS(Cart)=    0.0008013277 RMS(Int)=    0.0010231801
 Iter  37:  RMS(Cart)=    0.0007967328 RMS(Int)=    0.0010178550
 Iter  38:  RMS(Cart)=    0.0007921889 RMS(Int)=    0.0010125860
 Iter  39:  RMS(Cart)=    0.0007876960 RMS(Int)=    0.0010073732
 Iter  40:  RMS(Cart)=    0.0007832540 RMS(Int)=    0.0010022167
 Iter  41:  RMS(Cart)=    0.0007788629 RMS(Int)=    0.0009971168
 Iter  42:  RMS(Cart)=    0.0007745227 RMS(Int)=    0.0009920735
 Iter  43:  RMS(Cart)=    0.0007702334 RMS(Int)=    0.0009870869
 Iter  44:  RMS(Cart)=    0.0007659948 RMS(Int)=    0.0009821573
 Iter  45:  RMS(Cart)=    0.0007618070 RMS(Int)=    0.0009772845
 Iter  46:  RMS(Cart)=    0.0007576697 RMS(Int)=    0.0009724687
 Iter  47:  RMS(Cart)=    0.0007535830 RMS(Int)=    0.0009677099
 Iter  48:  RMS(Cart)=    0.0007495467 RMS(Int)=    0.0009630082
 Iter  49:  RMS(Cart)=    0.0007455607 RMS(Int)=    0.0009583636
 Iter  50:  RMS(Cart)=    0.0007416249 RMS(Int)=    0.0009537761
 Iter  51:  RMS(Cart)=    0.0007377392 RMS(Int)=    0.0009492456
 Iter  52:  RMS(Cart)=    0.0007339035 RMS(Int)=    0.0009447723
 Iter  53:  RMS(Cart)=    0.0007301175 RMS(Int)=    0.0009403560
 Iter  54:  RMS(Cart)=    0.0007263812 RMS(Int)=    0.0009359967
 Iter  55:  RMS(Cart)=    0.0007226943 RMS(Int)=    0.0009316944
 Iter  56:  RMS(Cart)=    0.0007190569 RMS(Int)=    0.0009274490
 Iter  57:  RMS(Cart)=    0.0007154686 RMS(Int)=    0.0009232605
 Iter  58:  RMS(Cart)=    0.0007119293 RMS(Int)=    0.0009191288
 Iter  59:  RMS(Cart)=    0.0007084389 RMS(Int)=    0.0009150539
 Iter  60:  RMS(Cart)=    0.0007049971 RMS(Int)=    0.0009110356
 Iter  61:  RMS(Cart)=    0.0007016039 RMS(Int)=    0.0009070739
 Iter  62:  RMS(Cart)=    0.0006982590 RMS(Int)=    0.0009031686
 Iter  63:  RMS(Cart)=    0.0006949623 RMS(Int)=    0.0008993198
 Iter  64:  RMS(Cart)=    0.0006917135 RMS(Int)=    0.0008955273
 Iter  65:  RMS(Cart)=    0.0006885125 RMS(Int)=    0.0008917909
 Iter  66:  RMS(Cart)=    0.0006853591 RMS(Int)=    0.0008881107
 Iter  67:  RMS(Cart)=    0.0006822531 RMS(Int)=    0.0008844865
 Iter  68:  RMS(Cart)=    0.0006791944 RMS(Int)=    0.0008809181
 Iter  69:  RMS(Cart)=    0.0006761827 RMS(Int)=    0.0008774055
 Iter  70:  RMS(Cart)=    0.0006732179 RMS(Int)=    0.0008739486
 Iter  71:  RMS(Cart)=    0.0006702998 RMS(Int)=    0.0008705472
 Iter  72:  RMS(Cart)=    0.0006674281 RMS(Int)=    0.0008672013
 Iter  73:  RMS(Cart)=    0.0006646028 RMS(Int)=    0.0008639107
 Iter  74:  RMS(Cart)=    0.0006618236 RMS(Int)=    0.0008606753
 Iter  75:  RMS(Cart)=    0.0006590904 RMS(Int)=    0.0008574950
 Iter  76:  RMS(Cart)=    0.0006564029 RMS(Int)=    0.0008543697
 Iter  77:  RMS(Cart)=    0.0006537611 RMS(Int)=    0.0008512993
 Iter  78:  RMS(Cart)=    0.0006511647 RMS(Int)=    0.0008482836
 Iter  79:  RMS(Cart)=    0.0006486135 RMS(Int)=    0.0008453226
 Iter  80:  RMS(Cart)=    0.0006461074 RMS(Int)=    0.0008424162
 Iter  81:  RMS(Cart)=    0.0006436463 RMS(Int)=    0.0008395642
 Iter  82:  RMS(Cart)=    0.0006412299 RMS(Int)=    0.0008367666
 Iter  83:  RMS(Cart)=    0.0006388581 RMS(Int)=    0.0008340233
 Iter  84:  RMS(Cart)=    0.0006365307 RMS(Int)=    0.0008313341
 Iter  85:  RMS(Cart)=    0.0006342477 RMS(Int)=    0.0008286990
 Iter  86:  RMS(Cart)=    0.0006320088 RMS(Int)=    0.0008261179
 Iter  87:  RMS(Cart)=    0.0006298139 RMS(Int)=    0.0008235906
 Iter  88:  RMS(Cart)=    0.0006276628 RMS(Int)=    0.0008211173
 Iter  89:  RMS(Cart)=    0.0006255555 RMS(Int)=    0.0008186976
 Iter  90:  RMS(Cart)=    0.0006234918 RMS(Int)=    0.0008163317
 Iter  91:  RMS(Cart)=    0.0006214715 RMS(Int)=    0.0008140194
 Iter  92:  RMS(Cart)=    0.0006194946 RMS(Int)=    0.0008117607
 Iter  93:  RMS(Cart)=    0.0006175610 RMS(Int)=    0.0008095555
 Iter  94:  RMS(Cart)=    0.0006156704 RMS(Int)=    0.0008074038
 Iter  95:  RMS(Cart)=    0.0006138229 RMS(Int)=    0.0008053055
 Iter  96:  RMS(Cart)=    0.0006120183 RMS(Int)=    0.0008032606
 Iter  97:  RMS(Cart)=    0.0006102565 RMS(Int)=    0.0008012691
 Iter  98:  RMS(Cart)=    0.0006085375 RMS(Int)=    0.0007993310
 Iter  99:  RMS(Cart)=    0.0006068611 RMS(Int)=    0.0007974462
 RMS(Cart) too big - taking linear step, building new B-matrix and trying again
 Initial RMS(Int)=    0.0111788006
Transforming coordinates:
 Iter   0:  RMS(Cart)=    0.0088993180 RMS(Int)=    0.0099398361
 Iter   1:  RMS(Cart)=    0.0078392630 RMS(Int)=    0.0097975777
 Iter   2:  RMS(Cart)=    0.0078359254 RMS(Int)=    0.0097415806
 Iter   3:  RMS(Cart)=    0.0078337819 RMS(Int)=    0.0096869845
 Iter   4:  RMS(Cart)=    0.0078330782 RMS(Int)=    0.0096345495
 Iter   5:  RMS(Cart)=    0.0078344315 RMS(Int)=    0.0095850095
 Iter   6:  RMS(Cart)=    0.0078384649 RMS(Int)=    0.0095390776
 Iter   7:  RMS(Cart)=    0.0078458057 RMS(Int)=    0.0094974485
 Iter   8:  RMS(Cart)=    0.0078570884 RMS(Int)=    0.0094608044
 Iter   9:  RMS(Cart)=    0.0078729587 RMS(Int)=    0.0094298199
 Iter  10:  RMS(Cart)=    0.0078940797 RMS(Int)=    0.0094051696
 Iter  11:  RMS(Cart)=    0.0079211377 RMS(Int)=    0.0093875347
 Iter  12:  RMS(Cart)=    0.0079548505 RMS(Int)=    0.0093776116
 Iter  13:  RMS(Cart)=    0.0079959752 RMS(Int)=    0.0093761208
 Iter  14:  RMS(Cart)=    0.0080453191 RMS(Int)=    0.0093838169
 Iter  15:  RMS(Cart)=    0.0081037505 RMS(Int)=    0.0094015000
 Iter  16:  RMS(Cart)=    0.0081722125 RMS(Int)=    0.0094300281
 Iter  17:  RMS(Cart)=    0.0096378115 RMS(Int)=    0.0109709195
 Iter  18:  RMS(Cart)=    0.0139275004 RMS(Int)=    0.0161125025
 Iter  19:  RMS(Cart)=    0.0207085781 RMS(Int)=    0.0239995615
 Iter  20:  RMS(Cart)=    0.0310985077 RMS(Int)=    0.0357589512
 Iter  21:  RMS(Cart)=    0.0469830781 RMS(Int)=    0.0531333516
 Iter  22:  RMS(Cart)=    0.0713689461 RMS(Int)=    0.0784043768
 Iter  23:  RMS(Cart)=    0.1090940323 RMS(Int)=    0.1139686428
 Iter  24:  RMS(Cart)=    0.1680209720 RMS(Int)=    0.1604909833
 Iter  25:  RMS(Cart)=    0.2608925484 RMS(Int)=    0.2177936122
 Iter  26:  RMS(Cart)=    0.3992242144 RMS(Int)=    0.3361069516
 Iter  27:  RMS(Cart)=    0.6076268631 RMS(Int)=    0.5695083063
 Iter  28:  RMS(Cart)=    0.9447192976 RMS(Int)=    0.9319558095
 Iter  29:  RMS(Cart) increases - taking linear step, building new B-matrix and trying again
 Initial RMS(Int)=    0.0148488731
Transforming coordinates:
 Iter   0:  RMS(Cart)=    0.0088993712 RMS(Int)=    0.0099398558
 Iter   1:  RMS(Cart)=    0.0009728052 RMS(Int)=    0.0012427507
 Iter   2:  RMS(Cart)=    0.0009864514 RMS(Int)=    0.0012343934
 Iter   3:  RMS(Cart)=    0.0009802891 RMS(Int)=    0.0012274876
[...]
      pz      :     0.006964  p :     0.002548
      px      :     0.000324
      py      :    -0.004740
      dz2     :     0.000002  d :     0.000287
      dxz     :     0.000909
      dyz     :     0.001108
      dx2y2   :    -0.001342
      dxy     :    -0.000391
  2 H s       :     0.967403  s :     0.967403
      pz      :     0.006939  p :     0.000722
      px      :     0.000295
      py      :    -0.006512
      dz2     :     0.000114  d :     0.000578
      dxz     :     0.000618
      dyz     :     0.001303
      dx2y2   :    -0.000809
      dxy     :    -0.000649
  3 H s       :     0.969305  s :     0.969305
      pz      :     0.007226  p :     0.006477
      px      :    -0.001390
      py      :     0.000641
      dz2     :     0.001125  d :     0.002605
      dxz     :     0.001565
      dyz     :     0.000559
      dx2y2   :     0.000002
      dxy     :    -0.000647


                     *******************************
                     * LOEWDIN POPULATION ANALYSIS *
                     *******************************

----------------------
LOEWDIN ATOMIC CHARGES
----------------------
   0 P :    1.319484
   1 H :   -0.438600
   2 H :   -0.438756
   3 H :   -0.442128

-------------------------------
LOEWDIN REDUCED ORBITAL CHARGES
-------------------------------
  0 P s       :     4.830932  s :     4.830932
      pz      :     3.064869  p :     8.521847
      px      :     2.728793
      py      :     2.728186
      dz2     :     0.004616  d :     0.248451
      dxz     :     0.077022
      dyz     :     0.077979
      dx2y2   :     0.045083
      dxy     :     0.043751
      f0      :     0.006068  f :     0.079286
      f+1     :     0.009603
      f-1     :     0.010189
      f+2     :     0.022603
      f-2     :     0.022199
      f+3     :     0.008317
      f-3     :     0.000307
  1 H s       :     0.786211  s :     0.786211
      pz      :     0.172883  p :     0.422734
      px      :     0.115597
      py      :     0.134253
      dz2     :     0.070326  d :     0.229655
      dxz     :     0.026411
      dyz     :     0.040399
      dx2y2   :     0.057976
      dxy     :     0.034543
  2 H s       :     0.784773  s :     0.784773
      pz      :     0.173349  p :     0.424132
      px      :     0.110565
      py      :     0.140217
      dz2     :     0.069660  d :     0.229852
      dxz     :     0.022268
      dyz     :     0.044750
      dx2y2   :     0.051126
      dxy     :     0.042049
  3 H s       :     0.785747  s :     0.785747
      pz      :     0.173548  p :     0.426071
      px      :     0.150087
      py      :     0.102436
      dz2     :     0.068549  d :     0.230310
      dxz     :     0.052837
      dyz     :     0.014675
      dx2y2   :     0.030636
      dxy     :     0.063612


                      *****************************
                      * MAYER POPULATION ANALYSIS *
                      *****************************

  NA   - Mulliken gross atomic population
  ZA   - Total nuclear charge
  QA   - Mulliken gross atomic charge
  VA   - Mayer's total valence
  BVA  - Mayer's bonded valence
  FA   - Mayer's free valence

  ATOM       NA         ZA         QA         VA         BVA        FA
  0 P     15.0515    15.0000    -0.0515     2.9204     2.9204    -0.0000
  1 H      1.0014     1.0000    -0.0014     0.9398     0.9398    -0.0000
  2 H      0.9687     1.0000     0.0313     0.9363     0.9363     0.0000
  3 H      0.9784     1.0000     0.0216     0.9477     0.9477    -0.0000

  Mayer bond orders larger than 0.100000
B(  0-P ,  1-H ) :   0.9738 B(  0-P ,  2-H ) :   0.9719 B(  0-P ,  3-H ) :   0.9748 


-------
TIMINGS
-------

Total SCF time: 0 days 0 hours 0 min 0 sec 

Total time                  ....       0.632 sec
Sum of individual times     ....       0.487 sec  ( 77.0%)

Fock matrix formation       ....       0.396 sec  ( 62.7%)
  Split-RI-J                ....       0.247 sec  ( 62.4% of F)
  XC integration            ....       0.045 sec  ( 11.3% of F)
    Basis function eval.    ....       0.005 sec  ( 11.1% of XC)
    Density eval.           ....       0.007 sec  ( 16.3% of XC)
    XC-Functional eval.     ....       0.002 sec  (  4.4% of XC)
    XC-Potential eval.      ....       0.015 sec  ( 33.2% of XC)
Diagonalization             ....       0.002 sec  (  0.3%)
Density matrix formation    ....       0.002 sec  (  0.3%)
Population analysis         ....       0.004 sec  (  0.6%)
Initial guess               ....       0.007 sec  (  1.1%)
Orbital Transformation      ....       0.000 sec  (  0.0%)
Orbital Orthonormalization  ....       0.003 sec  (  0.5%)
DIIS solution               ....       0.000 sec  (  0.0%)
SOSCF solution              ....       0.003 sec  (  0.4%)
Grid generation             ....       0.073 sec  ( 11.5%)


-------------------------------------------------------------------------------
                          DFT DISPERSION CORRECTION                            
                                                                               
                              DFTD3 V3.1  Rev 1                                
                          USING Becke-Johnson damping                          
-------------------------------------------------------------------------------
The SCAN functional is recognized
Active option DFTDOPT                   ...         4   

molecular C6(AA) [au] = 309.259389 


            DFT-D V3
 parameters
 s6 scaling factor         :     1.0000 
 a1 scaling factor         :     0.5380 
 s8 scaling factor         :     0.0000 
 a2 scaling factor         :     5.4200 
 ad hoc parameters k1-k3   :    16.0000     1.3333    -4.0000 

 Edisp/kcal,au: -0.175638918066  -0.000279898402 
 E6   /kcal   :  -0.175638918 
 E8   /kcal   :  -0.000000000 
 % E8         :   0.000000000 

-------------------------   ----------------
Dispersion correction           -0.000279898
-------------------------   ----------------


-------------------------   --------------------
FINAL SINGLE POINT ENERGY      -343.189548590682
-------------------------   --------------------

                                *** OPTIMIZATION RUN DONE ***

                            ***************************************
                            *     ORCA property calculations      *
                            ***************************************

                                    ---------------------
                                    Active property flags
                                    ---------------------
   (+) Dipole Moment


------------------------------------------------------------------------------
                       ORCA ELECTRIC PROPERTIES CALCULATION
------------------------------------------------------------------------------

Dipole Moment Calculation                       ... on
Quadrupole Moment Calculation                   ... off
Polarizability Calculation                      ... off
GBWName                                         ... 28_PH3.gbw
Electron density file                           ... 28_PH3.scfp
The origin for moment calculation is the CENTER OF MASS  = (-0.007076, -0.001899  1.167363)

-------------
DIPOLE MOMENT
-------------
                                X             Y             Z
Electronic contribution:     -0.00350       0.00284       2.30712
Nuclear contribution   :      0.01498       0.00402      -2.47045
                        -----------------------------------------
Total Dipole Moment    :      0.01148       0.00686      -0.16333
                        -----------------------------------------
Magnitude (a.u.)       :      0.16388
Magnitude (Debye)      :      0.41654



--------------------
Rotational spectrum 
--------------------
 
Rotational constants in cm-1:     4.535378     3.960311     3.945443 
Rotational constants in MHz : 135967.214107 118727.145734 118281.404410 

 Dipole components along the rotational axes: 
x,y,z [a.u.] :    -0.163136    -0.008960    -0.012722 
x,y,z [Debye]:    -0.414659    -0.022773    -0.032338 

 

----------------------------------------------------------------------------
                           ORCA NUMERICAL FREQUENCIES
                              (24-process run)
----------------------------------------------------------------------------

Number of atoms                ... 4
Central differences            ... used
Number of displacements        ... 24
Numerical increment            ... 5.000e-03 bohr
IR-spectrum generation         ... on
Raman-spectrum generation      ... off
Surface Crossing Hessian       ... off

 WARNING: There are more processes than displacements to do
  ====> : Reducing number of processes to  12

The output will be reduced. Please look at the following files:
SCF program output             ... >28_PH3.lastscf
Integral program output        ... >28_PH3.lastint
Gradient program output        ... >28_PH3.lastgrad
Dipole moment program output   ... >28_PH3.lastmom
AutoCI program output          ... >28_PH3.lastautoci


         <<< Energy and Gradient at the input geometry >>>

        <<< Energy and Gradient at displaced geometries >>>
             <<<Displacing   1/coordinate 1 (+)>>>
             <<<Displacing   1/coordinate 3 (+)>>>
             <<<Displacing   1/coordinate 2 (+)>>>
             <<<Displacing   2/coordinate 1 (+)>>>
             <<<Displacing   2/coordinate 3 (+)>>>
             <<<Displacing   2/coordinate 2 (+)>>>
             <<<Displacing   3/coordinate 1 (+)>>>
             <<<Displacing   3/coordinate 2 (+)>>>
             <<<Displacing   4/coordinate 1 (+)>>>
             <<<Displacing   3/coordinate 3 (+)>>>
             <<<Displacing   4/coordinate 2 (+)>>>
             <<<Displacing   4/coordinate 3 (+)>>>
             <<<Displacing   3/coordinate 1 (-)>>>
             <<<Displacing   4/coordinate 2 (-)>>>
             <<<Displacing   2/coordinate 1 (-)>>>
             <<<Displacing   1/coordinate 2 (-)>>>
             <<<Displacing   1/coordinate 1 (-)>>>
             <<<Displacing   2/coordinate 2 (-)>>>
             <<<Displacing   1/coordinate 3 (-)>>>
             <<<Displacing   2/coordinate 3 (-)>>>
             <<<Displacing   4/coordinate 3 (-)>>>
             <<<Displacing   3/coordinate 3 (-)>>>
             <<<Displacing   4/coordinate 1 (-)>>>
             <<<Displacing   3/coordinate 2 (-)>>>

-----------------------
VIBRATIONAL FREQUENCIES
-----------------------

Scaling factor for frequencies =  1.000000000 (already applied!)

   0:         0.00 cm**-1
   1:         0.00 cm**-1
   2:         0.00 cm**-1
   3:         0.00 cm**-1
   4:         0.00 cm**-1
   5:         0.00 cm**-1
   6:      1081.32 cm**-1
   7:      1148.44 cm**-1
   8:      1156.38 cm**-1
   9:      2205.72 cm**-1
  10:      2220.84 cm**-1
  11:      2250.76 cm**-1


------------
NORMAL MODES
------------

These modes are the cartesian displacements weighted by the diagonal matrix
M(i,i)=1/sqrt(m[i]) where m[i] is the mass of the displaced atom
Thus, these vectors are normalized but *not* orthogonal

                  0          1          2          3          4          5    
      0       0.000000   0.000000   0.000000   0.000000   0.000000   0.000000
      1       0.000000   0.000000   0.000000   0.000000   0.000000   0.000000
      2       0.000000   0.000000   0.000000   0.000000   0.000000   0.000000
      3       0.000000   0.000000   0.000000   0.000000   0.000000   0.000000
      4       0.000000   0.000000   0.000000   0.000000   0.000000   0.000000
      5       0.000000   0.000000   0.000000   0.000000   0.000000   0.000000
      6       0.000000   0.000000   0.000000   0.000000   0.000000   0.000000
      7       0.000000   0.000000   0.000000   0.000000   0.000000   0.000000
      8       0.000000   0.000000   0.000000   0.000000   0.000000   0.000000
      9       0.000000   0.000000   0.000000   0.000000   0.000000   0.000000
     10       0.000000   0.000000   0.000000   0.000000   0.000000   0.000000
     11       0.000000   0.000000   0.000000   0.000000   0.000000   0.000000
                  6          7          8          9         10         11    
      0      -0.000414  -0.019183   0.007691   0.007121   0.026640   0.010178
      1      -0.000301   0.007569   0.019394   0.027934  -0.008342   0.001657
      2      -0.045198   0.000854  -0.001179   0.004727   0.009904  -0.029562
      3      -0.189075   0.531298   0.257277  -0.376230  -0.147762   0.172038
      4      -0.298353  -0.412127   0.125542  -0.547126  -0.285049   0.240829
      5       0.471489   0.067842  -0.335893  -0.524192  -0.236935   0.188161
      6      -0.133634   0.323040  -0.538994   0.204568  -0.228157   0.182182
      7       0.315668   0.373745  -0.065111  -0.353621   0.521464  -0.337142
      8       0.462196   0.258332   0.248911   0.332231  -0.432000   0.253123
      9       0.335424  -0.264877   0.045374  -0.047145  -0.442675  -0.666971
     10      -0.008059  -0.194212  -0.656383   0.042388   0.019923   0.045408
     11       0.455178  -0.352408   0.123206   0.046700   0.364604   0.467100


-----------
IR SPECTRUM  
-----------

 Mode    freq (cm**-1)   T**2         TX         TY         TZ
-------------------------------------------------------------------
   6:      1081.32   16.491091  ( -0.003546   0.076483  -4.060201)
   7:      1148.44    7.463664  ( -2.535234   0.988106   0.244741)
   8:      1156.38    8.611080  (  1.147640   2.691664  -0.221236)
   9:      2205.72   54.880804  (  1.695307   7.174299   0.732239)
  10:      2220.84   57.422825  (  7.084761  -2.161962   1.598406)
  11:      2250.76   32.027827  (  2.799078   0.482954  -4.894869)

The first frequency considered to be a vibration is 6
The total number of vibrations considered is 6


--------------------------
THERMOCHEMISTRY AT 298.15K
--------------------------

Temperature         ... 298.15 K
Pressure            ... 1.00 atm
Total Mass          ... 34.00 AMU

Throughout the following assumptions are being made:
  (1) The electronic state is orbitally nondegenerate
  (2) There are no thermally accessible electronically excited states
  (3) Hindered rotations indicated by low frequency modes are not
      treated as such but are treated as vibrations and this may
      cause some error
  (4) All equations used are the standard statistical mechanics
      equations for an ideal gas
  (5) All vibrations are strictly harmonic

freq.    1081.32  E(vib)   ...       0.02 
freq.    1148.44  E(vib)   ...       0.01 
freq.    1156.38  E(vib)   ...       0.01 
freq.    2205.72  E(vib)   ...       0.00 
freq.    2220.84  E(vib)   ...       0.00 
freq.    2250.76  E(vib)   ...       0.00 

------------
INNER ENERGY
------------

The inner energy is: U= E(el) + E(ZPE) + E(vib) + E(rot) + E(trans)
    E(el)   - is the total energy from the electronic structure calculation
              = E(kin-el) + E(nuc-el) + E(el-el) + E(nuc-nuc)
    E(ZPE)  - the the zero temperature vibrational energy from the frequency calculation
    E(vib)  - the the finite temperature correction to E(ZPE) due to population
              of excited vibrational states
    E(rot)  - is the rotational thermal energy
    E(trans)- is the translational thermal energy

Summary of contributions to the inner energy U:
Electronic energy                ...   -343.18954857 Eh
Zero point energy                ...      0.02292624 Eh      14.39 kcal/mol
Thermal vibrational correction   ...      0.00006804 Eh       0.04 kcal/mol
Thermal rotational correction    ...      0.00141627 Eh       0.89 kcal/mol
Thermal translational correction ...      0.00141627 Eh       0.89 kcal/mol
-----------------------------------------------------------------------
Total thermal energy                   -343.16372174 Eh


Summary of corrections to the electronic energy:
(perhaps to be used in another calculation)
Total thermal correction                  0.00290058 Eh       1.82 kcal/mol
Non-thermal (ZPE) correction              0.02292624 Eh      14.39 kcal/mol
-----------------------------------------------------------------------
Total correction                          0.02582682 Eh      16.21 kcal/mol


--------
ENTHALPY
--------

The enthalpy is H = U + kB*T
                kB is Boltzmann's constant
Total free energy                 ...   -343.16372174 Eh 
Thermal Enthalpy correction       ...      0.00094421 Eh       0.59 kcal/mol
-----------------------------------------------------------------------
Total Enthalpy                    ...   -343.16277754 Eh


Note: Only C1 symmetry has been detected, increase convergence thresholds 
      if your molecule has a higher symmetry. Symmetry factor of 1.0 is   
      used for the rotational entropy correction. 
 

Note: Rotational entropy computed according to Herzberg 
Infrared and Raman Spectra, Chapter V,1, Van Nostrand Reinhold, 1945 
Point Group:  C1, Symmetry Number:   1  
Rotational constants in cm-1:     4.535378     3.960311     3.945443 

Vibrational entropy computed according to the QRRHO of S. Grimme
Chem.Eur.J. 2012 18 9955


-------
ENTROPY
-------

The entropy contributions are T*S = T*(S(el)+S(vib)+S(rot)+S(trans))
     S(el)   - electronic entropy
     S(vib)  - vibrational entropy
     S(rot)  - rotational entropy
     S(trans)- translational entropy
The entropies will be listed as mutliplied by the temperature to get
units of energy

Electronic entropy                ...      0.00000000 Eh      0.00 kcal/mol
Vibrational entropy               ...      0.00008054 Eh      0.05 kcal/mol
Rotational entropy                ...      0.00749933 Eh      4.71 kcal/mol
Translational entropy             ...      0.01734327 Eh     10.88 kcal/mol
-----------------------------------------------------------------------
Final entropy term                ...      0.02492314 Eh     15.64 kcal/mol

In case the symmetry of your molecule has not been determined correctly
or in case you have a reason to use a different symmetry number we print 
out the resulting rotational entropy values for sn=1,12 :
 --------------------------------------------------------
|  sn= 1 | S(rot)=       0.00749933 Eh      4.71 kcal/mol|
|  sn= 2 | S(rot)=       0.00684487 Eh      4.30 kcal/mol|
|  sn= 3 | S(rot)=       0.00646204 Eh      4.05 kcal/mol|
|  sn= 4 | S(rot)=       0.00619042 Eh      3.88 kcal/mol|
|  sn= 5 | S(rot)=       0.00597973 Eh      3.75 kcal/mol|
|  sn= 6 | S(rot)=       0.00580759 Eh      3.64 kcal/mol|
|  sn= 7 | S(rot)=       0.00566204 Eh      3.55 kcal/mol|
|  sn= 8 | S(rot)=       0.00553596 Eh      3.47 kcal/mol|
|  sn= 9 | S(rot)=       0.00542475 Eh      3.40 kcal/mol|
|  sn=10 | S(rot)=       0.00532527 Eh      3.34 kcal/mol|
|  sn=11 | S(rot)=       0.00523528 Eh      3.29 kcal/mol|
|  sn=12 | S(rot)=       0.00515313 Eh      3.23 kcal/mol|
 --------------------------------------------------------


-------------------
GIBBS FREE ENERGY
-------------------

The Gibbs free energy is G = H - T*S

Total enthalpy                    ...   -343.16277754 Eh 
Total entropy correction          ...     -0.02492314 Eh    -15.64 kcal/mol
-----------------------------------------------------------------------
Final Gibbs free energy         ...   -343.18770068 Eh

For completeness - the Gibbs free energy minus the electronic energy
G-E(el)                           ...      0.00184789 Eh      1.16 kcal/mol


Total Time for Numerical Frequencies  :        14.665 sec

Timings for individual modules:

Sum of individual times         ...       38.156 sec (=   0.636 min)
GTO integral calculation        ...        8.182 sec (=   0.136 min)  21.4 %
SCF iterations                  ...       19.115 sec (=   0.319 min)  50.1 %
SCF Gradient evaluation         ...       10.432 sec (=   0.174 min)  27.3 %
Geometry relaxation             ...        0.427 sec (=   0.007 min)   1.1 %
                             ****ORCA TERMINATED NORMALLY****
TOTAL RUN TIME: 0 days 0 hours 0 minutes 51 seconds 974 msec
