
                                 *****************
                                 * O   R   C   A *
                                 *****************

           --- An Ab Initio, DFT and Semiempirical electronic structure package ---

                  #######################################################
                  #                        -***-                        #
                  #          Department of theory and spectroscopy      #
                  #               Directorship: Frank Neese             #
                  #        Max Planck Institute fuer Kohlenforschung    #
                  #                Kaiser Wilhelm Platz 1               #
                  #                 D-45470 Muelheim/Ruhr               #
                  #                      Germany                        #
                  #                                                     #
                  #                  All rights reserved                #
                  #                        -***-                        #
                  #######################################################


                         Program Version 4.2.0 -  RELEASE  -


 With contributions from (in alphabetic order):
   Daniel Aravena         : Magnetic Suceptibility
   Michael Atanasov       : Ab Initio Ligand Field Theory (pilot matlab implementation)
   Alexander A. Auer      : GIAO ZORA, VPT2
   Ute Becker             : Parallelization
   Giovanni Bistoni       : ED, misc. LED, open-shell LED, HFLED
   Martin Brehm           : Molecular dynamics
   Dmytro Bykov           : SCF Hessian
   Vijay G. Chilkuri      : MRCI spin determinant printing, contributions to CSF-ICE
   Dipayan Datta          : RHF DLPNO-CCSD density
   Achintya Kumar Dutta   : EOM-CC, STEOM-CC
   Dmitry Ganyushin       : Spin-Orbit,Spin-Spin,Magnetic field MRCI
   Miquel Garcia          : C-PCM Hessian, Gaussian charge scheme
   Yang Guo               : DLPNO-NEVPT2, CIM, IAO-localization
   Andreas Hansen         : Spin unrestricted coupled pair/coupled cluster methods
   Benjamin Helmich-Paris : CASSCF linear response (MC-RPA)
   Lee Huntington         : MR-EOM, pCC
   Robert Izsak           : Overlap fitted RIJCOSX, COSX-SCS-MP3, EOM
   Christian Kollmar      : KDIIS, OOCD, Brueckner-CCSD(T), CCSD density
   Simone Kossmann        : Meta GGA functionals, TD-DFT gradient, OOMP2, MP2 Hessian
   Martin Krupicka        : AUTO-CI
   Lucas Lang             : DCDCAS
   Dagmar Lenk            : GEPOL surface, SMD
   Dimitrios Liakos       : Extrapolation schemes; Compound Job, initial MDCI parallelization
   Dimitrios Manganas     : Further ROCIS development; embedding schemes
   Dimitrios Pantazis     : SARC Basis sets
   Taras Petrenko         : DFT Hessian,TD-DFT gradient, ASA, ECA, R-Raman, ABS, FL, XAS/XES, NRVS
   Peter Pinski           : DLPNO-MP2, DLPNO-MP2 Gradient
   Christoph Reimann      : Effective Core Potentials
   Marius Retegan         : Local ZFS, SOC
   Christoph Riplinger    : Optimizer, TS searches, QM/MM, DLPNO-CCSD(T), (RO)-DLPNO pert. Triples
   Tobias Risthaus        : Range-separated hybrids, TD-DFT gradient, RPA, STAB
   Michael Roemelt        : Original ROCIS implementation
   Masaaki Saitow         : Open-shell DLPNO-CCSD energy and density
   Barbara Sandhoefer     : DKH picture change effects
   Avijit Sen             : IP-ROCIS
   Kantharuban Sivalingam : CASSCF convergence, NEVPT2, FIC-MRCI
   Bernardo de Souza      : ESD, SOC TD-DFT
   Georgi Stoychev        : AutoAux, RI-MP2 NMR
   Willem Van den Heuvel  : Paramagnetic NMR
   Boris Wezisla          : Elementary symmetry handling
   Frank Wennmohs         : Technical directorship


 We gratefully acknowledge several colleagues who have allowed us to
 interface, adapt or use parts of their codes:
   Stefan Grimme, W. Hujo, H. Kruse,             : VdW corrections, initial TS optimization,
                  C. Bannwarth                     DFT functionals, gCP, sTDA/sTD-DF
   Ed Valeev, F. Pavosevic, A. Kumar             : LibInt (2-el integral package), F12 methods
   Garnet Chan, S. Sharma, J. Yang, R. Olivares  : DMRG
   Ulf Ekstrom                                   : XCFun DFT Library
   Mihaly Kallay                                 : mrcc  (arbitrary order and MRCC methods)
   Andreas Klamt, Michael Diedenhofen            : otool_cosmo (COSMO solvation model)
   Jiri Pittner, Ondrej Demel                    : Mk-CCSD
   Frank Weinhold                                : gennbo (NPA and NBO analysis)
   Christopher J. Cramer and Donald G. Truhlar   : smd solvation model
   Lars Goerigk                                  : TD-DFT with DH, B97 family of functionals
   V. Asgeirsson, H. Jonsson                     : NEB implementation
   FAccTs GmbH                                   : IRC, NEB, NEB-TS, Multilevel, MM, QM/MM, CI optimization
   S Lehtola, MJT Oliveira, MAL Marques          : LibXC Library


 Your calculation uses the libint2 library for the computation of 2-el integrals
 For citations please refer to: http://libint.valeyev.net

 Your ORCA version has been built with support for libXC version: 4.2.3
 For citations please refer to: https://tddft.org/programs/libxc/

 This ORCA versions uses:
   CBLAS   interface :  Fast vector & matrix operations
   LAPACKE interface :  Fast linear algebra routines
   SCALAPACK package :  Parallel linear algebra routines


Your calculation utilizes the atom-pairwise dispersion correction
with the Becke-Johnson damping scheme (D3BJ)
Cite in your paper:
S.Grimme, S.Ehrlich, L.Goerigk, J Comput Chem, (2011), 32, 1456–1465 
S.Grimme, J.Antony, S.Ehrlich and H.Krieg, J.Chem.Phys., 132, (2010), 154104 
   

----- Orbital basis set information -----
Your calculation utilizes the basis: aug-cc-pV(T+d)Z 
             Al - Ar: T.H. Dunning, Jr., K. A. Peterson and A. K. Wilson, J. Chem. Phys.
                      114, 9244 (2001)

----- AuxJ basis set information -----
Your calculation utilizes the auxiliary basis: def2/J
   F. Weigend, Phys. Chem. Chem. Phys. 8, 1057 (2006).

================================================================================
                                        WARNINGS
                       Please study these warnings very carefully!
================================================================================


WARNING: Geometry Optimization
  ===> : Switching off AutoStart
         For restart on a previous wavefunction, please use MOREAD

WARNING: The SCAN functional is very grid-sensitive!
         Use at least GRID5 and a higher intacc

INFO   : the flag for use of LIBINT has been found!

================================================================================
                                       INPUT FILE
================================================================================
NAME = 30_SO2.in
|  1> #
|  2> # 30_SO2 scanfunc/aug-cc-pvt(+d)z
|  3> #
|  4> ! scanfunc d3bj aug-cc-pvt(+d)z def2/j opt xyzfile numfreq
|  5> 
|  6> *xyz 0 1
|  7> S           -0.001418646          0.484606293         -0.000000013
|  8> O            1.234874832         -0.238706427         -0.000000091
|  9> O           -1.233456186         -0.245899866          0.000000104
| 10> *
| 11> 
| 12> %pal
| 13> nprocs 24
| 14> end
| 15> 
| 16> 
| 17>                          ****END OF INPUT****
================================================================================

                       *****************************
                       * Geometry Optimization Run *
                       *****************************

Geometry optimization settings:
Update method            Update   .... BFGS
Choice of coordinates    CoordSys .... Z-matrix Internals
Initial Hessian          InHess   .... Almoef's Model

Convergence Tolerances:
Energy Change            TolE     ....  5.0000e-06 Eh
Max. Gradient            TolMAXG  ....  3.0000e-04 Eh/bohr
RMS Gradient             TolRMSG  ....  1.0000e-04 Eh/bohr
Max. Displacement        TolMAXD  ....  4.0000e-03 bohr
RMS Displacement         TolRMSD  ....  2.0000e-03 bohr
Strict Convergence                ....  False
------------------------------------------------------------------------------
                        ORCA OPTIMIZATION COORDINATE SETUP
------------------------------------------------------------------------------

The optimization will be done in new redundant internal coordinates
Making redundant internal coordinates   ...  (new redundants) done
Evaluating the initial hessian          ...  (Almloef) done
Evaluating the coordinates              ...  done
Calculating the B-matrix                .... done
Calculating the G-matrix                .... done
Diagonalizing the G-matrix              .... done
The first mode is                       ....    0
The number of degrees of freedom        ....    3

    -----------------------------------------------------------------
                    Redundant Internal Coordinates


    -----------------------------------------------------------------
         Definition                    Initial Value    Approx d2E/dq
    -----------------------------------------------------------------
      1. B(O   1,S   0)                  1.4323         1.291486   
      2. B(O   2,S   0)                  1.4323         1.291564   
      3. A(O   1,S   0,O   2)          119.0048         0.632263   
    -----------------------------------------------------------------

Number of atoms                         .... 3
Number of degrees of freedom            .... 3

         *************************************************************
         *                GEOMETRY OPTIMIZATION CYCLE   1            *
         *************************************************************
---------------------------------
CARTESIAN COORDINATES (ANGSTROEM)
---------------------------------
  S     -0.001419    0.484606   -0.000000
  O      1.234875   -0.238706   -0.000000
  O     -1.233456   -0.245900    0.000000

----------------------------
CARTESIAN COORDINATES (A.U.)
----------------------------
  NO LB      ZA    FRAG     MASS         X           Y           Z
   0 S    16.0000    0    32.060   -0.002681    0.915773   -0.000000
   1 O     8.0000    0    15.999    2.333575   -0.451090   -0.000000
   2 O     8.0000    0    15.999   -2.330894   -0.464683    0.000000

--------------------------------
INTERNAL COORDINATES (ANGSTROEM)
--------------------------------
 S      0   0   0     0.000000000000     0.00000000     0.00000000
 O      1   0   0     1.432341738085     0.00000000     0.00000000
 O      1   2   0     1.432325294165   119.00479606     0.00000000

---------------------------
INTERNAL COORDINATES (A.U.)
---------------------------
 S      0   0   0     0.000000000000     0.00000000     0.00000000
 O      1   0   0     2.706733615165     0.00000000     0.00000000
 O      1   2   0     2.706702540661   119.00479606     0.00000000

---------------------
BASIS SET INFORMATION
---------------------
There are 2 groups of distinct atoms

 Group   1 Type S   : 42s17p4d2f contracted to 6s5p4d2f pattern {131313111/77111/1111/11}
 Group   2 Type O   : 19s6p3d2f contracted to 5s4p3d2f pattern {88111/3111/111/11}

Atom   0S    basis set group =>   1
Atom   1O    basis set group =>   2
Atom   2O    basis set group =>   2
---------------------------------
AUXILIARY/J BASIS SET INFORMATION
---------------------------------
There are 2 groups of distinct atoms

 Group   1 Type S   : 14s5p5d2f1g contracted to 8s4p3d1f1g pattern {71111111/2111/311/2/1}
 Group   2 Type O   : 12s5p4d2f1g contracted to 6s4p3d1f1g pattern {711111/2111/211/2/1}

Atom   0S    basis set group =>   1
Atom   1O    basis set group =>   2
Atom   2O    basis set group =>   2


           ************************************************************
           *        Program running with 24 parallel MPI-processes    *
           *              working on a common directory               *
           ************************************************************
------------------------------------------------------------------------------
                           ORCA GTO INTEGRAL CALCULATION
                           -- RI-GTO INTEGRALS CHOSEN --
------------------------------------------------------------------------------

                         BASIS SET STATISTICS AND STARTUP INFO

Gaussian basis set:
 # of primitive gaussian shells          ...  125
 # of primitive gaussian functions       ...  259
 # of contracted shells                  ...   45
 # of contracted basis functions         ...  147
 Highest angular momentum                ...    3
 Maximum contraction depth               ...   13
Auxiliary gaussian basis set:
 # of primitive gaussian shells          ...   75
 # of primitive gaussian functions       ...  217
 # of contracted shells                  ...   47
 # of contracted aux-basis functions     ...  149
 Highest angular momentum                ...    4
 Maximum contraction depth               ...    7
Ratio of auxiliary to basis functions    ...  1.01
Integral package used                  ... LIBINT
 One Electron integrals                  ... done
 Ordering auxiliary basis shells         ... done
 Integral threshhold             Thresh  ...  2.500e-11
 Primitive cut-off               TCut    ...  2.500e-12
 Pre-screening matrix                    ... done
 Shell pair data                         ... 
 Ordering of the shell pairs             ... done (   0.000 sec) 1035 of 1035 pairs
 Determination of significant pairs      ... done (   0.000 sec)
 Creation of shell pair data             ... done (   0.000 sec)
 Storage of shell pair data              ... done (   0.011 sec)
 Shell pair data done in (   0.011 sec)
 Computing two index integrals           ... done
 Cholesky decomposition of the V-matrix  ... done


Timings:
 Total evaluation time                   ...   0.230 sec (  0.004 min)
 One electron matrix time                ...   0.021 sec (  0.000 min) =  9.0%
 Schwartz matrix evaluation time         ...   0.178 sec (  0.003 min) = 77.4%
 Two index repulsion integral time       ...   0.001 sec (  0.000 min) =  0.3%
 Cholesky decomposition of V             ...   0.001 sec (  0.000 min) =  0.4%
 Three index repulsion integral time     ...   0.000 sec (  0.000 min) =  0.0%



           ************************************************************
           *        Program running with 24 parallel MPI-processes    *
           *              working on a common directory               *
           ************************************************************
-------------------------------------------------------------------------------
                                 ORCA SCF
-------------------------------------------------------------------------------

------------
SCF SETTINGS
------------
Hamiltonian:
 Density Functional     Method          .... DFT(GTOs)
 Exchange Functional    Exchange        .... SCAN
 Correlation Functional Correlation     .... SCAN
 Gradients option       PostSCFGGA      .... off
   Density functional embedding theory  .... OFF
   NL short-range parameter             ....  6.400000
 RI-approximation to the Coulomb term is turned on
   Number of auxiliary basis functions  .... 149


General Settings:
 Integral files         IntName         .... 30_SO2
 Hartree-Fock type      HFTyp           .... RHF
 Total Charge           Charge          ....    0
 Multiplicity           Mult            ....    1
 Number of Electrons    NEL             ....   32
 Basis Dimension        Dim             ....  147
 Nuclear Repulsion      ENuc            ....    108.3001714019 Eh

Convergence Acceleration:
 DIIS                   CNVDIIS         .... on
   Start iteration      DIISMaxIt       ....    12
   Startup error        DIISStart       ....  0.200000
   # of expansion vecs  DIISMaxEq       ....     5
   Bias factor          DIISBfac        ....   1.050
   Max. coefficient     DIISMaxC        ....  10.000
 Newton-Raphson         CNVNR           .... off
 SOSCF                  CNVSOSCF        .... on
   Start iteration      SOSCFMaxIt      ....   150
   Startup grad/error   SOSCFStart      ....  0.003300
 Level Shifting         CNVShift        .... on
   Level shift para.    LevelShift      ....    0.2500
   Turn off err/grad.   ShiftErr        ....    0.0010
 Zerner damping         CNVZerner       .... off
 Static damping         CNVDamp         .... on
   Fraction old density DampFac         ....    0.7000
   Max. Damping (<1)    DampMax         ....    0.9800
   Min. Damping (>=0)   DampMin         ....    0.0000
   Turn off err/grad.   DampErr         ....    0.1000
 Fernandez-Rico         CNVRico         .... off

SCF Procedure:
 Maximum # iterations   MaxIter         ....   125
 SCF integral mode      SCFMode         .... Direct
   Integral package                     .... LIBINT
 Reset frequency        DirectResetFreq ....    20
 Integral Threshold     Thresh          ....  2.500e-11 Eh
 Primitive CutOff       TCut            ....  2.500e-12 Eh

Convergence Tolerance:
 Convergence Check Mode ConvCheckMode   .... Total+1el-Energy
 Convergence forced     ConvForced      .... 0
 Energy Change          TolE            ....  1.000e-08 Eh
 1-El. energy change                    ....  1.000e-05 Eh
 Orbital Gradient       TolG            ....  1.000e-05
 Orbital Rotation angle TolX            ....  1.000e-05
 DIIS Error             TolErr          ....  5.000e-07


Diagonalization of the overlap matrix:
Smallest eigenvalue                        ... 3.126e-04
Time for diagonalization                   ...    0.006 sec
Threshold for overlap eigenvalues          ... 1.000e-08
Number of eigenvalues below threshold      ... 0
Time for construction of square roots      ...    0.003 sec
Total time needed                          ...    0.009 sec

-------------------
DFT GRID GENERATION
-------------------

General Integration Accuracy     IntAcc      ...  4.340
Radial Grid Type                 RadialGrid  ... Gauss-Chebyshev
Angular Grid (max. acc.)         AngularGrid ... Lebedev-110
Angular grid pruning method      GridPruning ... 3 (G Style)
Weight generation scheme         WeightScheme... Becke
Basis function cutoff            BFCut       ...    1.0000e-11
Integration weight cutoff        WCut        ...    1.0000e-14
Grids for H and He will be reduced by one unit

# of grid points (after initial pruning)     ...   5238 (   0.0 sec)
# of grid points (after weights+screening)   ...   5201 (   0.0 sec)
nearest neighbour list constructed           ...    0.0 sec
Grid point re-assignment to atoms done       ...    0.0 sec
Grid point division into batches done        ...    0.0 sec
Reduced shell lists constructed in    0.0 sec

Total number of grid points                  ...     5201
Total number of batches                      ...       83
Average number of points per batch           ...       62
Average number of grid points per atom       ...     1734
Average number of shells per batch           ...    25.80 (57.33%)
Average number of basis functions per batch  ...    79.00 (53.74%)
Average number of large shells per batch     ...    19.80 (76.74%)
Average number of large basis fcns per batch ...    66.60 (84.30%)
Maximum spatial batch extension              ...  15.60, 14.91, 16.81 au
Average spatial batch extension              ...   0.47,  0.58,  0.64 au

Time for grid setup =    0.018 sec

------------------------------
INITIAL GUESS: MODEL POTENTIAL
------------------------------
Loading Hartree-Fock densities                     ... done
Calculating cut-offs                               ... done
Setting up the integral package                    ... done
Initializing the effective Hamiltonian             ... done
Starting the Coulomb interaction                   ... done (   0.0 sec)
Reading the grid                                   ... done
Mapping shells                                     ... done
Starting the XC term evaluation                    ... done (   0.0 sec)
  promolecular density results
     # of electrons  =     32.000919910
     EX              =    -45.962365981
     EC              =     -0.540377669
     EX+EC           =    -46.502743650
Transforming the Hamiltonian                       ... done (   0.0 sec)
Diagonalizing the Hamiltonian                      ... done (   0.0 sec)
Back transforming the eigenvectors                 ... done (   0.0 sec)
Now organizing SCF variables                       ... done
                      ------------------
                      INITIAL GUESS DONE (   0.1 sec)
                      ------------------
--------------
SCF ITERATIONS
--------------
ITER       Energy         Delta-E        Max-DP      RMS-DP      [F,P]     Damp
               ***  Starting incremental Fock matrix formation  ***
  0   -548.2260633936   0.000000000000 0.10720092  0.00257634  0.5371337 0.7000
  1   -548.4706730690  -0.244609675381 0.05922388  0.00130870  0.1821933 0.7000
                               ***Turning on DIIS***
  2   -548.5238957073  -0.053222638359 0.06071437  0.00174713  0.0458085 0.0000
  3   -548.6782045854  -0.154308878071 0.04611906  0.00088787  0.0600820 0.0000
  4   -548.6814029639  -0.003198378526 0.02435037  0.00043525  0.0463742 0.0000
  5   -548.6876550891  -0.006252125148 0.01083025  0.00018646  0.0124366 0.0000
  6   -548.6881987513  -0.000543662221 0.00183124  0.00004844  0.0037745 0.0000
                      *** Initiating the SOSCF procedure ***
                           *** Shutting down DIIS ***
                      *** Re-Reading the Fockian *** 
                      *** Removing any level shift *** 
ITER      Energy       Delta-E        Grad      Rot      Max-DP    RMS-DP
  7   -548.68823820  -0.0000394463  0.000405  0.000405  0.000720  0.000017
               *** Restarting incremental Fock matrix formation ***
  8   -548.68824152  -0.0000033249  0.000303  0.000985  0.000718  0.000016
  9   -548.68824028   0.0000012414  0.000551  0.000498  0.000383  0.000007
 10   -548.68824192  -0.0000016387  0.000012  0.000033  0.000093  0.000002
 11   -548.68824192  -0.0000000018  0.000024  0.000048  0.000033  0.000001
 12   -548.68824192   0.0000000024  0.000022  0.000025  0.000065  0.000001
 13   -548.68824192  -0.0000000035  0.000003  0.000009  0.000018  0.000000
                  ***Gradient check signals convergence***
              ***Rediagonalizing the Fockian in SOSCF/NRSCF***

               *****************************************************
               *                     SUCCESS                       *
               *           SCF CONVERGED AFTER  14 CYCLES          *
               *****************************************************

Setting up the final grid:

General Integration Accuracy     IntAcc      ...  4.670
Radial Grid Type                 RadialGrid  ... Gauss-Chebyshev
Angular Grid (max. acc.)         AngularGrid ... Lebedev-302
Angular grid pruning method      GridPruning ... 3 (G Style)
Weight generation scheme         WeightScheme... Becke
Basis function cutoff            BFCut       ...    1.0000e-11
Integration weight cutoff        WCut        ...    1.0000e-14
Grids for H and He will be reduced by one unit

# of grid points (after initial pruning)     ...  19270 (   0.0 sec)
# of grid points (after weights+screening)   ...  19123 (   0.0 sec)
nearest neighbour list constructed           ...    0.0 sec
Grid point re-assignment to atoms done       ...    0.0 sec
Grid point division into batches done        ...    0.1 sec
Reduced shell lists constructed in    0.1 sec

Total number of grid points                  ...    19123
Total number of batches                      ...      300
Average number of points per batch           ...       63
Average number of grid points per atom       ...     6374
Average number of shells per batch           ...    18.07 (40.16%)
Average number of basis functions per batch  ...    56.79 (38.63%)
Average number of large shells per batch     ...    12.21 (67.59%)
Average number of large basis fcns per batch ...    36.79 (64.78%)
Maximum spatial batch extension              ...  19.50, 13.47, 15.16 au
Average spatial batch extension              ...   0.43,  0.41,  0.43 au

Final grid set up in    0.1 sec
Final integration                            ... done (   0.0 sec)
Change in XC energy                          ...    -0.026546145
Integrated number of electrons               ...    32.000002549
Previous integrated no of electrons          ...    32.001135336

----------------
TOTAL SCF ENERGY
----------------

Total Energy       :         -548.71478807 Eh          -14931.28848 eV

Components:
Nuclear Repulsion  :          108.30017140 Eh            2946.99749 eV
Electronic Energy  :         -657.01495947 Eh          -17878.28596 eV
One Electron Energy:         -970.79590260 Eh          -26416.69951 eV
Two Electron Energy:          313.78094313 Eh            8538.41355 eV

Virial components:
Potential Energy   :        -1095.44232467 Eh          -29808.50109 eV
Kinetic Energy     :          546.72753660 Eh           14877.21261 eV
Virial Ratio       :            2.00363481


DFT components:
N(Alpha)           :       16.000001274488 electrons
N(Beta)            :       16.000001274488 electrons
N(Total)           :       32.000002548975 electrons
E(X)               :      -41.712072012197 Eh       
E(C)               :       -1.164231967426 Eh       
E(XC)              :      -42.876303979623 Eh       
DFET-embed. en.    :        0.000000000000 Eh       

---------------
SCF CONVERGENCE
---------------

  Last Energy change         ...    2.6885e-09  Tolerance :   1.0000e-08
  Last MAX-Density change    ...    1.3725e-06  Tolerance :   1.0000e-07
  Last RMS-Density change    ...    3.1520e-08  Tolerance :   5.0000e-09
  Last Orbital Gradient      ...    1.5770e-06  Tolerance :   1.0000e-05
  Last Orbital Rotation      ...    1.7090e-06  Tolerance :   1.0000e-05

             **** THE GBW FILE WAS UPDATED (30_SO2.gbw) ****
             **** DENSITY FILE WAS UPDATED (30_SO2.scfp) ****
             **** ENERGY FILE WAS UPDATED (30_SO2.en.tmp) ****
             **** THE GBW FILE WAS UPDATED (30_SO2.gbw) ****
             **** DENSITY FILE WAS UPDATED (30_SO2.scfp) ****
----------------
ORBITAL ENERGIES
----------------

  NO   OCC          E(Eh)            E(eV) 
   0   2.0000     -88.716262     -2414.0922 
   1   2.0000     -19.039056      -518.0790 
   2   2.0000     -19.039003      -518.0776 
   3   2.0000      -8.048157      -219.0015 
   4   2.0000      -5.991920      -163.0484 
   5   2.0000      -5.987829      -162.9371 
   6   2.0000      -5.979822      -162.7192 
   7   2.0000      -1.121472       -30.5168 
   8   2.0000      -1.033259       -28.1164 
   9   2.0000      -0.604628       -16.4528 
  10   2.0000      -0.473686       -12.8897 
  11   2.0000      -0.463270       -12.6062 
  12   2.0000      -0.462085       -12.5740 
  13   2.0000      -0.363063        -9.8794 
  14   2.0000      -0.332174        -9.0389 
  15   2.0000      -0.308437        -8.3930 
  16   0.0000      -0.166013        -4.5174 
  17   0.0000      -0.004719        -0.1284 
  18   0.0000       0.024768         0.6740 
  19   0.0000       0.042316         1.1515 
  20   0.0000       0.052483         1.4281 
  21   0.0000       0.071876         1.9558 
  22   0.0000       0.087826         2.3899 
  23   0.0000       0.135244         3.6802 
  24   0.0000       0.138252         3.7620 
  25   0.0000       0.144137         3.9222 
  26   0.0000       0.154340         4.1998 
  27   0.0000       0.159106         4.3295 
  28   0.0000       0.194154         5.2832 
  29   0.0000       0.212430         5.7805 
  30   0.0000       0.220433         5.9983 
  31   0.0000       0.260675         7.0933 
  32   0.0000       0.267911         7.2902 
  33   0.0000       0.268077         7.2947 
  34   0.0000       0.341034         9.2800 
  35   0.0000       0.355208         9.6657 
  36   0.0000       0.368957        10.0398 
  37   0.0000       0.409273        11.1369 
  38   0.0000       0.481341        13.0980 
  39   0.0000       0.486961        13.2509 
  40   0.0000       0.493964        13.4414 
  41   0.0000       0.495794        13.4912 
  42   0.0000       0.518341        14.1048 
  43   0.0000       0.553331        15.0569 
  44   0.0000       0.580388        15.7932 
  45   0.0000       0.621444        16.9104 
  46   0.0000       0.659131        17.9359 
  47   0.0000       0.670446        18.2438 
  48   0.0000       0.733058        19.9475 
  49   0.0000       0.739218        20.1151 
  50   0.0000       0.745142        20.2763 
  51   0.0000       0.796254        21.6672 
  52   0.0000       0.800533        21.7836 
  53   0.0000       0.809401        22.0249 
  54   0.0000       0.838219        22.8091 
  55   0.0000       0.860713        23.4212 
  56   0.0000       0.877680        23.8829 
  57   0.0000       0.900560        24.5055 
  58   0.0000       0.943979        25.6870 
  59   0.0000       1.005689        27.3662 
  60   0.0000       1.044351        28.4182 
  61   0.0000       1.055260        28.7151 
  62   0.0000       1.070717        29.1357 
  63   0.0000       1.071748        29.1637 
  64   0.0000       1.145205        31.1626 
  65   0.0000       1.150207        31.2987 
  66   0.0000       1.209759        32.9192 
  67   0.0000       1.299248        35.3543 
  68   0.0000       1.598548        43.4987 
  69   0.0000       1.604512        43.6610 
  70   0.0000       1.624565        44.2067 
  71   0.0000       1.678522        45.6749 
  72   0.0000       1.763059        47.9753 
  73   0.0000       1.781665        48.4816 
  74   0.0000       1.788606        48.6704 
  75   0.0000       1.794169        48.8218 
  76   0.0000       1.809808        49.2474 
  77   0.0000       1.838815        50.0367 
  78   0.0000       1.840467        50.0816 
  79   0.0000       1.883901        51.2635 
  80   0.0000       1.925067        52.3837 
  81   0.0000       1.953256        53.1508 
  82   0.0000       1.968920        53.5770 
  83   0.0000       2.014023        54.8044 
  84   0.0000       2.023529        55.0630 
  85   0.0000       2.062565        56.1252 
  86   0.0000       2.119038        57.6620 
  87   0.0000       2.129730        57.9529 
  88   0.0000       2.160136        58.7803 
  89   0.0000       2.240806        60.9754 
  90   0.0000       2.261768        61.5458 
  91   0.0000       2.263450        61.5916 
  92   0.0000       2.272262        61.8314 
  93   0.0000       2.342462        63.7416 
  94   0.0000       2.349863        63.9430 
  95   0.0000       2.388801        65.0026 
  96   0.0000       2.396847        65.2215 
  97   0.0000       2.417438        65.7818 
  98   0.0000       2.510375        68.3108 
  99   0.0000       2.593449        70.5713 
 100   0.0000       2.641540        71.8800 
 101   0.0000       2.669345        72.6366 
 102   0.0000       2.850719        77.5720 
 103   0.0000       2.951473        80.3137 
 104   0.0000       3.027810        82.3909 
 105   0.0000       3.033687        82.5508 
 106   0.0000       3.195904        86.9650 
 107   0.0000       3.454558        94.0033 
 108   0.0000       3.533165        96.1423 
 109   0.0000       3.993416       108.6664 
 110   0.0000       3.998012       108.7914 
 111   0.0000       4.010077       109.1197 
 112   0.0000       4.286226       116.6341 
 113   0.0000       4.493888       122.2849 
 114   0.0000       5.016637       136.5096 
 115   0.0000       6.073390       165.2653 
 116   0.0000       6.178259       168.1190 
 117   0.0000       6.195929       168.5998 
 118   0.0000       6.222996       169.3363 
 119   0.0000       6.235276       169.6705 
 120   0.0000       6.268280       170.5686 
 121   0.0000       6.290528       171.1740 
 122   0.0000       6.349057       172.7666 
 123   0.0000       6.352191       172.8519 
 124   0.0000       6.375977       173.4992 
 125   0.0000       6.406965       174.3424 
 126   0.0000       6.430940       174.9948 
 127   0.0000       6.460956       175.8116 
 128   0.0000       6.565518       178.6568 
 129   0.0000       6.616534       180.0450 
 130   0.0000       6.629319       180.3929 
 131   0.0000       6.637716       180.6214 
 132   0.0000       6.643023       180.7658 
 133   0.0000       6.654333       181.0736 
 134   0.0000       6.778833       184.4614 
 135   0.0000       6.894910       187.6200 
 136   0.0000       6.906289       187.9297 
 137   0.0000       6.999487       190.4657 
 138   0.0000       7.032035       191.3514 
 139   0.0000       7.061633       192.1568 
 140   0.0000       7.070966       192.4108 
 141   0.0000       7.220754       196.4867 
 142   0.0000       7.248733       197.2481 
 143   0.0000       8.033211       218.5948 
 144   0.0000       9.049908       246.2605 
 145   0.0000      10.945968       297.8549 
 146   0.0000      11.522258       313.5366 

                    ********************************
                    * MULLIKEN POPULATION ANALYSIS *
                    ********************************

-----------------------
MULLIKEN ATOMIC CHARGES
-----------------------
   0 S :    1.078017
   1 O :   -0.538561
   2 O :   -0.539457
Sum of atomic charges:    0.0000000

--------------------------------
MULLIKEN REDUCED ORBITAL CHARGES
--------------------------------
  0 S s       :     5.782666  s :     5.782666
      pz      :     2.852784  p :     8.464613
      px      :     2.581114
      py      :     3.030715
      dz2     :     0.051604  d :     0.625526
      dxz     :     0.152236
      dyz     :     0.011403
      dx2y2   :     0.222308
      dxy     :     0.187975
      f0      :    -0.001475  f :     0.049178
      f+1     :     0.001426
      f-1     :     0.000887
      f+2     :    -0.000003
      f-2     :     0.011072
      f+3     :     0.023234
      f-3     :     0.014036
  1 O s       :     3.935185  s :     3.935185
      pz      :     1.457081  p :     4.532603
      px      :     1.422898
      py      :     1.652624
      dz2     :     0.003686  d :     0.063872
      dxz     :     0.019880
      dyz     :     0.007214
      dx2y2   :     0.018067
      dxy     :     0.015025
      f0      :     0.000894  f :     0.006900
      f+1     :     0.000415
      f-1     :     0.000151
      f+2     :     0.000572
      f-2     :     0.001418
      f+3     :     0.002451
      f-3     :     0.000999
  2 O s       :     3.935301  s :     3.935301
      pz      :     1.456967  p :     4.533423
      px      :     1.425298
      py      :     1.651159
      dz2     :     0.003698  d :     0.063848
      dxz     :     0.019739
      dyz     :     0.007340
      dx2y2   :     0.018092
      dxy     :     0.014979
      f0      :     0.000892  f :     0.006885
      f+1     :     0.000410
      f-1     :     0.000154
      f+2     :     0.000556
      f-2     :     0.001432
      f+3     :     0.002438
      f-3     :     0.001003


                     *******************************
                     * LOEWDIN POPULATION ANALYSIS *
                     *******************************

----------------------
LOEWDIN ATOMIC CHARGES
----------------------
   0 S :    0.385536
   1 O :   -0.192719
   2 O :   -0.192817

-------------------------------
LOEWDIN REDUCED ORBITAL CHARGES
-------------------------------
  0 S s       :     5.022381  s :     5.022381
      pz      :     2.709586  p :     8.516590
      px      :     2.806300
      py      :     3.000705
      dz2     :     0.149379  d :     1.496328
      dxz     :     0.338264
      dyz     :     0.022306
      dx2y2   :     0.503438
      dxy     :     0.482941
      f0      :     0.024385  f :     0.579165
      f+1     :     0.061950
      f-1     :     0.024984
      f+2     :     0.010780
      f-2     :     0.101541
      f+3     :     0.201418
      f-3     :     0.154107
  1 O s       :     3.465609  s :     3.465609
      pz      :     1.303816  p :     4.369090
      px      :     1.509372
      py      :     1.555902
      dz2     :     0.031824  d :     0.275110
      dxz     :     0.054729
      dyz     :     0.014891
      dx2y2   :     0.066947
      dxy     :     0.106719
      f0      :     0.007713  f :     0.082911
      f+1     :     0.009682
      f-1     :     0.004278
      f+2     :     0.004966
      f-2     :     0.010506
      f+3     :     0.024300
      f-3     :     0.021466
  2 O s       :     3.465589  s :     3.465589
      pz      :     1.303721  p :     4.369205
      px      :     1.509000
      py      :     1.556485
      dz2     :     0.031825  d :     0.275108
      dxz     :     0.054417
      dyz     :     0.015198
      dx2y2   :     0.067049
      dxy     :     0.106620
      f0      :     0.007712  f :     0.082915
      f+1     :     0.009627
      f-1     :     0.004335
      f+2     :     0.004818
      f-2     :     0.010652
      f+3     :     0.024392
      f-3     :     0.021379


                      *****************************
                      * MAYER POPULATION ANALYSIS *
                      *****************************

  NA   - Mulliken gross atomic population
  ZA   - Total nuclear charge
  QA   - Mulliken gross atomic charge
  VA   - Mayer's total valence
  BVA  - Mayer's bonded valence
  FA   - Mayer's free valence

  ATOM       NA         ZA         QA         VA         BVA        FA
  0 S     14.9220    16.0000     1.0780     3.5868     3.5868    -0.0000
  1 O      8.5386     8.0000    -0.5386     2.0186     2.0186     0.0000
  2 O      8.5395     8.0000    -0.5395     2.0176     2.0176     0.0000

  Mayer bond orders larger than 0.100000
B(  0-S ,  1-O ) :   1.7939 B(  0-S ,  2-O ) :   1.7929 B(  1-O ,  2-O ) :   0.2247 


-------
TIMINGS
-------

Total SCF time: 0 days 0 hours 0 min 1 sec 

Total time                  ....       1.878 sec
Sum of individual times     ....       1.759 sec  ( 93.6%)

Fock matrix formation       ....       1.476 sec  ( 78.6%)
  Split-RI-J                ....       1.138 sec  ( 77.1% of F)
  XC integration            ....       0.295 sec  ( 20.0% of F)
    Basis function eval.    ....       0.019 sec  (  6.5% of XC)
    Density eval.           ....       0.023 sec  (  7.7% of XC)
    XC-Functional eval.     ....       0.007 sec  (  2.2% of XC)
    XC-Potential eval.      ....       0.048 sec  ( 16.3% of XC)
Diagonalization             ....       0.023 sec  (  1.2%)
Density matrix formation    ....       0.005 sec  (  0.3%)
Population analysis         ....       0.004 sec  (  0.2%)
Initial guess               ....       0.113 sec  (  6.0%)
Orbital Transformation      ....       0.000 sec  (  0.0%)
Orbital Orthonormalization  ....       0.000 sec  (  0.0%)
DIIS solution               ....       0.009 sec  (  0.5%)
SOSCF solution              ....       0.010 sec  (  0.5%)
Grid generation             ....       0.118 sec  (  6.3%)


-------------------------------------------------------------------------------
                          DFT DISPERSION CORRECTION                            
                                                                               
                              DFTD3 V3.1  Rev 1                                
                          USING Becke-Johnson damping                          
-------------------------------------------------------------------------------
The SCAN functional is recognized
Active option DFTDOPT                   ...         4   

molecular C6(AA) [au] = 331.215031 


            DFT-D V3
 parameters
 s6 scaling factor         :     1.0000 
 a1 scaling factor         :     0.5380 
 s8 scaling factor         :     0.0000 
 a2 scaling factor         :     5.4200 
 ad hoc parameters k1-k3   :    16.0000     1.3333    -4.0000 

 Edisp/kcal,au: -0.167128209740  -0.000266335727 
 E6   /kcal   :  -0.167128210 
 E8   /kcal   :  -0.000000000 
 % E8         :   0.000000000 

-------------------------   ----------------
Dispersion correction           -0.000266336
-------------------------   ----------------


-------------------------   --------------------
FINAL SINGLE POINT ENERGY      -548.715054400798
-------------------------   --------------------



           ************************************************************
           *        Program running with 24 parallel MPI-processes    *
           *              working on a common directory               *
           ************************************************************
------------------------------------------------------------------------------
                         ORCA SCF GRADIENT CALCULATION
------------------------------------------------------------------------------

Gradient of the Kohn-Sham DFT energy:
Kohn-Sham wavefunction type      ... RKS
Hartree-Fock exchange scaling    ...    0.000
Number of operators              ...    1
Number of atoms                  ...    3
Basis set dimensions             ...  147
Integral neglect threshold       ... 2.5e-11
Integral primitive cutoff        ... 2.5e-12

Nuclear repulsion gradient       ... done
One Electron Gradient            ... done
Pre-screening matrix             ... done
RI-J gradient                    ... done
Exchange-correlation gradient    ... done
Dispersion correction            ... done

------------------
CARTESIAN GRADIENT
------------------

   1   S   :    0.000228923   -0.080282912   -0.000000002
   2   O   :    0.058826106   -0.020377298   -0.000000045
   3   O   :   -0.058675442   -0.020766340    0.000000051

Difference to translation invariance:
           :    0.0003795865   -0.1214265491    0.0000000033

Norm of the cartesian gradient     ...    0.1191435759
RMS gradient                       ...    0.0397145253
MAX gradient                       ...    0.0802829117

-------
TIMINGS
-------

Total SCF gradient time            ...        0.500 sec

One electron gradient       ....       0.004 sec  (  0.8%)
Prescreening matrices       ....       0.086 sec  ( 17.1%)
RI-J Coulomb gradient       ....       0.111 sec  ( 22.2%)
XC gradient                 ....       0.077 sec  ( 15.4%)
------------------------------------------------------------------------------
                         ORCA GEOMETRY RELAXATION STEP
------------------------------------------------------------------------------

Reading the OPT-File                    .... done
Getting information on internals        .... done
Copying old internal coords+grads       .... done
Making the new internal coordinates     .... (new redundants).... done
Validating the new internal coordinates .... (new redundants).... done
Calculating the B-matrix                .... done
Calculating the G,G- and P matrices     .... done
Transforming gradient to internals      .... done
Projecting the internal gradient        .... done
Number of atoms                         ....   3
Number of internal coordinates          ....   3
Current Energy                          ....  -548.715054401 Eh
Current gradient norm                   ....     0.119143576 Eh/bohr
Maximum allowed component of the step   ....  0.300
Current trust radius                    ....  0.300
Evaluating the initial hessian          ....  (Almloef) done
Projecting the Hessian                  .... done
Forming the augmented Hessian           .... done
Diagonalizing the augmented Hessian     .... done
Last element of RFO vector              ....  0.981018725
Lowest eigenvalues of augmented Hessian:
 -0.027003830  0.656680346  1.291524410
Length of the computed step             ....  0.197664960
The final length of the internal step   ....  0.197664960
Converting the step to cartesian space:
 Initial RMS(Int)=    0.1141219178
Transforming coordinates:
 Iter   0:  RMS(Cart)=    0.0941074694 RMS(Int)=    0.1132146856
 Iter   1:  RMS(Cart)=    0.0051602342 RMS(Int)=    0.0104952199
 Iter   2:  RMS(Cart)=    0.0004453762 RMS(Int)=    0.0005358686
 Iter   3:  RMS(Cart)=    0.0000483033 RMS(Int)=    0.0000990885
 Iter   4:  RMS(Cart)=    0.0000042167 RMS(Int)=    0.0000050210
 Iter   5:  RMS(Cart)=    0.0000004471 RMS(Int)=    0.0000009252
 Iter   6:  RMS(Cart)=    0.0000000398 RMS(Int)=    0.0000000470
done
Storing new coordinates                 .... done

                                .--------------------.
          ----------------------|Geometry convergence|-------------------------
          Item                value                   Tolerance       Converged
          ---------------------------------------------------------------------
          RMS gradient        0.0805082412            0.0001000000      NO
          MAX gradient        0.1271248006            0.0003000000      NO
          RMS step            0.1141219178            0.0020000000      NO
          MAX step            0.1928275457            0.0040000000      NO
          ........................................................
          Max(Bonds)      0.0163      Max(Angles)   11.05
          Max(Dihed)        0.00      Max(Improp)    0.00
          ---------------------------------------------------------------------

The optimization has not yet converged - more geometry cycles are needed


    ---------------------------------------------------------------------------
                         Redundant Internal Coordinates
                            (Angstroem and degrees)

        Definition                    Value    dE/dq     Step     New-Value
    ----------------------------------------------------------------------------
     1. B(O   1,S   0)                1.4323  0.040524 -0.0163    1.4161   
     2. B(O   2,S   0)                1.4323  0.040519 -0.0163    1.4161   
     3. A(O   1,S   0,O   2)          119.00  0.127125  -11.05    107.96   
    ----------------------------------------------------------------------------

         *************************************************************
         *                GEOMETRY OPTIMIZATION CYCLE   2            *
         *************************************************************
---------------------------------
CARTESIAN COORDINATES (ANGSTROEM)
---------------------------------
  S     -0.001624    0.555184   -0.000000
  O      1.146117   -0.274254   -0.000000
  O     -1.144493   -0.280930    0.000000

----------------------------
CARTESIAN COORDINATES (A.U.)
----------------------------
  NO LB      ZA    FRAG     MASS         X           Y           Z
   0 S    16.0000    0    32.060   -0.003068    1.049145   -0.000000
   1 O     8.0000    0    15.999    2.165847   -0.518264   -0.000000
   2 O     8.0000    0    15.999   -2.162778   -0.530881    0.000000

--------------------------------
INTERNAL COORDINATES (ANGSTROEM)
--------------------------------
 S      0   0   0     0.000000000000     0.00000000     0.00000000
 O      1   0   0     1.416077294372     0.00000000     0.00000000
 O      1   2   0     1.416063842216   107.95659163     0.00000000

---------------------------
INTERNAL COORDINATES (A.U.)
---------------------------
 S      0   0   0     0.000000000000     0.00000000     0.00000000
 O      1   0   0     2.675998270827     0.00000000     0.00000000
 O      1   2   0     2.675972849936   107.95659163     0.00000000



           ************************************************************
           *        Program running with 24 parallel MPI-processes    *
           *              working on a common directory               *
           ************************************************************
 One Electron integrals                  ... done
 Pre-screening matrix                    ... done


           ************************************************************
           *        Program running with 24 parallel MPI-processes    *
           *              working on a common directory               *
           ************************************************************

Diagonalization of the overlap matrix:
Smallest eigenvalue                        ... 3.263e-04
Time for diagonalization                   ...    0.005 sec
Threshold for overlap eigenvalues          ... 1.000e-08
Number of eigenvalues below threshold      ... 0
Time for construction of square roots      ...    0.003 sec
Total time needed                          ...    0.008 sec

-------------------
DFT GRID GENERATION
-------------------

General Integration Accuracy     IntAcc      ...  4.340
Radial Grid Type                 RadialGrid  ... Gauss-Chebyshev
Angular Grid (max. acc.)         AngularGrid ... Lebedev-110
Angular grid pruning method      GridPruning ... 3 (G Style)
Weight generation scheme         WeightScheme... Becke
Basis function cutoff            BFCut       ...    1.0000e-11
Integration weight cutoff        WCut        ...    1.0000e-14
Grids for H and He will be reduced by one unit

# of grid points (after initial pruning)     ...   5238 (   0.0 sec)
# of grid points (after weights+screening)   ...   5202 (   0.0 sec)
nearest neighbour list constructed           ...    0.0 sec
Grid point re-assignment to atoms done       ...    0.0 sec
Grid point division into batches done        ...    0.0 sec
Reduced shell lists constructed in    0.0 sec

Total number of grid points                  ...     5202
Total number of batches                      ...       83
Average number of points per batch           ...       62
Average number of grid points per atom       ...     1734
Average number of shells per batch           ...    26.20 (58.22%)
Average number of basis functions per batch  ...    81.40 (55.37%)
Average number of large shells per batch     ...    19.40 (74.05%)
Average number of large basis fcns per batch ...    65.00 (79.85%)
Maximum spatial batch extension              ...  15.27, 15.01, 16.63 au
Average spatial batch extension              ...   0.54,  0.60,  0.62 au

Time for grid setup =    0.016 sec

--------------
SCF ITERATIONS
--------------
ITER       Energy         Delta-E        Max-DP      RMS-DP      [F,P]     Damp
               ***  Starting incremental Fock matrix formation  ***
  0   -548.6638481469   0.000000000000 0.00762016  0.00030737  0.0947748 0.7000
  1   -548.6677712017  -0.003923054838 0.00629183  0.00027672  0.0664178 0.7000
                               ***Turning on DIIS***
  2   -548.6706947261  -0.002923524339 0.01499552  0.00069596  0.0464870 0.0000
                      *** Initiating the SOSCF procedure ***
                           *** Shutting down DIIS ***
                      *** Re-Reading the Fockian *** 
                      *** Removing any level shift *** 
ITER      Energy       Delta-E        Grad      Rot      Max-DP    RMS-DP
  3   -548.67750075  -0.0068060214  0.001564  0.001564  0.001686  0.000055
               *** Restarting incremental Fock matrix formation ***
  4   -548.67751821  -0.0000174640  0.001400  0.004502  0.003620  0.000080
  5   -548.67743964   0.0000785666  0.004128  0.003827  0.002916  0.000052
  6   -548.67753628  -0.0000966388  0.000044  0.000075  0.000088  0.000003
  7   -548.67753630  -0.0000000163  0.000040  0.000115  0.000048  0.000001
  8   -548.67753632  -0.0000000228  0.000065  0.000105  0.000056  0.000002
  9   -548.67753632   0.0000000014  0.000031  0.000028  0.000052  0.000001
 10   -548.67753633  -0.0000000045  0.000005  0.000007  0.000007  0.000000
                  ***Gradient check signals convergence***
              ***Rediagonalizing the Fockian in SOSCF/NRSCF***

               *****************************************************
               *                     SUCCESS                       *
               *           SCF CONVERGED AFTER  11 CYCLES          *
               *****************************************************

Setting up the final grid:

General Integration Accuracy     IntAcc      ...  4.670
Radial Grid Type                 RadialGrid  ... Gauss-Chebyshev
Angular Grid (max. acc.)         AngularGrid ... Lebedev-302
Angular grid pruning method      GridPruning ... 3 (G Style)
Weight generation scheme         WeightScheme... Becke
Basis function cutoff            BFCut       ...    1.0000e-11
Integration weight cutoff        WCut        ...    1.0000e-14
Grids for H and He will be reduced by one unit

# of grid points (after initial pruning)     ...  19270 (   0.0 sec)
# of grid points (after weights+screening)   ...  19113 (   0.0 sec)
nearest neighbour list constructed           ...    0.0 sec
Grid point re-assignment to atoms done       ...    0.0 sec
Grid point division into batches done        ...    0.1 sec
Reduced shell lists constructed in    0.1 sec

Total number of grid points                  ...    19113
Total number of batches                      ...      300
Average number of points per batch           ...       63
Average number of grid points per atom       ...     6371
Average number of shells per batch           ...    16.43 (36.51%)
Average number of basis functions per batch  ...    50.43 (34.31%)
Average number of large shells per batch     ...    11.64 (70.87%)
Average number of large basis fcns per batch ...    34.21 (67.85%)
Maximum spatial batch extension              ...  19.50, 12.21, 16.88 au
Average spatial batch extension              ...   0.46,  0.41,  0.45 au

Final grid set up in    0.1 sec
Final integration                            ... done (   0.1 sec)
Change in XC energy                          ...    -0.026972779
Integrated number of electrons               ...    32.000003822
Previous integrated no of electrons          ...    32.000255190
Total Energy       :         -548.70450911 Eh          -14931.00877 eV
  Last Energy change         ...   -9.0216e-09  Tolerance :   1.0000e-08
  Last MAX-Density change    ...    1.4684e-06  Tolerance :   1.0000e-07
             **** THE GBW FILE WAS UPDATED (30_SO2.gbw) ****
             **** DENSITY FILE WAS UPDATED (30_SO2.scfp) ****
             **** ENERGY FILE WAS UPDATED (30_SO2.en.tmp) ****
             **** THE GBW FILE WAS UPDATED (30_SO2.gbw) ****
             **** DENSITY FILE WAS UPDATED (30_SO2.scfp) ****
Total SCF time: 0 days 0 hours 0 min 1 sec 


-------------------------------------------------------------------------------
                          DFT DISPERSION CORRECTION                            
                                                                               
                              DFTD3 V3.1  Rev 1                                
                          USING Becke-Johnson damping                          
-------------------------------------------------------------------------------
-------------------------   ----------------
Dispersion correction           -0.000267096
-------------------------   ----------------


-------------------------   --------------------
FINAL SINGLE POINT ENERGY      -548.704776210038
-------------------------   --------------------



           ************************************************************
           *        Program running with 24 parallel MPI-processes    *
           *              working on a common directory               *
           ************************************************************
------------------------------------------------------------------------------
                         ORCA SCF GRADIENT CALCULATION
------------------------------------------------------------------------------

Gradient of the Kohn-Sham DFT energy:
Kohn-Sham wavefunction type      ... RKS
Hartree-Fock exchange scaling    ...    0.000
Number of operators              ...    1
Number of atoms                  ...    3
Basis set dimensions             ...  147
Integral neglect threshold       ... 2.5e-11
Integral primitive cutoff        ... 2.5e-12

Nuclear repulsion gradient       ... done
One Electron Gradient            ... done
Pre-screening matrix             ... done
RI-J gradient                    ... done
Exchange-correlation gradient    ... done
Dispersion correction            ... done

------------------
CARTESIAN GRADIENT
------------------

   1   S   :    0.000072867   -0.054305978   -0.000000003
   2   O   :   -0.004233202   -0.048407204   -0.000000038
   3   O   :    0.004921534   -0.048364611    0.000000050

Difference to translation invariance:
           :    0.0007611985   -0.1510777927    0.0000000081

Norm of the cartesian gradient     ...    0.0875995377
RMS gradient                       ...    0.0291998459
MAX gradient                       ...    0.0543059779

-------
TIMINGS
-------

Total SCF gradient time            ...        0.503 sec

One electron gradient       ....       0.009 sec  (  1.9%)
Prescreening matrices       ....       0.086 sec  ( 17.1%)
RI-J Coulomb gradient       ....       0.111 sec  ( 22.1%)
XC gradient                 ....       0.073 sec  ( 14.5%)
------------------------------------------------------------------------------
                         ORCA GEOMETRY RELAXATION STEP
------------------------------------------------------------------------------

Reading the OPT-File                    .... done
Getting information on internals        .... done
Copying old internal coords+grads       .... done
Making the new internal coordinates     .... (new redundants).... done
Validating the new internal coordinates .... (new redundants).... done
Calculating the B-matrix                .... done
Calculating the G,G- and P matrices     .... done
Transforming gradient to internals      .... done
Projecting the internal gradient        .... done
Number of atoms                         ....   3
Number of internal coordinates          ....   3
Current Energy                          ....  -548.704776210 Eh
Current gradient norm                   ....     0.087599538 Eh/bohr
Maximum allowed component of the step   ....  0.300
Current trust radius                    ....  0.300
Updating the Hessian (BFGS)             .... done
Forming the augmented Hessian           .... done
Diagonalizing the augmented Hessian     .... done
Last element of RFO vector              ....  0.999978446
Lowest eigenvalues of augmented Hessian:
 -0.000047230  0.664456959  1.291520459
Length of the computed step             ....  0.006565732
The final length of the internal step   ....  0.006565732
Converting the step to cartesian space:
 Initial RMS(Int)=    0.0037907271
Transforming coordinates:
 Iter   0:  RMS(Cart)=    0.0029763980 RMS(Int)=    0.0037923240
 Iter   1:  RMS(Cart)=    0.0000025523 RMS(Int)=    0.0000056389
 Iter   2:  RMS(Cart)=    0.0000000067 RMS(Int)=    0.0000000126
done
Storing new coordinates                 .... done

                                .--------------------.
          ----------------------|Geometry convergence|-------------------------
          Item                value                   Tolerance       Converged
          ---------------------------------------------------------------------
          Energy change       0.0102781908            0.0000050000      NO
          RMS gradient        0.0043171539            0.0001000000      NO
          MAX gradient        0.0049656705            0.0003000000      NO
          RMS step            0.0037907271            0.0020000000      NO
          MAX step            0.0041268150            0.0040000000      NO
          ........................................................
          Max(Bonds)      0.0020      Max(Angles)    0.24
          Max(Dihed)        0.00      Max(Improp)    0.00
          ---------------------------------------------------------------------

The optimization has not yet converged - more geometry cycles are needed


    ---------------------------------------------------------------------------
                         Redundant Internal Coordinates
                            (Angstroem and degrees)

        Definition                    Value    dE/dq     Step     New-Value
    ----------------------------------------------------------------------------
     1. B(O   1,S   0)                1.4161 -0.004759  0.0019    1.4179   
     2. B(O   2,S   0)                1.4161 -0.004966  0.0020    1.4180   
     3. A(O   1,S   0,O   2)          107.96 -0.002933    0.24    108.19   
    ----------------------------------------------------------------------------

         *************************************************************
         *                GEOMETRY OPTIMIZATION CYCLE   3            *
         *************************************************************
---------------------------------
CARTESIAN COORDINATES (ANGSTROEM)
---------------------------------
  S     -0.001593    0.554354   -0.000000
  O      1.149365   -0.273819   -0.000000
  O     -1.147772   -0.280535    0.000000

----------------------------
CARTESIAN COORDINATES (A.U.)
----------------------------
  NO LB      ZA    FRAG     MASS         X           Y           Z
   0 S    16.0000    0    32.060   -0.003010    1.047577   -0.000000
   1 O     8.0000    0    15.999    2.171984   -0.517443   -0.000000
   2 O     8.0000    0    15.999   -2.168975   -0.530135    0.000000

--------------------------------
INTERNAL COORDINATES (ANGSTROEM)
--------------------------------
 S      0   0   0     0.000000000000     0.00000000     0.00000000
 O      1   0   0     1.417946812550     0.00000000     0.00000000
 O      1   2   0     1.418015136804   108.19304071     0.00000000

---------------------------
INTERNAL COORDINATES (A.U.)
---------------------------
 S      0   0   0     0.000000000000     0.00000000     0.00000000
 O      1   0   0     2.679531148186     0.00000000     0.00000000
 O      1   2   0     2.679660262315   108.19304071     0.00000000



           ************************************************************
           *        Program running with 24 parallel MPI-processes    *
           *              working on a common directory               *
           ************************************************************
 One Electron integrals                  ... done
 Pre-screening matrix                    ... done


           ************************************************************
           *        Program running with 24 parallel MPI-processes    *
           *              working on a common directory               *
           ************************************************************

Diagonalization of the overlap matrix:
Smallest eigenvalue                        ... 3.268e-04
Time for diagonalization                   ...    0.006 sec
Threshold for overlap eigenvalues          ... 1.000e-08
Number of eigenvalues below threshold      ... 0
Time for construction of square roots      ...    0.002 sec
Total time needed                          ...    0.009 sec

-------------------
DFT GRID GENERATION
-------------------

General Integration Accuracy     IntAcc      ...  4.340
Radial Grid Type                 RadialGrid  ... Gauss-Chebyshev
Angular Grid (max. acc.)         AngularGrid ... Lebedev-110
Angular grid pruning method      GridPruning ... 3 (G Style)
Weight generation scheme         WeightScheme... Becke
Basis function cutoff            BFCut       ...    1.0000e-11
Integration weight cutoff        WCut        ...    1.0000e-14
Grids for H and He will be reduced by one unit

# of grid points (after initial pruning)     ...   5238 (   0.0 sec)
# of grid points (after weights+screening)   ...   5204 (   0.0 sec)
nearest neighbour list constructed           ...    0.0 sec
Grid point re-assignment to atoms done       ...    0.0 sec
Grid point division into batches done        ...    0.0 sec
Reduced shell lists constructed in    0.0 sec

Total number of grid points                  ...     5204
Total number of batches                      ...       83
Average number of points per batch           ...       62
Average number of grid points per atom       ...     1735
Average number of shells per batch           ...    26.20 (58.22%)
Average number of basis functions per batch  ...    81.40 (55.37%)
Average number of large shells per batch     ...    19.40 (74.05%)
Average number of large basis fcns per batch ...    65.00 (79.85%)
Maximum spatial batch extension              ...  15.28, 15.00, 16.63 au
Average spatial batch extension              ...   0.54,  0.60,  0.62 au

Time for grid setup =    0.015 sec

--------------
SCF ITERATIONS
--------------
ITER       Energy         Delta-E        Max-DP      RMS-DP      [F,P]     Damp
               ***  Starting incremental Fock matrix formation  ***
                      *** Initiating the SOSCF procedure ***
                      *** Re-Reading the Fockian *** 
                      *** Removing any level shift *** 
ITER      Energy       Delta-E        Grad      Rot      Max-DP    RMS-DP
  0   -548.67819701 -548.6781970113  0.001457  0.001457  0.000772  0.000028
               *** Restarting incremental Fock matrix formation ***
  1   -548.67820696  -0.0000099480  0.000228  0.000720  0.000425  0.000013
  2   -548.67820683   0.0000001310  0.000386  0.000505  0.000354  0.000007
  3   -548.67820763  -0.0000008028  0.000117  0.000257  0.000228  0.000005
  4   -548.67820766  -0.0000000245  0.000156  0.000318  0.000166  0.000004
  5   -548.67820765   0.0000000100  0.000133  0.000156  0.000195  0.000004
  6   -548.67820776  -0.0000001181  0.000036  0.000046  0.000091  0.000002
  7   -548.67820781  -0.0000000444  0.000013  0.000016  0.000011  0.000000
                  ***Gradient check signals convergence***
              ***Rediagonalizing the Fockian in SOSCF/NRSCF***

               *****************************************************
               *                     SUCCESS                       *
               *           SCF CONVERGED AFTER   8 CYCLES          *
               *****************************************************

Setting up the final grid:

General Integration Accuracy     IntAcc      ...  4.670
Radial Grid Type                 RadialGrid  ... Gauss-Chebyshev
Angular Grid (max. acc.)         AngularGrid ... Lebedev-302
Angular grid pruning method      GridPruning ... 3 (G Style)
Weight generation scheme         WeightScheme... Becke
Basis function cutoff            BFCut       ...    1.0000e-11
Integration weight cutoff        WCut        ...    1.0000e-14
Grids for H and He will be reduced by one unit

# of grid points (after initial pruning)     ...  19270 (   0.0 sec)
# of grid points (after weights+screening)   ...  19114 (   0.0 sec)
nearest neighbour list constructed           ...    0.0 sec
Grid point re-assignment to atoms done       ...    0.0 sec
Grid point division into batches done        ...    0.1 sec
Reduced shell lists constructed in    0.1 sec

Total number of grid points                  ...    19114
Total number of batches                      ...      300
Average number of points per batch           ...       63
Average number of grid points per atom       ...     6371
Average number of shells per batch           ...    16.36 (36.35%)
Average number of basis functions per batch  ...    50.36 (34.26%)
Average number of large shells per batch     ...    11.64 (71.18%)
Average number of large basis fcns per batch ...    34.21 (67.94%)
Maximum spatial batch extension              ...  19.50, 12.04, 16.88 au
Average spatial batch extension              ...   0.46,  0.41,  0.45 au

Final grid set up in    0.1 sec
Final integration                            ... done (   0.1 sec)
Change in XC energy                          ...    -0.026992904
Integrated number of electrons               ...    32.000004735
Previous integrated no of electrons          ...    32.000268916
Total Energy       :         -548.70520070 Eh          -14931.02759 eV
  Last Energy change         ...    7.1041e-09  Tolerance :   1.0000e-08
  Last MAX-Density change    ...    2.3269e-06  Tolerance :   1.0000e-07
             **** THE GBW FILE WAS UPDATED (30_SO2.gbw) ****
             **** DENSITY FILE WAS UPDATED (30_SO2.scfp) ****
             **** ENERGY FILE WAS UPDATED (30_SO2.en.tmp) ****
             **** THE GBW FILE WAS UPDATED (30_SO2.gbw) ****
             **** DENSITY FILE WAS UPDATED (30_SO2.scfp) ****
Total SCF time: 0 days 0 hours 0 min 1 sec 


-------------------------------------------------------------------------------
                          DFT DISPERSION CORRECTION                            
                                                                               
                              DFTD3 V3.1  Rev 1                                
                          USING Becke-Johnson damping                          
-------------------------------------------------------------------------------
-------------------------   ----------------
Dispersion correction           -0.000267073
-------------------------   ----------------


-------------------------   --------------------
FINAL SINGLE POINT ENERGY      -548.705467778095
-------------------------   --------------------



           ************************************************************
           *        Program running with 24 parallel MPI-processes    *
           *              working on a common directory               *
           ************************************************************
------------------------------------------------------------------------------
                         ORCA SCF GRADIENT CALCULATION
------------------------------------------------------------------------------

Gradient of the Kohn-Sham DFT energy:
Kohn-Sham wavefunction type      ... RKS
Hartree-Fock exchange scaling    ...    0.000
Number of operators              ...    1
Number of atoms                  ...    3
Basis set dimensions             ...  147
Integral neglect threshold       ... 2.5e-11
Integral primitive cutoff        ... 2.5e-12

Nuclear repulsion gradient       ... done
One Electron Gradient            ... done
Pre-screening matrix             ... done
RI-J gradient                    ... done
Exchange-correlation gradient    ... done
Dispersion correction            ... done

------------------
CARTESIAN GRADIENT
------------------

   1   S   :    0.000143365   -0.052769470   -0.000000009
   2   O   :   -0.000181986   -0.049259079   -0.000000037
   3   O   :    0.000737983   -0.049329856    0.000000045

Difference to translation invariance:
           :    0.0006993629   -0.1513584042   -0.0000000004

Norm of the cartesian gradient     ...    0.0874363010
RMS gradient                       ...    0.0291454337
MAX gradient                       ...    0.0527694700

-------
TIMINGS
-------

Total SCF gradient time            ...        0.505 sec

One electron gradient       ....       0.007 sec  (  1.4%)
Prescreening matrices       ....       0.086 sec  ( 17.1%)
RI-J Coulomb gradient       ....       0.111 sec  ( 22.0%)
XC gradient                 ....       0.071 sec  ( 14.1%)
------------------------------------------------------------------------------
                         ORCA GEOMETRY RELAXATION STEP
------------------------------------------------------------------------------

Reading the OPT-File                    .... done
Getting information on internals        .... done
Copying old internal coords+grads       .... done
Making the new internal coordinates     .... (new redundants).... done
Validating the new internal coordinates .... (new redundants).... done
Calculating the B-matrix                .... done
Calculating the G,G- and P matrices     .... done
Transforming gradient to internals      .... done
Projecting the internal gradient        .... done
Number of atoms                         ....   3
Number of internal coordinates          ....   3
Current Energy                          ....  -548.705467778 Eh
Current gradient norm                   ....     0.087436301 Eh/bohr
Maximum allowed component of the step   ....  0.300
Current trust radius                    ....  0.300
Updating the Hessian (BFGS)             .... done
Forming the augmented Hessian           .... done
Diagonalizing the augmented Hessian     .... done
Last element of RFO vector              ....  0.999995754
Lowest eigenvalues of augmented Hessian:
 -0.000006782  0.795798149  1.097140137
Length of the computed step             ....  0.002914155
The final length of the internal step   ....  0.002914155
Converting the step to cartesian space:
 Initial RMS(Int)=    0.0016824880
Transforming coordinates:
 Iter   0:  RMS(Cart)=    0.0009052869 RMS(Int)=    0.0016828686
 Iter   1:  RMS(Cart)=    0.0000010183 RMS(Int)=    0.0000014401
 Iter   2:  RMS(Cart)=    0.0000000006 RMS(Int)=    0.0000000014
done
Storing new coordinates                 .... done

                                .--------------------.
          ----------------------|Geometry convergence|-------------------------
          Item                value                   Tolerance       Converged
          ---------------------------------------------------------------------
          Energy change      -0.0006915681            0.0000050000      NO
          RMS gradient        0.0013446218            0.0001000000      NO
          MAX gradient        0.0017912184            0.0003000000      NO
          RMS step            0.0016824880            0.0020000000      YES
          MAX step            0.0021721356            0.0040000000      YES
          ........................................................
          Max(Bonds)      0.0007      Max(Angles)    0.12
          Max(Dihed)        0.00      Max(Improp)    0.00
          ---------------------------------------------------------------------

The optimization has not yet converged - more geometry cycles are needed


    ---------------------------------------------------------------------------
                         Redundant Internal Coordinates
                            (Angstroem and degrees)

        Definition                    Value    dE/dq     Step     New-Value
    ----------------------------------------------------------------------------
     1. B(O   1,S   0)                1.4179 -0.001010  0.0007    1.4187   
     2. B(O   2,S   0)                1.4180 -0.001093  0.0007    1.4188   
     3. A(O   1,S   0,O   2)          108.19  0.001791   -0.12    108.07   
    ----------------------------------------------------------------------------

         *************************************************************
         *                GEOMETRY OPTIMIZATION CYCLE   4            *
         *************************************************************
---------------------------------
CARTESIAN COORDINATES (ANGSTROEM)
---------------------------------
  S     -0.001580    0.555470   -0.000000
  O      1.149042   -0.274372   -0.000000
  O     -1.147463   -0.281098    0.000000

----------------------------
CARTESIAN COORDINATES (A.U.)
----------------------------
  NO LB      ZA    FRAG     MASS         X           Y           Z
   0 S    16.0000    0    32.060   -0.002985    1.049686   -0.000000
   1 O     8.0000    0    15.999    2.171375   -0.518488   -0.000000
   2 O     8.0000    0    15.999   -2.168390   -0.531198    0.000000

--------------------------------
INTERNAL COORDINATES (ANGSTROEM)
--------------------------------
 S      0   0   0     0.000000000000     0.00000000     0.00000000
 O      1   0   0     1.418650056402     0.00000000     0.00000000
 O      1   2   0     1.418765010578   108.06858651     0.00000000

---------------------------
INTERNAL COORDINATES (A.U.)
---------------------------
 S      0   0   0     0.000000000000     0.00000000     0.00000000
 O      1   0   0     2.680860086471     0.00000000     0.00000000
 O      1   2   0     2.681077318382   108.06858651     0.00000000



           ************************************************************
           *        Program running with 24 parallel MPI-processes    *
           *              working on a common directory               *
           ************************************************************
 One Electron integrals                  ... done
 Pre-screening matrix                    ... done


           ************************************************************
           *        Program running with 24 parallel MPI-processes    *
           *              working on a common directory               *
           ************************************************************

Diagonalization of the overlap matrix:
Smallest eigenvalue                        ... 3.274e-04
Time for diagonalization                   ...    0.006 sec
Threshold for overlap eigenvalues          ... 1.000e-08
Number of eigenvalues below threshold      ... 0
Time for construction of square roots      ...    0.002 sec
Total time needed                          ...    0.008 sec

-------------------
DFT GRID GENERATION
-------------------

General Integration Accuracy     IntAcc      ...  4.340
Radial Grid Type                 RadialGrid  ... Gauss-Chebyshev
Angular Grid (max. acc.)         AngularGrid ... Lebedev-110
Angular grid pruning method      GridPruning ... 3 (G Style)
Weight generation scheme         WeightScheme... Becke
Basis function cutoff            BFCut       ...    1.0000e-11
Integration weight cutoff        WCut        ...    1.0000e-14
Grids for H and He will be reduced by one unit

# of grid points (after initial pruning)     ...   5238 (   0.0 sec)
# of grid points (after weights+screening)   ...   5204 (   0.0 sec)
nearest neighbour list constructed           ...    0.0 sec
Grid point re-assignment to atoms done       ...    0.0 sec
Grid point division into batches done        ...    0.0 sec
Reduced shell lists constructed in    0.0 sec

Total number of grid points                  ...     5204
Total number of batches                      ...       83
Average number of points per batch           ...       62
Average number of grid points per atom       ...     1735
Average number of shells per batch           ...    26.20 (58.22%)
Average number of basis functions per batch  ...    81.40 (55.37%)
Average number of large shells per batch     ...    19.40 (74.05%)
Average number of large basis fcns per batch ...    65.00 (79.85%)
Maximum spatial batch extension              ...  15.28, 15.01, 16.63 au
Average spatial batch extension              ...   0.54,  0.60,  0.62 au

Time for grid setup =    0.016 sec

--------------
SCF ITERATIONS
--------------
ITER       Energy         Delta-E        Max-DP      RMS-DP      [F,P]     Damp
               ***  Starting incremental Fock matrix formation  ***
                      *** Initiating the SOSCF procedure ***
                      *** Re-Reading the Fockian *** 
                      *** Removing any level shift *** 
ITER      Energy       Delta-E        Grad      Rot      Max-DP    RMS-DP
  0   -548.67809427 -548.6780942727  0.000540  0.000540  0.000414  0.000015
               *** Restarting incremental Fock matrix formation ***
  1   -548.67809635  -0.0000020727  0.000174  0.000563  0.000422  0.000010
  2   -548.67809505   0.0000012955  0.000542  0.000520  0.000395  0.000007
  3   -548.67809678  -0.0000017253  0.000019  0.000057  0.000061  0.000002
  4   -548.67809678  -0.0000000010  0.000040  0.000087  0.000037  0.000001
  5   -548.67809677   0.0000000064  0.000039  0.000050  0.000050  0.000001
  6   -548.67809677   0.0000000027  0.000017  0.000015  0.000034  0.000001
  7   -548.67809678  -0.0000000129  0.000004  0.000005  0.000003  0.000000
                  ***Gradient check signals convergence***
              ***Rediagonalizing the Fockian in SOSCF/NRSCF***

               *****************************************************
               *                     SUCCESS                       *
               *           SCF CONVERGED AFTER   8 CYCLES          *
               *****************************************************

Setting up the final grid:

[...]
 135   0.0000       6.889681       187.4777 
 136   0.0000       6.944586       188.9718 
 137   0.0000       7.013279       190.8410 
 138   0.0000       7.059638       192.1025 
 139   0.0000       7.075171       192.5252 
 140   0.0000       7.080322       192.6654 
 141   0.0000       7.243130       197.0956 
 142   0.0000       7.385234       200.9624 
 143   0.0000       8.203507       223.2288 
 144   0.0000       8.963093       243.8982 
 145   0.0000      11.204540       304.8910 
 146   0.0000      11.451329       311.6065 

                    ********************************
                    * MULLIKEN POPULATION ANALYSIS *
                    ********************************

-----------------------
MULLIKEN ATOMIC CHARGES
-----------------------
   0 S :    1.113442
   1 O :   -0.556232
   2 O :   -0.557209
Sum of atomic charges:   -0.0000000

--------------------------------
MULLIKEN REDUCED ORBITAL CHARGES
--------------------------------
  0 S s       :     5.737403  s :     5.737403
      pz      :     2.852798  p :     8.465627
      px      :     2.600046
      py      :     3.012783
      dz2     :     0.044637  d :     0.631248
      dxz     :     0.149912
      dyz     :     0.013564
      dx2y2   :     0.228768
      dxy     :     0.194366
      f0      :    -0.001529  f :     0.052281
      f+1     :     0.001630
      f-1     :     0.001453
      f+2     :     0.000011
      f-2     :     0.012977
      f+3     :     0.020766
      f-3     :     0.016973
  1 O s       :     3.933700  s :     3.933700
      pz      :     1.455997  p :     4.552551
      px      :     1.499323
      py      :     1.597230
      dz2     :     0.003377  d :     0.062679
      dxz     :     0.017079
      dyz     :     0.010171
      dx2y2   :     0.018167
      dxy     :     0.013884
      f0      :     0.000890  f :     0.007303
      f+1     :     0.000323
      f-1     :     0.000223
      f+2     :     0.000229
      f-2     :     0.001835
      f+3     :     0.002556
      f-3     :     0.001246
  2 O s       :     3.933784  s :     3.933784
      pz      :     1.455890  p :     4.553537
      px      :     1.502474
      py      :     1.595174
      dz2     :     0.003372  d :     0.062612
      dxz     :     0.016911
      dyz     :     0.010313
      dx2y2   :     0.018133
      dxy     :     0.013881
      f0      :     0.000889  f :     0.007276
      f+1     :     0.000315
      f-1     :     0.000227
      f+2     :     0.000216
      f-2     :     0.001846
      f+3     :     0.002515
      f-3     :     0.001268


                     *******************************
                     * LOEWDIN POPULATION ANALYSIS *
                     *******************************

----------------------
LOEWDIN ATOMIC CHARGES
----------------------
   0 S :    0.376374
   1 O :   -0.188151
   2 O :   -0.188223

-------------------------------
LOEWDIN REDUCED ORBITAL CHARGES
-------------------------------
  0 S s       :     5.018088  s :     5.018088
      pz      :     2.703814  p :     8.521985
      px      :     2.792749
      py      :     3.025422
      dz2     :     0.141996  d :     1.475314
      dxz     :     0.325676
      dyz     :     0.028927
      dx2y2   :     0.474080
      dxy     :     0.504635
      f0      :     0.024079  f :     0.608240
      f+1     :     0.054673
      f-1     :     0.030983
      f+2     :     0.004215
      f-2     :     0.121811
      f+3     :     0.212119
      f-3     :     0.160359
  1 O s       :     3.445681  s :     3.445681
      pz      :     1.296438  p :     4.365427
      px      :     1.533695
      py      :     1.535293
      dz2     :     0.033713  d :     0.288140
      dxz     :     0.052975
      dyz     :     0.021792
      dx2y2   :     0.077099
      dxy     :     0.102561
      f0      :     0.008130  f :     0.088904
      f+1     :     0.009803
      f-1     :     0.005350
      f+2     :     0.003060
      f-2     :     0.013394
      f+3     :     0.028541
      f-3     :     0.020627
  2 O s       :     3.445721  s :     3.445721
      pz      :     1.296373  p :     4.365586
      px      :     1.533689
      py      :     1.535524
      dz2     :     0.033706  d :     0.288042
      dxz     :     0.052591
      dyz     :     0.022150
      dx2y2   :     0.077392
      dxy     :     0.102203
      f0      :     0.008127  f :     0.088874
      f+1     :     0.009741
      f-1     :     0.005409
      f+2     :     0.002945
      f-2     :     0.013503
      f+3     :     0.028577
      f-3     :     0.020571


                      *****************************
                      * MAYER POPULATION ANALYSIS *
                      *****************************

  NA   - Mulliken gross atomic population
  ZA   - Total nuclear charge
  QA   - Mulliken gross atomic charge
  VA   - Mayer's total valence
  BVA  - Mayer's bonded valence
  FA   - Mayer's free valence

  ATOM       NA         ZA         QA         VA         BVA        FA
  0 S     14.8866    16.0000     1.1134     3.6105     3.6105    -0.0000
  1 O      8.5562     8.0000    -0.5562     2.0209     2.0209    -0.0000
  2 O      8.5572     8.0000    -0.5572     2.0204     2.0204    -0.0000

  Mayer bond orders larger than 0.100000
B(  0-S ,  1-O ) :   1.8055 B(  0-S ,  2-O ) :   1.8050 B(  1-O ,  2-O ) :   0.2154 


-------
TIMINGS
-------

Total SCF time: 0 days 0 hours 0 min 0 sec 

Total time                  ....       0.832 sec
Sum of individual times     ....       0.684 sec  ( 82.2%)

Fock matrix formation       ....       0.543 sec  ( 65.2%)
  Split-RI-J                ....       0.354 sec  ( 65.2% of F)
  XC integration            ....       0.073 sec  ( 13.4% of F)
    Basis function eval.    ....       0.007 sec  (  9.8% of XC)
    Density eval.           ....       0.009 sec  ( 12.6% of XC)
    XC-Functional eval.     ....       0.003 sec  (  3.5% of XC)
    XC-Potential eval.      ....       0.020 sec  ( 27.3% of XC)
Diagonalization             ....       0.003 sec  (  0.4%)
Density matrix formation    ....       0.003 sec  (  0.3%)
Population analysis         ....       0.004 sec  (  0.5%)
Initial guess               ....       0.010 sec  (  1.2%)
Orbital Transformation      ....       0.000 sec  (  0.0%)
Orbital Orthonormalization  ....       0.006 sec  (  0.7%)
DIIS solution               ....       0.000 sec  (  0.1%)
SOSCF solution              ....       0.004 sec  (  0.5%)
Grid generation             ....       0.117 sec  ( 14.0%)


-------------------------------------------------------------------------------
                          DFT DISPERSION CORRECTION                            
                                                                               
                              DFTD3 V3.1  Rev 1                                
                          USING Becke-Johnson damping                          
-------------------------------------------------------------------------------
The SCAN functional is recognized
Active option DFTDOPT                   ...         4   

molecular C6(AA) [au] = 331.152963 


            DFT-D V3
 parameters
 s6 scaling factor         :     1.0000 
 a1 scaling factor         :     0.5380 
 s8 scaling factor         :     0.0000 
 a2 scaling factor         :     5.4200 
 ad hoc parameters k1-k3   :    16.0000     1.3333    -4.0000 

 Edisp/kcal,au: -0.167593390493  -0.000267077040 
 E6   /kcal   :  -0.167593390 
 E8   /kcal   :  -0.000000000 
 % E8         :   0.000000000 

-------------------------   ----------------
Dispersion correction           -0.000267077
-------------------------   ----------------


-------------------------   --------------------
FINAL SINGLE POINT ENERGY      -548.705289461208
-------------------------   --------------------

                                *** OPTIMIZATION RUN DONE ***

                            ***************************************
                            *     ORCA property calculations      *
                            ***************************************

                                    ---------------------
                                    Active property flags
                                    ---------------------
   (+) Dipole Moment


------------------------------------------------------------------------------
                       ORCA ELECTRIC PROPERTIES CALCULATION
------------------------------------------------------------------------------

Dipole Moment Calculation                       ... on
Quadrupole Moment Calculation                   ... off
Polarizability Calculation                      ... off
GBWName                                         ... 30_SO2.gbw
Electron density file                           ... 30_SO2.scfp
The origin for moment calculation is the CENTER OF MASS  = (-0.000748,  0.263474 -0.000000)

-------------
DIPOLE MOMENT
-------------
                                X             Y             Z
Electronic contribution:     -0.00192       0.84417      -0.00000
Nuclear contribution   :      0.00007      -0.02441       0.00000
                        -----------------------------------------
Total Dipole Moment    :     -0.00186       0.81976      -0.00000
                        -----------------------------------------
Magnitude (a.u.)       :      0.81976
Magnitude (Debye)      :      2.08367



--------------------
Rotational spectrum 
--------------------
 
Rotational constants in cm-1:     1.512930     0.399843     0.316261 
Rotational constants in MHz : 45356.495832 11987.005013  9481.258292 

 Dipole components along the rotational axes: 
x,y,z [a.u.] :     0.000573    -0.819762    -0.000000 
x,y,z [Debye]:     0.001457    -2.083668    -0.000000 

 

----------------------------------------------------------------------------
                           ORCA NUMERICAL FREQUENCIES
                              (24-process run)
----------------------------------------------------------------------------

Number of atoms                ... 3
Central differences            ... used
Number of displacements        ... 18
Numerical increment            ... 5.000e-03 bohr
IR-spectrum generation         ... on
Raman-spectrum generation      ... off
Surface Crossing Hessian       ... off

 WARNING: There are more processes than displacements to do
  ====> : Reducing number of processes to   9

The output will be reduced. Please look at the following files:
SCF program output             ... >30_SO2.lastscf
Integral program output        ... >30_SO2.lastint
Gradient program output        ... >30_SO2.lastgrad
Dipole moment program output   ... >30_SO2.lastmom
AutoCI program output          ... >30_SO2.lastautoci


         <<< Energy and Gradient at the input geometry >>>

        <<< Energy and Gradient at displaced geometries >>>
             <<<Displacing   1/coordinate 3 (+)>>>
             <<<Displacing   3/coordinate 1 (+)>>>
             <<<Displacing   2/coordinate 2 (+)>>>
             <<<Displacing   3/coordinate 3 (+)>>>
             <<<Displacing   1/coordinate 1 (+)>>>
             <<<Displacing   2/coordinate 1 (+)>>>
             <<<Displacing   2/coordinate 3 (+)>>>
             <<<Displacing   3/coordinate 2 (+)>>>
             <<<Displacing   1/coordinate 2 (+)>>>
             <<<Displacing   2/coordinate 2 (-)>>>
             <<<Displacing   2/coordinate 1 (-)>>>
             <<<Displacing   1/coordinate 1 (-)>>>
             <<<Displacing   3/coordinate 1 (-)>>>
             <<<Displacing   3/coordinate 2 (-)>>>
             <<<Displacing   1/coordinate 2 (-)>>>
             <<<Displacing   3/coordinate 3 (-)>>>
             <<<Displacing   2/coordinate 3 (-)>>>
             <<<Displacing   1/coordinate 3 (-)>>>

-----------------------
VIBRATIONAL FREQUENCIES
-----------------------

Scaling factor for frequencies =  1.000000000 (already applied!)

   0:         0.00 cm**-1
   1:         0.00 cm**-1
   2:         0.00 cm**-1
   3:         0.00 cm**-1
   4:         0.00 cm**-1
   5:         0.00 cm**-1
   6:       718.40 cm**-1
   7:      1360.22 cm**-1
   8:      1475.90 cm**-1


------------
NORMAL MODES
------------

These modes are the cartesian displacements weighted by the diagonal matrix
M(i,i)=1/sqrt(m[i]) where m[i] is the mass of the displaced atom
Thus, these vectors are normalized but *not* orthogonal

                  0          1          2          3          4          5    
      0       0.000000   0.000000   0.000000   0.000000   0.000000   0.000000
      1       0.000000   0.000000   0.000000   0.000000   0.000000   0.000000
      2       0.000000   0.000000   0.000000   0.000000   0.000000   0.000000
      3       0.000000   0.000000   0.000000   0.000000   0.000000   0.000000
      4       0.000000   0.000000   0.000000   0.000000   0.000000   0.000000
      5       0.000000   0.000000   0.000000   0.000000   0.000000   0.000000
      6       0.000000   0.000000   0.000000   0.000000   0.000000   0.000000
      7       0.000000   0.000000   0.000000   0.000000   0.000000   0.000000
      8       0.000000   0.000000   0.000000   0.000000   0.000000   0.000000
                   6          7          8    
      0      -0.000907  -0.003926  -0.495786
      1       0.411243   0.342032  -0.003452
      2      -0.000000  -0.000000   0.000000
      3      -0.494732   0.573182   0.493742
      4      -0.413303  -0.343179  -0.357531
      5       0.000000  -0.000000  -0.000000
      6       0.496550  -0.565315   0.499752
      7      -0.410777  -0.342211   0.364448
      8      -0.000000   0.000000  -0.000000


-----------
IR SPECTRUM  
-----------

 Mode    freq (cm**-1)   T**2         TX         TY         TZ
-------------------------------------------------------------------
   6:       718.40   29.919278  ( -0.011612   5.469839   0.000000)
   7:      1360.22   23.127069  ( -0.107233   4.807865  -0.000002)
   8:      1475.90  187.803022  (-13.703940  -0.071153   0.000002)

The first frequency considered to be a vibration is 6
The total number of vibrations considered is 3


--------------------------
THERMOCHEMISTRY AT 298.15K
--------------------------

Temperature         ... 298.15 K
Pressure            ... 1.00 atm
Total Mass          ... 64.06 AMU

Throughout the following assumptions are being made:
  (1) The electronic state is orbitally nondegenerate
  (2) There are no thermally accessible electronically excited states
  (3) Hindered rotations indicated by low frequency modes are not
      treated as such but are treated as vibrations and this may
      cause some error
  (4) All equations used are the standard statistical mechanics
      equations for an ideal gas
  (5) All vibrations are strictly harmonic

freq.     718.40  E(vib)   ...       0.07 
freq.    1360.22  E(vib)   ...       0.01 
freq.    1475.90  E(vib)   ...       0.00 

------------
INNER ENERGY
------------

The inner energy is: U= E(el) + E(ZPE) + E(vib) + E(rot) + E(trans)
    E(el)   - is the total energy from the electronic structure calculation
              = E(kin-el) + E(nuc-el) + E(el-el) + E(nuc-nuc)
    E(ZPE)  - the the zero temperature vibrational energy from the frequency calculation
    E(vib)  - the the finite temperature correction to E(ZPE) due to population
              of excited vibrational states
    E(rot)  - is the rotational thermal energy
    E(trans)- is the translational thermal energy

Summary of contributions to the inner energy U:
Electronic energy                ...   -548.70528949 Eh
Zero point energy                ...      0.00809779 Eh       5.08 kcal/mol
Thermal vibrational correction   ...      0.00011967 Eh       0.08 kcal/mol
Thermal rotational correction    ...      0.00141627 Eh       0.89 kcal/mol
Thermal translational correction ...      0.00141627 Eh       0.89 kcal/mol
-----------------------------------------------------------------------
Total thermal energy                   -548.69423948 Eh


Summary of corrections to the electronic energy:
(perhaps to be used in another calculation)
Total thermal correction                  0.00295221 Eh       1.85 kcal/mol
Non-thermal (ZPE) correction              0.00809779 Eh       5.08 kcal/mol
-----------------------------------------------------------------------
Total correction                          0.01105001 Eh       6.93 kcal/mol


--------
ENTHALPY
--------

The enthalpy is H = U + kB*T
                kB is Boltzmann's constant
Total free energy                 ...   -548.69423948 Eh 
Thermal Enthalpy correction       ...      0.00094421 Eh       0.59 kcal/mol
-----------------------------------------------------------------------
Total Enthalpy                    ...   -548.69329527 Eh


Note: Rotational entropy computed according to Herzberg 
Infrared and Raman Spectra, Chapter V,1, Van Nostrand Reinhold, 1945 
Point Group:  Cs, Symmetry Number:   1  
Rotational constants in cm-1:     1.512930     0.399843     0.316261 

Vibrational entropy computed according to the QRRHO of S. Grimme
Chem.Eur.J. 2012 18 9955


-------
ENTROPY
-------

The entropy contributions are T*S = T*(S(el)+S(vib)+S(rot)+S(trans))
     S(el)   - electronic entropy
     S(vib)  - vibrational entropy
     S(rot)  - rotational entropy
     S(trans)- translational entropy
The entropies will be listed as mutliplied by the temperature to get
units of energy

Electronic entropy                ...      0.00000000 Eh      0.00 kcal/mol
Vibrational entropy               ...      0.00015182 Eh      0.10 kcal/mol
Rotational entropy                ...      0.01029156 Eh      6.46 kcal/mol
Translational entropy             ...      0.01824046 Eh     11.45 kcal/mol
-----------------------------------------------------------------------
Final entropy term                ...      0.02868385 Eh     18.00 kcal/mol

In case the symmetry of your molecule has not been determined correctly
or in case you have a reason to use a different symmetry number we print 
out the resulting rotational entropy values for sn=1,12 :
 --------------------------------------------------------
|  sn= 1 | S(rot)=       0.01029156 Eh      6.46 kcal/mol|
|  sn= 2 | S(rot)=       0.00963711 Eh      6.05 kcal/mol|
|  sn= 3 | S(rot)=       0.00925428 Eh      5.81 kcal/mol|
|  sn= 4 | S(rot)=       0.00898265 Eh      5.64 kcal/mol|
|  sn= 5 | S(rot)=       0.00877196 Eh      5.50 kcal/mol|
|  sn= 6 | S(rot)=       0.00859982 Eh      5.40 kcal/mol|
|  sn= 7 | S(rot)=       0.00845427 Eh      5.31 kcal/mol|
|  sn= 8 | S(rot)=       0.00832819 Eh      5.23 kcal/mol|
|  sn= 9 | S(rot)=       0.00821699 Eh      5.16 kcal/mol|
|  sn=10 | S(rot)=       0.00811751 Eh      5.09 kcal/mol|
|  sn=11 | S(rot)=       0.00802752 Eh      5.04 kcal/mol|
|  sn=12 | S(rot)=       0.00794536 Eh      4.99 kcal/mol|
 --------------------------------------------------------


-------------------
GIBBS FREE ENERGY
-------------------

The Gibbs free energy is G = H - T*S

Total enthalpy                    ...   -548.69329527 Eh 
Total entropy correction          ...     -0.02868385 Eh    -18.00 kcal/mol
-----------------------------------------------------------------------
Final Gibbs free energy         ...   -548.72197912 Eh

For completeness - the Gibbs free energy minus the electronic energy
G-E(el)                           ...     -0.01668963 Eh    -10.47 kcal/mol


Total Time for Numerical Frequencies  :        19.209 sec

Timings for individual modules:

Sum of individual times         ...       21.080 sec (=   0.351 min)
GTO integral calculation        ...        4.255 sec (=   0.071 min)  20.2 %
SCF iterations                  ...       11.519 sec (=   0.192 min)  54.6 %
SCF Gradient evaluation         ...        5.133 sec (=   0.086 min)  24.4 %
Geometry relaxation             ...        0.173 sec (=   0.003 min)   0.8 %
                             ****ORCA TERMINATED NORMALLY****
TOTAL RUN TIME: 0 days 0 hours 0 minutes 38 seconds 723 msec
