
                                 *****************
                                 * O   R   C   A *
                                 *****************

           --- An Ab Initio, DFT and Semiempirical electronic structure package ---

                  #######################################################
                  #                        -***-                        #
                  #          Department of theory and spectroscopy      #
                  #               Directorship: Frank Neese             #
                  #        Max Planck Institute fuer Kohlenforschung    #
                  #                Kaiser Wilhelm Platz 1               #
                  #                 D-45470 Muelheim/Ruhr               #
                  #                      Germany                        #
                  #                                                     #
                  #                  All rights reserved                #
                  #                        -***-                        #
                  #######################################################


                         Program Version 4.2.0 -  RELEASE  -


 With contributions from (in alphabetic order):
   Daniel Aravena         : Magnetic Suceptibility
   Michael Atanasov       : Ab Initio Ligand Field Theory (pilot matlab implementation)
   Alexander A. Auer      : GIAO ZORA, VPT2
   Ute Becker             : Parallelization
   Giovanni Bistoni       : ED, misc. LED, open-shell LED, HFLED
   Martin Brehm           : Molecular dynamics
   Dmytro Bykov           : SCF Hessian
   Vijay G. Chilkuri      : MRCI spin determinant printing, contributions to CSF-ICE
   Dipayan Datta          : RHF DLPNO-CCSD density
   Achintya Kumar Dutta   : EOM-CC, STEOM-CC
   Dmitry Ganyushin       : Spin-Orbit,Spin-Spin,Magnetic field MRCI
   Miquel Garcia          : C-PCM Hessian, Gaussian charge scheme
   Yang Guo               : DLPNO-NEVPT2, CIM, IAO-localization
   Andreas Hansen         : Spin unrestricted coupled pair/coupled cluster methods
   Benjamin Helmich-Paris : CASSCF linear response (MC-RPA)
   Lee Huntington         : MR-EOM, pCC
   Robert Izsak           : Overlap fitted RIJCOSX, COSX-SCS-MP3, EOM
   Christian Kollmar      : KDIIS, OOCD, Brueckner-CCSD(T), CCSD density
   Simone Kossmann        : Meta GGA functionals, TD-DFT gradient, OOMP2, MP2 Hessian
   Martin Krupicka        : AUTO-CI
   Lucas Lang             : DCDCAS
   Dagmar Lenk            : GEPOL surface, SMD
   Dimitrios Liakos       : Extrapolation schemes; Compound Job, initial MDCI parallelization
   Dimitrios Manganas     : Further ROCIS development; embedding schemes
   Dimitrios Pantazis     : SARC Basis sets
   Taras Petrenko         : DFT Hessian,TD-DFT gradient, ASA, ECA, R-Raman, ABS, FL, XAS/XES, NRVS
   Peter Pinski           : DLPNO-MP2, DLPNO-MP2 Gradient
   Christoph Reimann      : Effective Core Potentials
   Marius Retegan         : Local ZFS, SOC
   Christoph Riplinger    : Optimizer, TS searches, QM/MM, DLPNO-CCSD(T), (RO)-DLPNO pert. Triples
   Tobias Risthaus        : Range-separated hybrids, TD-DFT gradient, RPA, STAB
   Michael Roemelt        : Original ROCIS implementation
   Masaaki Saitow         : Open-shell DLPNO-CCSD energy and density
   Barbara Sandhoefer     : DKH picture change effects
   Avijit Sen             : IP-ROCIS
   Kantharuban Sivalingam : CASSCF convergence, NEVPT2, FIC-MRCI
   Bernardo de Souza      : ESD, SOC TD-DFT
   Georgi Stoychev        : AutoAux, RI-MP2 NMR
   Willem Van den Heuvel  : Paramagnetic NMR
   Boris Wezisla          : Elementary symmetry handling
   Frank Wennmohs         : Technical directorship


 We gratefully acknowledge several colleagues who have allowed us to
 interface, adapt or use parts of their codes:
   Stefan Grimme, W. Hujo, H. Kruse,             : VdW corrections, initial TS optimization,
                  C. Bannwarth                     DFT functionals, gCP, sTDA/sTD-DF
   Ed Valeev, F. Pavosevic, A. Kumar             : LibInt (2-el integral package), F12 methods
   Garnet Chan, S. Sharma, J. Yang, R. Olivares  : DMRG
   Ulf Ekstrom                                   : XCFun DFT Library
   Mihaly Kallay                                 : mrcc  (arbitrary order and MRCC methods)
   Andreas Klamt, Michael Diedenhofen            : otool_cosmo (COSMO solvation model)
   Jiri Pittner, Ondrej Demel                    : Mk-CCSD
   Frank Weinhold                                : gennbo (NPA and NBO analysis)
   Christopher J. Cramer and Donald G. Truhlar   : smd solvation model
   Lars Goerigk                                  : TD-DFT with DH, B97 family of functionals
   V. Asgeirsson, H. Jonsson                     : NEB implementation
   FAccTs GmbH                                   : IRC, NEB, NEB-TS, Multilevel, MM, QM/MM, CI optimization
   S Lehtola, MJT Oliveira, MAL Marques          : LibXC Library


 Your calculation uses the libint2 library for the computation of 2-el integrals
 For citations please refer to: http://libint.valeyev.net

 Your ORCA version has been built with support for libXC version: 4.2.3
 For citations please refer to: https://tddft.org/programs/libxc/

 This ORCA versions uses:
   CBLAS   interface :  Fast vector & matrix operations
   LAPACKE interface :  Fast linear algebra routines
   SCALAPACK package :  Parallel linear algebra routines


Your calculation utilizes the atom-pairwise dispersion correction
with the Becke-Johnson damping scheme (D3BJ)
Cite in your paper:
S.Grimme, S.Ehrlich, L.Goerigk, J Comput Chem, (2011), 32, 1456–1465 
S.Grimme, J.Antony, S.Ehrlich and H.Krieg, J.Chem.Phys., 132, (2010), 154104 
   

----- Orbital basis set information -----
Your calculation utilizes the basis: aug-cc-pV(T+d)Z 
             Al - Ar: T.H. Dunning, Jr., K. A. Peterson and A. K. Wilson, J. Chem. Phys.
                      114, 9244 (2001)

----- AuxJ basis set information -----
Your calculation utilizes the auxiliary basis: def2/J
   F. Weigend, Phys. Chem. Chem. Phys. 8, 1057 (2006).

================================================================================
                                        WARNINGS
                       Please study these warnings very carefully!
================================================================================


WARNING: your system is open-shell and RHF/RKS was chosen
  ===> : WILL SWITCH to UHF/UKS


WARNING: The environment variable RSH_COMMAND is not set!
  ===> : All Displacements for the Numerical Hessian calculation
         will be started on localhost

WARNING: Geometry Optimization
  ===> : Switching off AutoStart
         For restart on a previous wavefunction, please use MOREAD

WARNING: The SCAN functional is very grid-sensitive!
         Use at least GRID5 and a higher intacc

INFO   : the flag for use of LIBINT has been found!

================================================================================
                                       INPUT FILE
================================================================================
NAME = 33_SO.in
|  1> #
|  2> # 33_SO scanfunc/aug-cc-pvt(+d)z
|  3> #
|  4> ! scanfunc d3bj aug-cc-pvt(+d)z def2/j opt xyzfile numfreq
|  5> 
|  6> *xyz 0 3
|  7> S            0.000000327         -0.000000134          0.002547174
|  8> O           -0.000000327          0.000000134          1.483667376
|  9> *
| 10> 
| 11> %pal
| 12> nprocs 24
| 13> end
| 14> 
| 15> 
| 16>                          ****END OF INPUT****
================================================================================

                       *****************************
                       * Geometry Optimization Run *
                       *****************************

Geometry optimization settings:
Update method            Update   .... BFGS
Choice of coordinates    CoordSys .... Z-matrix Internals
Initial Hessian          InHess   .... Almoef's Model

Convergence Tolerances:
Energy Change            TolE     ....  5.0000e-06 Eh
Max. Gradient            TolMAXG  ....  3.0000e-04 Eh/bohr
RMS Gradient             TolRMSG  ....  1.0000e-04 Eh/bohr
Max. Displacement        TolMAXD  ....  4.0000e-03 bohr
RMS Displacement         TolRMSD  ....  2.0000e-03 bohr
Strict Convergence                ....  False
------------------------------------------------------------------------------
                        ORCA OPTIMIZATION COORDINATE SETUP
------------------------------------------------------------------------------

The optimization will be done in new redundant internal coordinates
Making redundant internal coordinates   ...  (new redundants) done
Evaluating the initial hessian          ...  (Almloef) done
Evaluating the coordinates              ...  done
Calculating the B-matrix                .... done
Calculating the G-matrix                .... done
Diagonalizing the G-matrix              .... done
The first mode is                       ....    0
The number of degrees of freedom        ....    1

    -----------------------------------------------------------------
                    Redundant Internal Coordinates


    -----------------------------------------------------------------
         Definition                    Initial Value    Approx d2E/dq
    -----------------------------------------------------------------
      1. B(O   1,S   0)                  1.4811         1.079610   
    -----------------------------------------------------------------

Number of atoms                         .... 2
Number of degrees of freedom            .... 1

         *************************************************************
         *                GEOMETRY OPTIMIZATION CYCLE   1            *
         *************************************************************
---------------------------------
CARTESIAN COORDINATES (ANGSTROEM)
---------------------------------
  S      0.000000   -0.000000    0.002547
  O     -0.000000    0.000000    1.483667

----------------------------
CARTESIAN COORDINATES (A.U.)
----------------------------
  NO LB      ZA    FRAG     MASS         X           Y           Z
   0 S    16.0000    0    32.060    0.000001   -0.000000    0.004813
   1 O     8.0000    0    15.999   -0.000001    0.000000    2.803725

--------------------------------
INTERNAL COORDINATES (ANGSTROEM)
--------------------------------
 S      0   0   0     0.000000000000     0.00000000     0.00000000
 O      1   0   0     1.481120202000     0.00000000     0.00000000

---------------------------
INTERNAL COORDINATES (A.U.)
---------------------------
 S      0   0   0     0.000000000000     0.00000000     0.00000000
 O      1   0   0     2.798911553198     0.00000000     0.00000000

---------------------
BASIS SET INFORMATION
---------------------
There are 2 groups of distinct atoms

 Group   1 Type S   : 42s17p4d2f contracted to 6s5p4d2f pattern {131313111/77111/1111/11}
 Group   2 Type O   : 19s6p3d2f contracted to 5s4p3d2f pattern {88111/3111/111/11}

Atom   0S    basis set group =>   1
Atom   1O    basis set group =>   2
---------------------------------
AUXILIARY/J BASIS SET INFORMATION
---------------------------------
There are 2 groups of distinct atoms

 Group   1 Type S   : 14s5p5d2f1g contracted to 8s4p3d1f1g pattern {71111111/2111/311/2/1}
 Group   2 Type O   : 12s5p4d2f1g contracted to 6s4p3d1f1g pattern {711111/2111/211/2/1}

Atom   0S    basis set group =>   1
Atom   1O    basis set group =>   2


           ************************************************************
           *        Program running with 24 parallel MPI-processes    *
           *              working on a common directory               *
           ************************************************************
------------------------------------------------------------------------------
                           ORCA GTO INTEGRAL CALCULATION
                           -- RI-GTO INTEGRALS CHOSEN --
------------------------------------------------------------------------------

                         BASIS SET STATISTICS AND STARTUP INFO

Gaussian basis set:
 # of primitive gaussian shells          ...   95
 # of primitive gaussian functions       ...  193
 # of contracted shells                  ...   31
 # of contracted basis functions         ...  101
 Highest angular momentum                ...    3
 Maximum contraction depth               ...   13
Auxiliary gaussian basis set:
 # of primitive gaussian shells          ...   51
 # of primitive gaussian functions       ...  147
 # of contracted shells                  ...   32
 # of contracted aux-basis functions     ...  100
 Highest angular momentum                ...    4
 Maximum contraction depth               ...    7
Ratio of auxiliary to basis functions    ...  0.99
Integral package used                  ... LIBINT
 One Electron integrals                  ... done
 Ordering auxiliary basis shells         ... done
 Integral threshhold             Thresh  ...  2.500e-11
 Primitive cut-off               TCut    ...  2.500e-12
 Pre-screening matrix                    ... done
 Shell pair data                         ... 
 Ordering of the shell pairs             ... done (   0.000 sec) 496 of 496 pairs
 Determination of significant pairs      ... done (   0.000 sec)
 Creation of shell pair data             ... done (   0.000 sec)
 Storage of shell pair data              ... done (   0.015 sec)
 Shell pair data done in (   0.015 sec)
 Computing two index integrals           ... done
 Cholesky decomposition of the V-matrix  ... done


Timings:
 Total evaluation time                   ...   0.327 sec (  0.005 min)
 One electron matrix time                ...   0.120 sec (  0.002 min) = 36.8%
 Schwartz matrix evaluation time         ...   0.149 sec (  0.002 min) = 45.7%
 Two index repulsion integral time       ...   0.004 sec (  0.000 min) =  1.1%
 Cholesky decomposition of V             ...   0.008 sec (  0.000 min) =  2.4%
 Three index repulsion integral time     ...   0.000 sec (  0.000 min) =  0.0%



           ************************************************************
           *        Program running with 24 parallel MPI-processes    *
           *              working on a common directory               *
           ************************************************************
-------------------------------------------------------------------------------
                                 ORCA SCF
-------------------------------------------------------------------------------

------------
SCF SETTINGS
------------
Hamiltonian:
 Density Functional     Method          .... DFT(GTOs)
 Exchange Functional    Exchange        .... SCAN
 Correlation Functional Correlation     .... SCAN
 Gradients option       PostSCFGGA      .... off
   Density functional embedding theory  .... OFF
   NL short-range parameter             ....  6.400000
 RI-approximation to the Coulomb term is turned on
   Number of auxiliary basis functions  .... 100


General Settings:
 Integral files         IntName         .... 33_SO
 Hartree-Fock type      HFTyp           .... UHF
 Total Charge           Charge          ....    0
 Multiplicity           Mult            ....    3
 Number of Electrons    NEL             ....   24
 Basis Dimension        Dim             ....  101
 Nuclear Repulsion      ENuc            ....     45.7320631850 Eh

Convergence Acceleration:
 DIIS                   CNVDIIS         .... on
   Start iteration      DIISMaxIt       ....    12
   Startup error        DIISStart       ....  0.200000
   # of expansion vecs  DIISMaxEq       ....     5
   Bias factor          DIISBfac        ....   1.050
   Max. coefficient     DIISMaxC        ....  10.000
 Newton-Raphson         CNVNR           .... off
 SOSCF                  CNVSOSCF        .... off
 Level Shifting         CNVShift        .... on
   Level shift para.    LevelShift      ....    0.2500
   Turn off err/grad.   ShiftErr        ....    0.0010
 Zerner damping         CNVZerner       .... off
 Static damping         CNVDamp         .... on
   Fraction old density DampFac         ....    0.7000
   Max. Damping (<1)    DampMax         ....    0.9800
   Min. Damping (>=0)   DampMin         ....    0.0000
   Turn off err/grad.   DampErr         ....    0.1000
 Fernandez-Rico         CNVRico         .... off

SCF Procedure:
 Maximum # iterations   MaxIter         ....   125
 SCF integral mode      SCFMode         .... Direct
   Integral package                     .... LIBINT
 Reset frequency        DirectResetFreq ....    20
 Integral Threshold     Thresh          ....  2.500e-11 Eh
 Primitive CutOff       TCut            ....  2.500e-12 Eh

Convergence Tolerance:
 Convergence Check Mode ConvCheckMode   .... Total+1el-Energy
 Convergence forced     ConvForced      .... 0
 Energy Change          TolE            ....  1.000e-08 Eh
 1-El. energy change                    ....  1.000e-05 Eh
 DIIS Error             TolErr          ....  5.000e-07


Diagonalization of the overlap matrix:
Smallest eigenvalue                        ... 4.873e-04
Time for diagonalization                   ...    0.018 sec
Threshold for overlap eigenvalues          ... 1.000e-08
Number of eigenvalues below threshold      ... 0
Time for construction of square roots      ...    0.010 sec
Total time needed                          ...    0.028 sec

-------------------
DFT GRID GENERATION
-------------------

General Integration Accuracy     IntAcc      ...  4.340
Radial Grid Type                 RadialGrid  ... Gauss-Chebyshev
Angular Grid (max. acc.)         AngularGrid ... Lebedev-110
Angular grid pruning method      GridPruning ... 3 (G Style)
Weight generation scheme         WeightScheme... Becke
Basis function cutoff            BFCut       ...    1.0000e-11
Integration weight cutoff        WCut        ...    1.0000e-14
Grids for H and He will be reduced by one unit

# of grid points (after initial pruning)     ...   3522 (   0.0 sec)
# of grid points (after weights+screening)   ...   3497 (   0.0 sec)
nearest neighbour list constructed           ...    0.0 sec
Grid point re-assignment to atoms done       ...    0.0 sec
Grid point division into batches done        ...    0.0 sec
Reduced shell lists constructed in    0.0 sec

Total number of grid points                  ...     3497
Total number of batches                      ...       55
Average number of points per batch           ...       63
Average number of grid points per atom       ...     1748
Average number of shells per batch           ...    19.00 (61.29%)
Average number of basis functions per batch  ...    59.50 (58.91%)
Average number of large shells per batch     ...    13.00 (68.42%)
Average number of large basis fcns per batch ...    45.50 (76.47%)
Maximum spatial batch extension              ...  16.21, 29.83, 16.23 au
Average spatial batch extension              ...   0.82,  1.39,  0.88 au

Time for grid setup =    0.067 sec

------------------------------
INITIAL GUESS: MODEL POTENTIAL
------------------------------
Loading Hartree-Fock densities                     ... done
Calculating cut-offs                               ... done
Setting up the integral package                    ... done
Initializing the effective Hamiltonian             ... done
Starting the Coulomb interaction                   ... done (   0.0 sec)
Reading the grid                                   ... done
Mapping shells                                     ... done
Starting the XC term evaluation                    ... done (   0.0 sec)
  promolecular density results
     # of electrons  =     23.999893372
     EX              =    -36.843963532
     EC              =     -0.404101065
     EX+EC           =    -37.248064597
Transforming the Hamiltonian                       ... done (   0.0 sec)
Diagonalizing the Hamiltonian                      ... done (   0.0 sec)
Back transforming the eigenvectors                 ... done (   0.0 sec)
Now organizing SCF variables                       ... done
                      ------------------
                      INITIAL GUESS DONE (   0.2 sec)
                      ------------------
--------------
SCF ITERATIONS
--------------
ITER       Energy         Delta-E        Max-DP      RMS-DP      [F,P]     Damp
               ***  Starting incremental Fock matrix formation  ***
  0   -473.1300443288   0.000000000000 0.05208668  0.00156447  0.5314159 0.7000
  1   -473.2811211665  -0.151076837667 0.02316214  0.00073979  0.1351153 0.7000
                               ***Turning on DIIS***
  2   -473.3016545864  -0.020533419945 0.03340641  0.00116475  0.0798773 0.0000
  3   -473.4081459695  -0.106491383095 0.01685239  0.00041349  0.0358580 0.0000
  4   -473.4115998523  -0.003453882773 0.00695401  0.00016141  0.0237198 0.0000
  5   -473.4124101374  -0.000810285073 0.00256693  0.00008464  0.0059455 0.0000
  6   -473.4125720372  -0.000161899851 0.00099978  0.00004012  0.0019793 0.0000
  7   -473.4126079357  -0.000035898454 0.00073625  0.00002779  0.0004437 0.0000
  8   -473.4126174123  -0.000009476664 0.00029984  0.00000767  0.0002893 0.0000
  9   -473.4126182197  -0.000000807348 0.00013162  0.00000422  0.0000606 0.0000
 10   -473.4126183385  -0.000000118788 0.00001623  0.00000045  0.0000429 0.0000
 11   -473.4126183417  -0.000000003257 0.00000401  0.00000010  0.0000116 0.0000
 12   -473.4126183489  -0.000000007142 0.00000206  0.00000005  0.0000014 0.0000
                            ***DIIS convergence achieved***

               *****************************************************
               *                     SUCCESS                       *
               *           SCF CONVERGED AFTER  13 CYCLES          *
               *****************************************************

Setting up the final grid:

General Integration Accuracy     IntAcc      ...  4.670
Radial Grid Type                 RadialGrid  ... Gauss-Chebyshev
Angular Grid (max. acc.)         AngularGrid ... Lebedev-302
Angular grid pruning method      GridPruning ... 3 (G Style)
Weight generation scheme         WeightScheme... Becke
Basis function cutoff            BFCut       ...    1.0000e-11
Integration weight cutoff        WCut        ...    1.0000e-14
Grids for H and He will be reduced by one unit

# of grid points (after initial pruning)     ...  13058 (   0.0 sec)
# of grid points (after weights+screening)   ...  13030 (   0.0 sec)
nearest neighbour list constructed           ...    0.0 sec
Grid point re-assignment to atoms done       ...    0.0 sec
Grid point division into batches done        ...    0.1 sec
Reduced shell lists constructed in    0.1 sec

Total number of grid points                  ...    13030
Total number of batches                      ...      205
Average number of points per batch           ...       63
Average number of grid points per atom       ...     6515
Average number of shells per batch           ...     7.70 (24.84%)
Average number of basis functions per batch  ...    23.90 (23.66%)
Average number of large shells per batch     ...     5.40 (70.13%)
Average number of large basis fcns per batch ...    14.20 (59.41%)
Maximum spatial batch extension              ...  19.94, 19.94, 13.00 au
Average spatial batch extension              ...   0.71,  0.71,  0.50 au

Final grid set up in    0.1 sec
Final integration                            ... done (   0.1 sec)
Change in XC energy                          ...    -0.033145052
Integrated number of electrons               ...    23.999997919
Previous integrated no of electrons          ...    23.999901359

----------------
TOTAL SCF ENERGY
----------------

Total Energy       :         -473.44576339 Eh          -12883.11419 eV

Components:
Nuclear Repulsion  :           45.73206318 Eh            1244.43270 eV
Electronic Energy  :         -519.17782658 Eh          -14127.54689 eV
One Electron Energy:         -743.59264912 Eh          -20234.18467 eV
Two Electron Energy:          224.41482254 Eh            6106.63778 eV

Virial components:
Potential Energy   :         -945.34826852 Eh          -25724.23418 eV
Kinetic Energy     :          471.90250513 Eh           12841.11999 eV
Virial Ratio       :            2.00327029


DFT components:
N(Alpha)           :       12.999998426490 electrons
N(Beta)            :       10.999999492632 electrons
N(Total)           :       23.999997919122 electrons
E(X)               :      -33.386452488890 Eh       
E(C)               :       -0.867719494132 Eh       
E(XC)              :      -34.254171983022 Eh       
DFET-embed. en.    :        0.000000000000 Eh       

---------------
SCF CONVERGENCE
---------------

  Last Energy change         ...    7.0084e-09  Tolerance :   1.0000e-08
  Last MAX-Density change    ...    4.6714e-07  Tolerance :   1.0000e-07
  Last RMS-Density change    ...    8.1381e-09  Tolerance :   5.0000e-09
  Last DIIS Error            ...    5.7153e-07  Tolerance :   5.0000e-07

             **** THE GBW FILE WAS UPDATED (33_SO.gbw) ****
             **** DENSITY FILE WAS UPDATED (33_SO.scfp) ****
             **** ENERGY FILE WAS UPDATED (33_SO.en.tmp) ****
----------------------
UHF SPIN CONTAMINATION
----------------------

Warning: in a DFT calculation there is little theoretical justification to 
         calculate <S**2> as in Hartree-Fock theory. We will do it anyways
         but you should keep in mind that the values have only limited relevance

Expectation value of <S**2>     :     2.013418
Ideal value S*(S+1) for S=1.0   :     2.000000
Deviation                       :     0.013418

             **** THE GBW FILE WAS UPDATED (33_SO.gbw) ****
             **** DENSITY FILE WAS UPDATED (33_SO.scfp) ****
----------------
ORBITAL ENERGIES
----------------
                 SPIN UP ORBITALS
  NO   OCC          E(Eh)            E(eV) 
   0   1.0000     -88.632500     -2411.8129 
   1   1.0000     -19.056786      -518.5615 
   2   1.0000      -7.978733      -217.1124 
   3   1.0000      -5.922541      -161.1605 
   4   1.0000      -5.915896      -160.9797 
   5   1.0000      -5.915896      -160.9797 
   6   1.0000      -1.054268       -28.6881 
   7   1.0000      -0.651126       -17.7181 
   8   1.0000      -0.428585       -11.6624 
   9   1.0000      -0.422436       -11.4951 
  10   1.0000      -0.422436       -11.4951 
  11   1.0000      -0.239186        -6.5086 
  12   1.0000      -0.239186        -6.5086 
  13   0.0000      -0.033668        -0.9161 
  14   0.0000       0.035352         0.9620 
  15   0.0000       0.063436         1.7262 
  16   0.0000       0.063436         1.7262 
  17   0.0000       0.076619         2.0849 
  18   0.0000       0.129941         3.5359 
  19   0.0000       0.130268         3.5448 
  20   0.0000       0.142642         3.8815 
  21   0.0000       0.155738         4.2379 
  22   0.0000       0.155738         4.2379 
  23   0.0000       0.236083         6.4241 
  24   0.0000       0.236083         6.4241 
  25   0.0000       0.257902         7.0179 
  26   0.0000       0.332510         9.0481 
  27   0.0000       0.387592        10.5469 
  28   0.0000       0.387592        10.5469 
  29   0.0000       0.425187        11.5699 
  30   0.0000       0.474858        12.9215 
  31   0.0000       0.478818        13.0293 
  32   0.0000       0.513360        13.9692 
  33   0.0000       0.513360        13.9692 
  34   0.0000       0.542421        14.7600 
  35   0.0000       0.563066        15.3218 
  36   0.0000       0.563909        15.3447 
  37   0.0000       0.687565        18.7096 
  38   0.0000       0.687565        18.7096 
  39   0.0000       0.721543        19.6342 
  40   0.0000       0.725608        19.7448 
  41   0.0000       0.725608        19.7448 
  42   0.0000       0.856701        23.3120 
  43   0.0000       0.856701        23.3120 
  44   0.0000       0.870608        23.6905 
  45   0.0000       0.872753        23.7488 
  46   0.0000       0.874011        23.7831 
  47   0.0000       0.939987        25.5783 
  48   0.0000       1.098563        29.8934 
  49   0.0000       1.098563        29.8934 
  50   0.0000       1.247159        33.9369 
  51   0.0000       1.573983        42.8302 
  52   0.0000       1.576252        42.8920 
  53   0.0000       1.631338        44.3910 
  54   0.0000       1.677261        45.6406 
  55   0.0000       1.696662        46.1685 
  56   0.0000       1.696662        46.1685 
  57   0.0000       1.765971        48.0545 
  58   0.0000       1.776971        48.3538 
  59   0.0000       1.841411        50.1073 
  60   0.0000       1.841411        50.1073 
  61   0.0000       1.900717        51.7211 
  62   0.0000       1.900717        51.7211 
  63   0.0000       2.026012        55.1306 
  64   0.0000       2.026012        55.1306 
  65   0.0000       2.105547        57.2948 
  66   0.0000       2.110741        57.4362 
  67   0.0000       2.155102        58.6433 
  68   0.0000       2.155102        58.6433 
  69   0.0000       2.184693        59.4485 
  70   0.0000       2.342101        63.7318 
  71   0.0000       2.342709        63.7483 
  72   0.0000       2.342709        63.7483 
  73   0.0000       2.343568        63.7717 
  74   0.0000       2.356727        64.1298 
  75   0.0000       2.642139        71.8963 
  76   0.0000       2.942173        80.0606 
  77   0.0000       2.942173        80.0606 
  78   0.0000       3.324503        90.4643 
  79   0.0000       3.913517       106.4922 
  80   0.0000       3.913517       106.4922 
  81   0.0000       4.377802       119.1260 
  82   0.0000       5.534714       150.6072 
  83   0.0000       6.130151       166.8099 
  84   0.0000       6.130151       166.8099 
  85   0.0000       6.257862       170.2851 
  86   0.0000       6.258852       170.3120 
  87   0.0000       6.348187       172.7429 
  88   0.0000       6.348187       172.7429 
  89   0.0000       6.364143       173.1771 
  90   0.0000       6.545571       178.1140 
  91   0.0000       6.557780       178.4463 
  92   0.0000       6.716382       182.7620 
  93   0.0000       6.719891       182.8575 
  94   0.0000       6.750076       183.6789 
  95   0.0000       6.750076       183.6789 
  96   0.0000       6.911296       188.0659 
  97   0.0000       7.080847       192.6796 
  98   0.0000       7.080847       192.6796 
  99   0.0000       8.233314       224.0399 
 100   0.0000      10.827733       294.6376 

                 SPIN DOWN ORBITALS
  NO   OCC          E(Eh)            E(eV) 
   0   1.0000     -88.634262     -2411.8609 
   1   1.0000     -19.020953      -517.5864 
   2   1.0000      -7.974504      -216.9973 
   3   1.0000      -5.913237      -160.9074 
   4   1.0000      -5.909438      -160.8040 
   5   1.0000      -5.909438      -160.8040 
   6   1.0000      -1.031681       -28.0735 
   7   1.0000      -0.586973       -15.9724 
   8   1.0000      -0.393558       -10.7093 
   9   1.0000      -0.373924       -10.1750 
  10   1.0000      -0.373924       -10.1750 
  11   0.0000      -0.151834        -4.1316 
  12   0.0000      -0.151834        -4.1316 
  13   0.0000      -0.009671        -0.2632 
  14   0.0000       0.061024         1.6605 
  15   0.0000       0.068839         1.8732 
  16   0.0000       0.068839         1.8732 
  17   0.0000       0.088069         2.3965 
  18   0.0000       0.157020         4.2727 
  19   0.0000       0.163677         4.4539 
  20   0.0000       0.163677         4.4539 
  21   0.0000       0.177933         4.8418 
  22   0.0000       0.178204         4.8492 
  23   0.0000       0.267801         7.2872 
  24   0.0000       0.274824         7.4784 
  25   0.0000       0.274824         7.4784 
  26   0.0000       0.388488        10.5713 
  27   0.0000       0.423086        11.5128 
  28   0.0000       0.423086        11.5128 
  29   0.0000       0.462227        12.5778 
  30   0.0000       0.529135        14.3985 
  31   0.0000       0.531080        14.4514 
  32   0.0000       0.557291        15.1646 
  33   0.0000       0.557291        15.1646 
  34   0.0000       0.558489        15.1972 
  35   0.0000       0.594380        16.1739 
  36   0.0000       0.595126        16.1942 
  37   0.0000       0.744797        20.2669 
  38   0.0000       0.744797        20.2669 
  39   0.0000       0.755088        20.5470 
  40   0.0000       0.763967        20.7886 
  41   0.0000       0.763967        20.7886 
  42   0.0000       0.901164        24.5219 
  43   0.0000       0.903964        24.5981 
  44   0.0000       0.903964        24.5981 
  45   0.0000       0.921490        25.0750 
  46   0.0000       0.921563        25.0770 
  47   0.0000       0.991182        26.9714 
  48   0.0000       1.144138        31.1336 
  49   0.0000       1.144138        31.1336 
  50   0.0000       1.321700        35.9653 
  51   0.0000       1.674250        45.5587 
  52   0.0000       1.676636        45.6236 
  53   0.0000       1.678361        45.6705 
  54   0.0000       1.745830        47.5064 
  55   0.0000       1.769416        48.1483 
  56   0.0000       1.769416        48.1483 
  57   0.0000       1.831043        49.8252 
  58   0.0000       1.831799        49.8458 
  59   0.0000       1.904104        51.8133 
  60   0.0000       1.904104        51.8133 
  61   0.0000       1.940544        52.8049 
  62   0.0000       1.940544        52.8049 
  63   0.0000       2.137810        58.1728 
  64   0.0000       2.137810        58.1728 
  65   0.0000       2.171837        59.0987 
  66   0.0000       2.172607        59.1196 
  67   0.0000       2.219599        60.3984 
  68   0.0000       2.219599        60.3984 
  69   0.0000       2.228399        60.6378 
  70   0.0000       2.397678        65.2441 
  71   0.0000       2.397678        65.2441 
  72   0.0000       2.425528        66.0020 
  73   0.0000       2.426840        66.0377 
  74   0.0000       2.428151        66.0733 
  75   0.0000       2.700575        73.4864 
  76   0.0000       3.017795        82.1184 
  77   0.0000       3.017795        82.1184 
  78   0.0000       3.397633        92.4543 
  79   0.0000       4.016649       109.2986 
  80   0.0000       4.016649       109.2986 
  81   0.0000       4.435560       120.6977 
  82   0.0000       5.558749       151.2613 
  83   0.0000       6.273185       170.7020 
  84   0.0000       6.273185       170.7020 
  85   0.0000       6.373509       173.4320 
  86   0.0000       6.384225       173.7236 
  87   0.0000       6.409023       174.3984 
  88   0.0000       6.409023       174.3984 
  89   0.0000       6.441058       175.2701 
  90   0.0000       6.692589       182.1146 
  91   0.0000       6.705240       182.4588 
  92   0.0000       6.749696       183.6686 
  93   0.0000       6.752202       183.7367 
  94   0.0000       6.836739       186.0371 
  95   0.0000       6.836739       186.0371 
  96   0.0000       6.978779       189.9022 
  97   0.0000       7.143115       194.3740 
  98   0.0000       7.143115       194.3740 
  99   0.0000       8.288749       225.5483 
 100   0.0000      10.916204       297.0450 

                    ********************************
                    * MULLIKEN POPULATION ANALYSIS *
                    ********************************

--------------------------------------------
MULLIKEN ATOMIC CHARGES AND SPIN POPULATIONS
--------------------------------------------
   0 S :    0.485950    1.242605
   1 O :   -0.485950    0.757395
Sum of atomic charges         :    0.0000000
Sum of atomic spin populations:    2.0000000

-----------------------------------------------------
MULLIKEN REDUCED ORBITAL CHARGES AND SPIN POPULATIONS
-----------------------------------------------------
CHARGE
  0 S s       :     5.909549  s :     5.909549
      pz      :     2.746912  p :     9.363051
      px      :     3.308070
      py      :     3.308070
      dz2     :     0.047030  d :     0.217676
      dxz     :     0.085323
      dyz     :     0.085323
      dx2y2   :     0.000000
      dxy     :     0.000000
      f0      :     0.005378  f :     0.023773
      f+1     :     0.009197
      f-1     :     0.009197
      f+2     :     0.000000
      f-2     :     0.000000
      f+3     :     0.000001
      f-3     :     0.000001
  1 O s       :     3.938230  s :     3.938230
      pz      :     1.333387  p :     4.467943
      px      :     1.567278
      py      :     1.567278
      dz2     :     0.017942  d :     0.072235
      dxz     :     0.027147
      dyz     :     0.027147
      dx2y2   :     0.000000
      dxy     :     0.000000
      f0      :     0.001572  f :     0.007541
      f+1     :     0.002984
      f-1     :     0.002984
      f+2     :     0.000000
      f-2     :     0.000000
      f+3     :     0.000000
      f-3     :     0.000000

SPIN
  0 S s       :    -0.005653  s :    -0.005653
      pz      :    -0.102476  p :     1.181523
      px      :     0.642000
      py      :     0.642000
      dz2     :    -0.000593  d :     0.066790
      dxz     :     0.033691
      dyz     :     0.033691
      dx2y2   :     0.000000
      dxy     :     0.000000
      f0      :    -0.001602  f :    -0.000055
      f+1     :     0.000772
      f-1     :     0.000772
      f+2     :     0.000000
      f-2     :     0.000000
      f+3     :     0.000001
      f-3     :     0.000001
  1 O s       :     0.052436  s :     0.052436
      pz      :     0.060098  p :     0.713094
      px      :     0.326498
      py      :     0.326498
      dz2     :    -0.001845  d :    -0.006021
      dxz     :    -0.002088
      dyz     :    -0.002088
      dx2y2   :     0.000000
      dxy     :    -0.000000
      f0      :    -0.000365  f :    -0.002114
      f+1     :    -0.000875
      f-1     :    -0.000875
      f+2     :    -0.000000
      f-2     :    -0.000000
      f+3     :     0.000000
      f-3     :     0.000000


                     *******************************
                     * LOEWDIN POPULATION ANALYSIS *
                     *******************************

-------------------------------------------
LOEWDIN ATOMIC CHARGES AND SPIN POPULATIONS
-------------------------------------------
   0 S :    0.438184    1.254165
   1 O :   -0.438184    0.745835

----------------------------------------------------
LOEWDIN REDUCED ORBITAL CHARGES AND SPIN POPULATIONS
----------------------------------------------------
CHARGE
  0 S s       :     5.427388  s :     5.427388
      pz      :     2.964805  p :     9.243870
      px      :     3.139532
      py      :     3.139532
      dz2     :     0.232904  d :     0.621020
      dxz     :     0.194058
      dyz     :     0.194058
      dx2y2   :     0.000000
      dxy     :     0.000000
      f0      :     0.106325  f :     0.269538
      f+1     :     0.081606
      f-1     :     0.081606
      f+2     :     0.000000
      f-2     :     0.000000
      f+3     :     0.000001
      f-3     :     0.000001
  1 O s       :     3.521566  s :     3.521566
      pz      :     1.574079  p :     4.447311
      px      :     1.436616
      py      :     1.436616
      dz2     :     0.141637  d :     0.375951
      dxz     :     0.117157
      dyz     :     0.117157
      dx2y2   :     0.000000
      dxy     :     0.000000
      f0      :     0.031296  f :     0.093356
      f+1     :     0.031030
      f-1     :     0.031030
      f+2     :     0.000000
      f-2     :     0.000000
      f+3     :     0.000000
      f-3     :     0.000000

SPIN
  0 S s       :     0.009139  s :     0.009139
      pz      :    -0.054110  p :     0.965205
      px      :     0.509658
      py      :     0.509658
      dz2     :     0.008377  d :     0.217105
      dxz     :     0.104364
      dyz     :     0.104364
      dx2y2   :     0.000000
      dxy     :     0.000000
      f0      :     0.000664  f :     0.062716
      f+1     :     0.031025
      f-1     :     0.031025
      f+2     :     0.000000
      f-2     :     0.000000
      f+3     :     0.000001
      f-3     :     0.000001
  1 O s       :     0.007406  s :     0.007406
      pz      :     0.026262  p :     0.593010
      px      :     0.283374
      py      :     0.283374
      dz2     :     0.002073  d :     0.121982
      dxz     :     0.059954
      dyz     :     0.059954
      dx2y2   :     0.000000
      dxy     :     0.000000
      f0      :     0.000189  f :     0.023438
      f+1     :     0.011624
      f-1     :     0.011624
      f+2     :     0.000000
      f-2     :     0.000000
      f+3     :     0.000000
      f-3     :     0.000000


                      *****************************
                      * MAYER POPULATION ANALYSIS *
                      *****************************

  NA   - Mulliken gross atomic population
  ZA   - Total nuclear charge
  QA   - Mulliken gross atomic charge
  VA   - Mayer's total valence
  BVA  - Mayer's bonded valence
  FA   - Mayer's free valence

  ATOM       NA         ZA         QA         VA         BVA        FA
  0 S     15.5140    16.0000     0.4860     2.8922     1.8410     1.0512
  1 O      8.4860     8.0000    -0.4860     2.0917     1.8410     0.2508

  Mayer bond orders larger than 0.100000
B(  0-S ,  1-O ) :   1.8410 

-------
TIMINGS
-------

Total SCF time: 0 days 0 hours 0 min 5 sec 

Total time                  ....       5.652 sec
Sum of individual times     ....       4.631 sec  ( 81.9%)

Fock matrix formation       ....       3.783 sec  ( 66.9%)
  Split-RI-J                ....       1.334 sec  ( 35.3% of F)
  XC integration            ....       1.432 sec  ( 37.9% of F)
    Basis function eval.    ....       0.027 sec  (  1.9% of XC)
    Density eval.           ....       0.041 sec  (  2.9% of XC)
    XC-Functional eval.     ....       0.012 sec  (  0.9% of XC)
    XC-Potential eval.      ....       0.109 sec  (  7.6% of XC)
Diagonalization             ....       0.129 sec  (  2.3%)
Density matrix formation    ....       0.016 sec  (  0.3%)
Population analysis         ....       0.067 sec  (  1.2%)
Initial guess               ....       0.119 sec  (  2.1%)
Orbital Transformation      ....       0.000 sec  (  0.0%)
Orbital Orthonormalization  ....       0.000 sec  (  0.0%)
DIIS solution               ....       0.332 sec  (  5.9%)
Grid generation             ....       0.184 sec  (  3.3%)


-------------------------------------------------------------------------------
                          DFT DISPERSION CORRECTION                            
                                                                               
                              DFTD3 V3.1  Rev 1                                
                          USING Becke-Johnson damping                          
-------------------------------------------------------------------------------
The SCAN functional is recognized
Active option DFTDOPT                   ...         4   

molecular C6(AA) [au] = 222.265637 


            DFT-D V3
 parameters
 s6 scaling factor         :     1.0000 
 a1 scaling factor         :     0.5380 
 s8 scaling factor         :     0.0000 
 a2 scaling factor         :     5.4200 
 ad hoc parameters k1-k3   :    16.0000     1.3333    -4.0000 

 Edisp/kcal,au: -0.068210139133  -0.000108699764 
 E6   /kcal   :  -0.068210139 
 E8   /kcal   :  -0.000000000 
 % E8         :   0.000000000 

-------------------------   ----------------
Dispersion correction           -0.000108700
-------------------------   ----------------


-------------------------   --------------------
FINAL SINGLE POINT ENERGY      -473.445872094024
-------------------------   --------------------



           ************************************************************
           *        Program running with 24 parallel MPI-processes    *
           *              working on a common directory               *
           ************************************************************
------------------------------------------------------------------------------
                         ORCA SCF GRADIENT CALCULATION
------------------------------------------------------------------------------

Gradient of the Kohn-Sham DFT energy:
Kohn-Sham wavefunction type      ... UKS
Hartree-Fock exchange scaling    ...    0.000
Number of operators              ...    2
Number of atoms                  ...    2
Basis set dimensions             ...  101
Integral neglect threshold       ... 2.5e-11
Integral primitive cutoff        ... 2.5e-12

Nuclear repulsion gradient       ... done
One Electron Gradient            ... done
Pre-screening matrix             ... done
RI-J gradient                    ... done
Exchange-correlation gradient    ... done
Dispersion correction            ... done

------------------
CARTESIAN GRADIENT
------------------

   1   S   :    0.000000038   -0.000000050    0.050395038
   2   O   :   -0.000000091    0.000000069    0.079237565

Difference to translation invariance:
           :   -0.0000000532    0.0000000195    0.1296326032

Norm of the cartesian gradient     ...    0.0939055460
RMS gradient                       ...    0.0383367786
MAX gradient                       ...    0.0792375650

-------
TIMINGS
-------

Total SCF gradient time            ...        0.479 sec

One electron gradient       ....       0.018 sec  (  3.7%)
Prescreening matrices       ....       0.065 sec  ( 13.6%)
RI-J Coulomb gradient       ....       0.139 sec  ( 29.0%)
XC gradient                 ....       0.029 sec  (  6.1%)
------------------------------------------------------------------------------
                         ORCA GEOMETRY RELAXATION STEP
------------------------------------------------------------------------------

Reading the OPT-File                    .... done
Getting information on internals        .... done
Copying old internal coords+grads       .... done
Making the new internal coordinates     .... (new redundants).... done
Validating the new internal coordinates .... (new redundants).... done
Calculating the B-matrix                .... done
Calculating the G,G- and P matrices     .... done
Transforming gradient to internals      .... done
Projecting the internal gradient        .... done
Number of atoms                         ....   2
Number of internal coordinates          ....   1
Current Energy                          ....  -473.445872094 Eh
Current gradient norm                   ....     0.093905546 Eh/bohr
Maximum allowed component of the step   ....  0.300
Current trust radius                    ....  0.300
Evaluating the initial hessian          ....  (Almloef) done
Projecting the Hessian                  .... done
Forming the augmented Hessian           .... done
Diagonalizing the augmented Hessian     .... done
Last element of RFO vector              ....  0.999910828
Lowest eigenvalues of augmented Hessian:
 -0.000192603
Length of the computed step             ....  0.013355467
The final length of the internal step   ....  0.013355467
Converting the step to cartesian space:
 Initial RMS(Int)=    0.0133554667
Transforming coordinates:
 Iter   0:  RMS(Cart)=    0.0038553911 RMS(Int)=    0.0133554667
 Iter   1:  RMS(Cart)=    0.0000000000 RMS(Int)=    0.0000000000
done
Storing new coordinates                 .... done

                                .--------------------.
          ----------------------|Geometry convergence|-------------------------
          Item                value                   Tolerance       Converged
          ---------------------------------------------------------------------
          RMS gradient        0.0144212634            0.0001000000      NO
          MAX gradient        0.0144212634            0.0003000000      NO
          RMS step            0.0133554667            0.0020000000      NO
          MAX step            0.0133554667            0.0040000000      NO
          ........................................................
          Max(Bonds)      0.0071      Max(Angles)    0.00
          Max(Dihed)        0.00      Max(Improp)    0.00
          ---------------------------------------------------------------------

The optimization has not yet converged - more geometry cycles are needed


    ---------------------------------------------------------------------------
                         Redundant Internal Coordinates
                            (Angstroem and degrees)

        Definition                    Value    dE/dq     Step     New-Value
    ----------------------------------------------------------------------------
     1. B(O   1,S   0)                1.4811  0.014421 -0.0071    1.4741   
    ----------------------------------------------------------------------------

         *************************************************************
         *                GEOMETRY OPTIMIZATION CYCLE   2            *
         *************************************************************
---------------------------------
CARTESIAN COORDINATES (ANGSTROEM)
---------------------------------
  S      0.000000   -0.000000    0.006081
  O     -0.000000    0.000000    1.480134

----------------------------
CARTESIAN COORDINATES (A.U.)
----------------------------
  NO LB      ZA    FRAG     MASS         X           Y           Z
   0 S    16.0000    0    32.060    0.000001   -0.000000    0.011491
   1 O     8.0000    0    15.999   -0.000001    0.000000    2.797047

--------------------------------
INTERNAL COORDINATES (ANGSTROEM)
--------------------------------
 S      0   0   0     0.000000000000     0.00000000     0.00000000
 O      1   0   0     1.474052793438     0.00000000     0.00000000

---------------------------
INTERNAL COORDINATES (A.U.)
---------------------------
 S      0   0   0     0.000000000000     0.00000000     0.00000000
 O      1   0   0     2.785556086540     0.00000000     0.00000000



           ************************************************************
           *        Program running with 24 parallel MPI-processes    *
           *              working on a common directory               *
           ************************************************************
 One Electron integrals                  ... done
 Pre-screening matrix                    ... done


           ************************************************************
           *        Program running with 24 parallel MPI-processes    *
           *              working on a common directory               *
           ************************************************************

Diagonalization of the overlap matrix:
Smallest eigenvalue                        ... 4.815e-04
Time for diagonalization                   ...    0.003 sec
Threshold for overlap eigenvalues          ... 1.000e-08
Number of eigenvalues below threshold      ... 0
Time for construction of square roots      ...    0.009 sec
Total time needed                          ...    0.013 sec

-------------------
DFT GRID GENERATION
-------------------

General Integration Accuracy     IntAcc      ...  4.340
Radial Grid Type                 RadialGrid  ... Gauss-Chebyshev
Angular Grid (max. acc.)         AngularGrid ... Lebedev-110
Angular grid pruning method      GridPruning ... 3 (G Style)
Weight generation scheme         WeightScheme... Becke
Basis function cutoff            BFCut       ...    1.0000e-11
Integration weight cutoff        WCut        ...    1.0000e-14
Grids for H and He will be reduced by one unit

# of grid points (after initial pruning)     ...   3522 (   0.0 sec)
# of grid points (after weights+screening)   ...   3497 (   0.0 sec)
nearest neighbour list constructed           ...    0.0 sec
Grid point re-assignment to atoms done       ...    0.0 sec
Grid point division into batches done        ...    0.0 sec
Reduced shell lists constructed in    0.0 sec

Total number of grid points                  ...     3497
Total number of batches                      ...       55
Average number of points per batch           ...       63
Average number of grid points per atom       ...     1748
Average number of shells per batch           ...    19.00 (61.29%)
Average number of basis functions per batch  ...    59.50 (58.91%)
Average number of large shells per batch     ...    13.00 (68.42%)
Average number of large basis fcns per batch ...    45.50 (76.47%)
Maximum spatial batch extension              ...  16.21, 29.83, 16.21 au
Average spatial batch extension              ...   0.82,  1.39,  0.88 au

Time for grid setup =    0.044 sec

--------------
SCF ITERATIONS
--------------
ITER       Energy         Delta-E        Max-DP      RMS-DP      [F,P]     Damp
               ***  Starting incremental Fock matrix formation  ***
  0   -473.4124413804   0.000000000000 0.00024388  0.00001049  0.0035312 0.7000
  1   -473.4124512024  -0.000009822029 0.00019980  0.00000841  0.0024173 0.7000
                               ***Turning on DIIS***
  2   -473.4124572612  -0.000006058735 0.00050758  0.00001993  0.0016940 0.0000
  3   -473.4124717395  -0.000014478346 0.00020984  0.00000708  0.0002906 0.0000
  4   -473.4124714259   0.000000313563 0.00016702  0.00000415  0.0006890 0.0000
  5   -473.4124719559  -0.000000529924 0.00005490  0.00000153  0.0002656 0.0000
  6   -473.4124720637  -0.000000107867 0.00001487  0.00000050  0.0000214 0.0000
  7   -473.4124720776  -0.000000013849 0.00000690  0.00000015  0.0000102 0.0000
                 **** Energy Check signals convergence ****

               *****************************************************
               *                     SUCCESS                       *
               *           SCF CONVERGED AFTER   8 CYCLES          *
               *****************************************************

Setting up the final grid:

General Integration Accuracy     IntAcc      ...  4.670
Radial Grid Type                 RadialGrid  ... Gauss-Chebyshev
Angular Grid (max. acc.)         AngularGrid ... Lebedev-302
Angular grid pruning method      GridPruning ... 3 (G Style)
Weight generation scheme         WeightScheme... Becke
Basis function cutoff            BFCut       ...    1.0000e-11
Integration weight cutoff        WCut        ...    1.0000e-14
Grids for H and He will be reduced by one unit

# of grid points (after initial pruning)     ...  13058 (   0.0 sec)
# of grid points (after weights+screening)   ...  13030 (   0.0 sec)
nearest neighbour list constructed           ...    0.0 sec
Grid point re-assignment to atoms done       ...    0.0 sec
Grid point division into batches done        ...    0.1 sec
Reduced shell lists constructed in    0.1 sec

Total number of grid points                  ...    13030
Total number of batches                      ...      205
Average number of points per batch           ...       63
Average number of grid points per atom       ...     6515
Average number of shells per batch           ...     7.70 (24.84%)
Average number of basis functions per batch  ...    23.90 (23.66%)
Average number of large shells per batch     ...     5.40 (70.13%)
Average number of large basis fcns per batch ...    14.20 (59.41%)
Maximum spatial batch extension              ...  19.94, 19.94, 13.00 au
Average spatial batch extension              ...   0.71,  0.71,  0.50 au

Final grid set up in    0.1 sec
Final integration                            ... done (   0.1 sec)
Change in XC energy                          ...    -0.033169152
Integrated number of electrons               ...    23.999998543
Previous integrated no of electrons          ...    23.999881418
Total Energy       :         -473.44564122 Eh          -12883.11086 eV
  Last Energy change         ...    5.4183e-09  Tolerance :   1.0000e-08
  Last MAX-Density change    ...    2.7249e-06  Tolerance :   1.0000e-07
             **** THE GBW FILE WAS UPDATED (33_SO.gbw) ****
             **** DENSITY FILE WAS UPDATED (33_SO.scfp) ****
             **** ENERGY FILE WAS UPDATED (33_SO.en.tmp) ****
----------------------
UHF SPIN CONTAMINATION
----------------------

Warning: in a DFT calculation there is little theoretical justification to 
         calculate <S**2> as in Hartree-Fock theory. We will do it anyways
         but you should keep in mind that the values have only limited relevance

Expectation value of <S**2>     :     2.013239
Ideal value S*(S+1) for S=1.0   :     2.000000
Deviation                       :     0.013239

             **** THE GBW FILE WAS UPDATED (33_SO.gbw) ****
             **** DENSITY FILE WAS UPDATED (33_SO.scfp) ****
Total SCF time: 0 days 0 hours 0 min 3 sec 


-------------------------------------------------------------------------------
                          DFT DISPERSION CORRECTION                            
                                                                               
                              DFTD3 V3.1  Rev 1                                
                          USING Becke-Johnson damping                          
-------------------------------------------------------------------------------
-------------------------   ----------------
Dispersion correction           -0.000108704
-------------------------   ----------------


-------------------------   --------------------
FINAL SINGLE POINT ENERGY      -473.445749928104
-------------------------   --------------------



           ************************************************************
           *        Program running with 24 parallel MPI-processes    *
           *              working on a common directory               *
           ************************************************************
------------------------------------------------------------------------------
                         ORCA SCF GRADIENT CALCULATION
------------------------------------------------------------------------------

Gradient of the Kohn-Sham DFT energy:
Kohn-Sham wavefunction type      ... UKS
Hartree-Fock exchange scaling    ...    0.000
Number of operators              ...    2
Number of atoms                  ...    2
Basis set dimensions             ...  101
Integral neglect threshold       ... 2.5e-11
Integral primitive cutoff        ... 2.5e-12

Nuclear repulsion gradient       ... done
One Electron Gradient            ... done
Pre-screening matrix             ... done
RI-J gradient                    ... done
Exchange-correlation gradient    ... done
Dispersion correction            ... done

------------------
CARTESIAN GRADIENT
------------------

   1   S   :    0.000000031   -0.000000043    0.056905240
   2   O   :   -0.000000085    0.000000066    0.070394341

Difference to translation invariance:
           :   -0.0000000540    0.0000000228    0.1272995806

Norm of the cartesian gradient     ...    0.0905183381
RMS gradient                       ...    0.0369539568
MAX gradient                       ...    0.0703943409

-------
TIMINGS
-------

Total SCF gradient time            ...        0.443 sec

One electron gradient       ....       0.020 sec  (  4.6%)
Prescreening matrices       ....       0.066 sec  ( 14.9%)
RI-J Coulomb gradient       ....       0.086 sec  ( 19.4%)
XC gradient                 ....       0.030 sec  (  6.7%)
------------------------------------------------------------------------------
                         ORCA GEOMETRY RELAXATION STEP
------------------------------------------------------------------------------

Reading the OPT-File                    .... done
Getting information on internals        .... done
Copying old internal coords+grads       .... done
Making the new internal coordinates     .... (new redundants).... done
Validating the new internal coordinates .... (new redundants).... done
Calculating the B-matrix                .... done
Calculating the G,G- and P matrices     .... done
Transforming gradient to internals      .... done
Projecting the internal gradient        .... done
Number of atoms                         ....   2
Number of internal coordinates          ....   1
Current Energy                          ....  -473.445749928 Eh
Current gradient norm                   ....     0.090518338 Eh/bohr
Maximum allowed component of the step   ....  0.300
Current trust radius                    ....  0.300
Updating the Hessian (BFGS)             .... done
Forming the augmented Hessian           .... done
Diagonalizing the augmented Hessian     .... done
Last element of RFO vector              ....  0.999931186
Lowest eigenvalues of augmented Hessian:
 -0.000079128
Length of the computed step             ....  0.011732134
The final length of the internal step   ....  0.011732134
Converting the step to cartesian space:
 Initial RMS(Int)=    0.0117321338
Transforming coordinates:
 Iter   0:  RMS(Cart)=    0.0033867753 RMS(Int)=    0.0117321338
 Iter   1:  RMS(Cart)=    0.0000000000 RMS(Int)=    0.0000000000
done
Storing new coordinates                 .... done

                                .--------------------.
          ----------------------|Geometry convergence|-------------------------
          Item                value                   Tolerance       Converged
          ---------------------------------------------------------------------
          Energy change       0.0001221659            0.0000050000      NO
          RMS gradient        0.0067445506            0.0001000000      NO
          MAX gradient        0.0067445506            0.0003000000      NO
          RMS step            0.0117321338            0.0020000000      NO
          MAX step            0.0117321338            0.0040000000      NO
          ........................................................
          Max(Bonds)      0.0062      Max(Angles)    0.00
          Max(Dihed)        0.00      Max(Improp)    0.00
          ---------------------------------------------------------------------

The optimization has not yet converged - more geometry cycles are needed


    ---------------------------------------------------------------------------
                         Redundant Internal Coordinates
                            (Angstroem and degrees)

        Definition                    Value    dE/dq     Step     New-Value
    ----------------------------------------------------------------------------
     1. B(O   1,S   0)                1.4741  0.006745 -0.0062    1.4678   
    ----------------------------------------------------------------------------

         *************************************************************
         *                GEOMETRY OPTIMIZATION CYCLE   3            *
         *************************************************************
---------------------------------
CARTESIAN COORDINATES (ANGSTROEM)
---------------------------------
  S      0.000000   -0.000000    0.009185
  O     -0.000000    0.000000    1.477029

----------------------------
CARTESIAN COORDINATES (A.U.)
----------------------------
  NO LB      ZA    FRAG     MASS         X           Y           Z
   0 S    16.0000    0    32.060    0.000001   -0.000000    0.017357
   1 O     8.0000    0    15.999   -0.000001    0.000000    2.791181

--------------------------------
INTERNAL COORDINATES (ANGSTROEM)
--------------------------------
 S      0   0   0     0.000000000000     0.00000000     0.00000000
 O      1   0   0     1.467844415652     0.00000000     0.00000000

---------------------------
INTERNAL COORDINATES (A.U.)
---------------------------
 S      0   0   0     0.000000000000     0.00000000     0.00000000
 O      1   0   0     2.773823952788     0.00000000     0.00000000



           ************************************************************
           *        Program running with 24 parallel MPI-processes    *
           *              working on a common directory               *
           ************************************************************
 One Electron integrals                  ... done
 Pre-screening matrix                    ... done


           ************************************************************
           *        Program running with 24 parallel MPI-processes    *
           *              working on a common directory               *
           ************************************************************

Diagonalization of the overlap matrix:
Smallest eigenvalue                        ... 4.766e-04
Time for diagonalization                   ...    0.004 sec
Threshold for overlap eigenvalues          ... 1.000e-08
Number of eigenvalues below threshold      ... 0
Time for construction of square roots      ...    0.013 sec
Total time needed                          ...    0.017 sec

-------------------
DFT GRID GENERATION
-------------------

General Integration Accuracy     IntAcc      ...  4.340
Radial Grid Type                 RadialGrid  ... Gauss-Chebyshev
Angular Grid (max. acc.)         AngularGrid ... Lebedev-110
Angular grid pruning method      GridPruning ... 3 (G Style)
Weight generation scheme         WeightScheme... Becke
Basis function cutoff            BFCut       ...    1.0000e-11
Integration weight cutoff        WCut        ...    1.0000e-14
Grids for H and He will be reduced by one unit

# of grid points (after initial pruning)     ...   3522 (   0.0 sec)
# of grid points (after weights+screening)   ...   3497 (   0.0 sec)
nearest neighbour list constructed           ...    0.0 sec
Grid point re-assignment to atoms done       ...    0.0 sec
Grid point division into batches done        ...    0.0 sec
Reduced shell lists constructed in    0.0 sec

Total number of grid points                  ...     3497
Total number of batches                      ...       55
Average number of points per batch           ...       63
Average number of grid points per atom       ...     1748
Average number of shells per batch           ...    19.00 (61.29%)
Average number of basis functions per batch  ...    59.50 (58.91%)
Average number of large shells per batch     ...    13.00 (68.42%)
Average number of large basis fcns per batch ...    45.50 (76.47%)
Maximum spatial batch extension              ...  16.21, 29.83, 16.20 au
Average spatial batch extension              ...   0.82,  1.39,  0.87 au

Time for grid setup =    0.043 sec

--------------
SCF ITERATIONS
--------------
ITER       Energy         Delta-E        Max-DP      RMS-DP      [F,P]     Damp
               ***  Starting incremental Fock matrix formation  ***
  0   -473.4122340625   0.000000000000 0.00021573  0.00000929  0.0030988 0.7000
  1   -473.4122417617  -0.000007699221 0.00017864  0.00000747  0.0021372 0.7000
                               ***Turning on DIIS***
  2   -473.4122465266  -0.000004764850 0.00044659  0.00001777  0.0014977 0.0000
  3   -473.4122579130  -0.000011386373 0.00020485  0.00000654  0.0002554 0.0000
  4   -473.4122576681   0.000000244827 0.00014835  0.00000370  0.0006135 0.0000
  5   -473.4122580951  -0.000000426987 0.00004892  0.00000139  0.0002348 0.0000
  6   -473.4122581814  -0.000000086298 0.00001401  0.00000048  0.0000186 0.0000
  7   -473.4122581937  -0.000000012287 0.00000613  0.00000015  0.0000097 0.0000
                 **** Energy Check signals convergence ****

               *****************************************************
               *                     SUCCESS                       *
               *           SCF CONVERGED AFTER   8 CYCLES          *
               *****************************************************

Setting up the final grid:

General Integration Accuracy     IntAcc      ...  4.670
Radial Grid Type                 RadialGrid  ... Gauss-Chebyshev
Angular Grid (max. acc.)         AngularGrid ... Lebedev-302
Angular grid pruning method      GridPruning ... 3 (G Style)
Weight generation scheme         WeightScheme... Becke
Basis function cutoff            BFCut       ...    1.0000e-11
Integration weight cutoff        WCut        ...    1.0000e-14
Grids for H and He will be reduced by one unit

# of grid points (after initial pruning)     ...  13058 (   0.0 sec)
# of grid points (after weights+screening)   ...  13030 (   0.0 sec)
nearest neighbour list constructed           ...    0.0 sec
Grid point re-assignment to atoms done       ...    0.0 sec
Grid point division into batches done        ...    0.1 sec
Reduced shell lists constructed in    0.1 sec

Total number of grid points                  ...    13030
Total number of batches                      ...      205
Average number of points per batch           ...       63
Average number of grid points per atom       ...     6515
Average number of shells per batch           ...     7.70 (24.84%)
Average number of basis functions per batch  ...    23.90 (23.66%)
Average number of large shells per batch     ...     5.40 (70.13%)
Average number of large basis fcns per batch ...    14.20 (59.41%)
Maximum spatial batch extension              ...  19.94, 19.94, 13.00 au
Average spatial batch extension              ...   0.71,  0.70,  0.50 au

Final grid set up in    0.2 sec
Final integration                            ... done (   0.1 sec)
Change in XC energy                          ...    -0.033186126
Integrated number of electrons               ...    23.999998986
Previous integrated no of electrons          ...    23.999863922
Total Energy       :         -473.44544432 Eh          -12883.10550 eV
  Last Energy change         ...    3.9207e-09  Tolerance :   1.0000e-08
  Last MAX-Density change    ...    3.1023e-06  Tolerance :   1.0000e-07
             **** THE GBW FILE WAS UPDATED (33_SO.gbw) ****
             **** DENSITY FILE WAS UPDATED (33_SO.scfp) ****
             **** ENERGY FILE WAS UPDATED (33_SO.en.tmp) ****
----------------------
UHF SPIN CONTAMINATION
----------------------

Warning: in a DFT calculation there is little theoretical justification to 
         calculate <S**2> as in Hartree-Fock theory. We will do it anyways
         but you should keep in mind that the values have only limited relevance

Expectation value of <S**2>     :     2.013073
Ideal value S*(S+1) for S=1.0   :     2.000000
Deviation                       :     0.013073

             **** THE GBW FILE WAS UPDATED (33_SO.gbw) ****
             **** DENSITY FILE WAS UPDATED (33_SO.scfp) ****
Total SCF time: 0 days 0 hours 0 min 3 sec 


-------------------------------------------------------------------------------
                          DFT DISPERSION CORRECTION                            
                                                                               
                              DFTD3 V3.1  Rev 1                                
                          USING Becke-Johnson damping                          
-------------------------------------------------------------------------------
-------------------------   ----------------
Dispersion correction           -0.000108707
-------------------------   ----------------


-------------------------   --------------------
FINAL SINGLE POINT ENERGY      -473.445553023121
-------------------------   --------------------



           ************************************************************
           *        Program running with 24 parallel MPI-processes    *
           *              working on a common directory               *
           ************************************************************
------------------------------------------------------------------------------
                         ORCA SCF GRADIENT CALCULATION
------------------------------------------------------------------------------

Gradient of the Kohn-Sham DFT energy:
Kohn-Sham wavefunction type      ... UKS
Hartree-Fock exchange scaling    ...    0.000
Number of operators              ...    2
Number of atoms                  ...    2
Basis set dimensions             ...  101
Integral neglect threshold       ... 2.5e-11
Integral primitive cutoff        ... 2.5e-12

Nuclear repulsion gradient       ... done
One Electron Gradient            ... done
Pre-screening matrix             ... done
RI-J gradient                    ... done
Exchange-correlation gradient    ... done
Dispersion correction            ... done

------------------
CARTESIAN GRADIENT
------------------

   1   S   :    0.000000025   -0.000000048    0.062832393
   2   O   :   -0.000000087    0.000000064    0.062354726

Difference to translation invariance:
           :   -0.0000000624    0.0000000161    0.1251871195

Norm of the cartesian gradient     ...    0.0885213055
RMS gradient                       ...    0.0361386716
MAX gradient                       ...    0.0628323933

-------
TIMINGS
-------

Total SCF gradient time            ...        0.424 sec

One electron gradient       ....       0.005 sec  (  1.1%)
Prescreening matrices       ....       0.065 sec  ( 15.3%)
RI-J Coulomb gradient       ....       0.084 sec  ( 19.9%)
XC gradient                 ....       0.045 sec  ( 10.6%)
------------------------------------------------------------------------------
                         ORCA GEOMETRY RELAXATION STEP
------------------------------------------------------------------------------

Reading the OPT-File                    .... done
Getting information on internals        .... done
Copying old internal coords+grads       .... done
Making the new internal coordinates     .... (new redundants).... done
Validating the new internal coordinates .... (new redundants).... done
Calculating the B-matrix                .... done
Calculating the G,G- and P matrices     .... done
Transforming gradient to internals      .... done
Projecting the internal gradient        .... done
Number of atoms                         ....   2
Number of internal coordinates          ....   1
Current Energy                          ....  -473.445553023 Eh
Current gradient norm                   ....     0.088521305 Eh/bohr
Maximum allowed component of the step   ....  0.300
Current trust radius                    ....  0.300
Updating the Hessian (BFGS)             .... done
Forming the augmented Hessian           .... done
Diagonalizing the augmented Hessian     .... done
Last element of RFO vector              ....  0.999999920
Lowest eigenvalues of augmented Hessian:
 -0.000000096
Length of the computed step             ....  0.000401242
The final length of the internal step   ....  0.000401242
Converting the step to cartesian space:
 Initial RMS(Int)=    0.0004012420
Transforming coordinates:
 Iter   0:  RMS(Cart)=    0.0001158286 RMS(Int)=    0.0004012420
 Iter   1:  RMS(Cart)=    0.0000000000 RMS(Int)=    0.0000000000
done
Storing new coordinates                 .... done

                                .--------------------.
          ----------------------|Geometry convergence|-------------------------
          Item                value                   Tolerance       Converged
          ---------------------------------------------------------------------
          Energy change       0.0001969050            0.0000050000      NO
          RMS gradient        0.0002388336            0.0001000000      NO
          MAX gradient        0.0002388336            0.0003000000      YES
          RMS step            0.0004012420            0.0020000000      YES
          MAX step            0.0004012420            0.0040000000      YES
          ........................................................
          Max(Bonds)      0.0002      Max(Angles)    0.00
          Max(Dihed)        0.00      Max(Improp)    0.00
          ---------------------------------------------------------------------

The optimization has not yet converged - more geometry cycles are needed


    ---------------------------------------------------------------------------
                         Redundant Internal Coordinates
                            (Angstroem and degrees)

        Definition                    Value    dE/dq     Step     New-Value
    ----------------------------------------------------------------------------
     1. B(O   1,S   0)                1.4678 -0.000239  0.0002    1.4681   
    ----------------------------------------------------------------------------

         *************************************************************
         *                GEOMETRY OPTIMIZATION CYCLE   4            *
         *************************************************************
---------------------------------
CARTESIAN COORDINATES (ANGSTROEM)
---------------------------------
  S      0.000000   -0.000000    0.009079
  O     -0.000000    0.000000    1.477136

----------------------------
CARTESIAN COORDINATES (A.U.)
----------------------------
  NO LB      ZA    FRAG     MASS         X           Y           Z
   0 S    16.0000    0    32.060    0.000001   -0.000000    0.017157
   1 O     8.0000    0    15.999   -0.000001    0.000000    2.791382

--------------------------------
INTERNAL COORDINATES (ANGSTROEM)
--------------------------------
 S      0   0   0     0.000000000000     0.00000000     0.00000000
 O      1   0   0     1.468056743754     0.00000000     0.00000000

---------------------------
INTERNAL COORDINATES (A.U.)
---------------------------
 S      0   0   0     0.000000000000     0.00000000     0.00000000
 O      1   0   0     2.774225194751     0.00000000     0.00000000



           ************************************************************
           *        Program running with 24 parallel MPI-processes    *
           *              working on a common directory               *
           ************************************************************
 One Electron integrals                  ... done
 Pre-screening matrix                    ... done


           ************************************************************
           *        Program running with 24 parallel MPI-processes    *
           *              working on a common directory               *
           ************************************************************

Diagonalization of the overlap matrix:
Smallest eigenvalue                        ... 4.767e-04
Time for diagonalization                   ...    0.004 sec
Threshold for overlap eigenvalues          ... 1.000e-08
Number of eigenvalues below threshold      ... 0
Time for construction of square roots      ...    0.012 sec
Total time needed                          ...    0.016 sec

-------------------
DFT GRID GENERATION
-------------------

General Integration Accuracy     IntAcc      ...  4.340
Radial Grid Type                 RadialGrid  ... Gauss-Chebyshev
Angular Grid (max. acc.)         AngularGrid ... Lebedev-110
Angular grid pruning method      GridPruning ... 3 (G Style)
Weight generation scheme         WeightScheme... Becke
Basis function cutoff            BFCut       ...    1.0000e-11
Integration weight cutoff        WCut        ...    1.0000e-14
Grids for H and He will be reduced by one unit

# of grid points (after initial pruning)     ...   3522 (   0.0 sec)
# of grid points (after weights+screening)   ...   3497 (   0.0 sec)
nearest neighbour list constructed           ...    0.0 sec
Grid point re-assignment to atoms done       ...    0.0 sec
Grid point division into batches done        ...    0.0 sec
Reduced shell lists constructed in    0.0 sec

Total number of grid points                  ...     3497
Total number of batches                      ...       55
Average number of points per batch           ...       63
Average number of grid points per atom       ...     1748
Average number of shells per batch           ...    19.00 (61.29%)
Average number of basis functions per batch  ...    59.50 (58.91%)
Average number of large shells per batch     ...    13.00 (68.42%)
Average number of large basis fcns per batch ...    45.50 (76.47%)
Maximum spatial batch extension              ...  16.21, 29.83, 16.20 au
Average spatial batch extension              ...   0.82,  1.39,  0.87 au

Time for grid setup =    0.037 sec

--------------
SCF ITERATIONS
--------------
ITER       Energy         Delta-E        Max-DP      RMS-DP      [F,P]     Damp
               ***  Starting incremental Fock matrix formation  ***
[...]
  89   0.0000       6.450550       175.5284 
  90   0.0000       6.691720       182.0910 
  91   0.0000       6.704742       182.4453 
  92   0.0000       6.751754       183.7246 
  93   0.0000       6.754392       183.7964 
  94   0.0000       6.846169       186.2937 
  95   0.0000       6.846169       186.2937 
  96   0.0000       6.998163       190.4297 
  97   0.0000       7.159707       194.8255 
  98   0.0000       7.159707       194.8255 
  99   0.0000       8.326433       226.5738 
 100   0.0000      10.927492       297.3522 

                    ********************************
                    * MULLIKEN POPULATION ANALYSIS *
                    ********************************

--------------------------------------------
MULLIKEN ATOMIC CHARGES AND SPIN POPULATIONS
--------------------------------------------
   0 S :    0.488082    1.252543
   1 O :   -0.488082    0.747457
Sum of atomic charges         :    0.0000000
Sum of atomic spin populations:    2.0000000

-----------------------------------------------------
MULLIKEN REDUCED ORBITAL CHARGES AND SPIN POPULATIONS
-----------------------------------------------------
CHARGE
  0 S s       :     5.907296  s :     5.907296
      pz      :     2.745303  p :     9.353454
      px      :     3.304076
      py      :     3.304076
      dz2     :     0.048266  d :     0.226366
      dxz     :     0.089050
      dyz     :     0.089050
      dx2y2   :     0.000000
      dxy     :     0.000000
      f0      :     0.005496  f :     0.024802
      f+1     :     0.009652
      f-1     :     0.009652
      f+2     :     0.000000
      f-2     :     0.000000
      f+3     :     0.000001
      f-3     :     0.000001
  1 O s       :     3.935070  s :     3.935070
      pz      :     1.338847  p :     4.471498
      px      :     1.566326
      py      :     1.566326
      dz2     :     0.018177  d :     0.073890
      dxz     :     0.027856
      dyz     :     0.027856
      dx2y2   :     0.000000
      dxy     :     0.000000
      f0      :     0.001545  f :     0.007624
      f+1     :     0.003039
      f-1     :     0.003039
      f+2     :     0.000000
      f-2     :     0.000000
      f+3     :     0.000000
      f-3     :     0.000000

SPIN
  0 S s       :    -0.006332  s :    -0.006332
      pz      :    -0.100639  p :     1.186912
      px      :     0.643775
      py      :     0.643775
      dz2     :    -0.000301  d :     0.071487
      dxz     :     0.035894
      dyz     :     0.035894
      dx2y2   :     0.000000
      dxy     :     0.000000
      f0      :    -0.001516  f :     0.000477
      f+1     :     0.000996
      f-1     :     0.000996
      f+2     :     0.000000
      f-2     :     0.000000
      f+3     :     0.000001
      f-3     :     0.000001
  1 O s       :     0.052332  s :     0.052332
      pz      :     0.058633  p :     0.702478
      px      :     0.321923
      py      :     0.321923
      dz2     :    -0.001810  d :    -0.005299
      dxz     :    -0.001745
      dyz     :    -0.001745
      dx2y2   :     0.000000
      dxy     :    -0.000000
      f0      :    -0.000367  f :    -0.002055
      f+1     :    -0.000844
      f-1     :    -0.000844
      f+2     :    -0.000000
      f-2     :    -0.000000
      f+3     :     0.000000
      f-3     :     0.000000


                     *******************************
                     * LOEWDIN POPULATION ANALYSIS *
                     *******************************

-------------------------------------------
LOEWDIN ATOMIC CHARGES AND SPIN POPULATIONS
-------------------------------------------
   0 S :    0.441916    1.259961
   1 O :   -0.441916    0.740039

----------------------------------------------------
LOEWDIN REDUCED ORBITAL CHARGES AND SPIN POPULATIONS
----------------------------------------------------
CHARGE
  0 S s       :     5.418845  s :     5.418845
      pz      :     2.967277  p :     9.231123
      px      :     3.131923
      py      :     3.131923
      dz2     :     0.235615  d :     0.635641
      dxz     :     0.200013
      dyz     :     0.200013
      dx2y2   :     0.000000
      dxy     :     0.000000
      f0      :     0.106838  f :     0.272475
      f+1     :     0.082817
      f-1     :     0.082817
      f+2     :     0.000000
      f-2     :     0.000000
      f+3     :     0.000001
      f-3     :     0.000001
  1 O s       :     3.515183  s :     3.515183
      pz      :     1.581179  p :     4.448937
      px      :     1.433879
      py      :     1.433879
      dz2     :     0.142797  d :     0.381883
      dxz     :     0.119543
      dyz     :     0.119543
      dx2y2   :     0.000000
      dxy     :     0.000000
      f0      :     0.032264  f :     0.095913
      f+1     :     0.031824
      f-1     :     0.031824
      f+2     :     0.000000
      f-2     :     0.000000
      f+3     :     0.000000
      f-3     :     0.000000

SPIN
  0 S s       :     0.008924  s :     0.008924
      pz      :    -0.053108  p :     0.963294
      px      :     0.508201
      py      :     0.508201
      dz2     :     0.008476  d :     0.224439
      dxz     :     0.107981
      dyz     :     0.107981
      dx2y2   :     0.000000
      dxy     :     0.000000
      f0      :     0.000674  f :     0.063304
      f+1     :     0.031314
      f-1     :     0.031314
      f+2     :     0.000000
      f-2     :     0.000000
      f+3     :     0.000001
      f-3     :     0.000001
  1 O s       :     0.007397  s :     0.007397
      pz      :     0.025353  p :     0.583616
      px      :     0.279132
      py      :     0.279132
      dz2     :     0.002109  d :     0.125054
      dxz     :     0.061473
      dyz     :     0.061473
      dx2y2   :     0.000000
      dxy     :     0.000000
      f0      :     0.000174  f :     0.023971
      f+1     :     0.011898
      f-1     :     0.011898
      f+2     :     0.000000
      f-2     :     0.000000
      f+3     :     0.000000
      f-3     :     0.000000


                      *****************************
                      * MAYER POPULATION ANALYSIS *
                      *****************************

  NA   - Mulliken gross atomic population
  ZA   - Total nuclear charge
  QA   - Mulliken gross atomic charge
  VA   - Mayer's total valence
  BVA  - Mayer's bonded valence
  FA   - Mayer's free valence

  ATOM       NA         ZA         QA         VA         BVA        FA
  0 S     15.5119    16.0000     0.4881     2.9090     1.8463     1.0627
  1 O      8.4881     8.0000    -0.4881     2.0911     1.8463     0.2448

  Mayer bond orders larger than 0.100000
B(  0-S ,  1-O ) :   1.8463 

-------
TIMINGS
-------

Total SCF time: 0 days 0 hours 0 min 1 sec 

Total time                  ....       1.165 sec
Sum of individual times     ....       0.881 sec  ( 75.7%)

Fock matrix formation       ....       0.585 sec  ( 50.3%)
  Split-RI-J                ....       0.216 sec  ( 37.0% of F)
  XC integration            ....       0.213 sec  ( 36.4% of F)
    Basis function eval.    ....       0.007 sec  (  3.2% of XC)
    Density eval.           ....       0.011 sec  (  5.1% of XC)
    XC-Functional eval.     ....       0.003 sec  (  1.2% of XC)
    XC-Potential eval.      ....       0.026 sec  ( 12.2% of XC)
Diagonalization             ....       0.020 sec  (  1.7%)
Density matrix formation    ....       0.004 sec  (  0.3%)
Population analysis         ....       0.071 sec  (  6.1%)
Initial guess               ....       0.013 sec  (  1.1%)
Orbital Transformation      ....       0.000 sec  (  0.0%)
Orbital Orthonormalization  ....       0.006 sec  (  0.5%)
DIIS solution               ....       0.001 sec  (  0.1%)
Grid generation             ....       0.187 sec  ( 16.0%)


-------------------------------------------------------------------------------
                          DFT DISPERSION CORRECTION                            
                                                                               
                              DFTD3 V3.1  Rev 1                                
                          USING Becke-Johnson damping                          
-------------------------------------------------------------------------------
The SCAN functional is recognized
Active option DFTDOPT                   ...         4   

molecular C6(AA) [au] = 222.265238 


            DFT-D V3
 parameters
 s6 scaling factor         :     1.0000 
 a1 scaling factor         :     0.5380 
 s8 scaling factor         :     0.0000 
 a2 scaling factor         :     5.4200 
 ad hoc parameters k1-k3   :    16.0000     1.3333    -4.0000 

 Edisp/kcal,au: -0.068214633792  -0.000108706927 
 E6   /kcal   :  -0.068214634 
 E8   /kcal   :  -0.000000000 
 % E8         :   0.000000000 

-------------------------   ----------------
Dispersion correction           -0.000108707
-------------------------   ----------------


-------------------------   --------------------
FINAL SINGLE POINT ENERGY      -473.445561311867
-------------------------   --------------------

                                *** OPTIMIZATION RUN DONE ***

                            ***************************************
                            *     ORCA property calculations      *
                            ***************************************

                                    ---------------------
                                    Active property flags
                                    ---------------------
   (+) Dipole Moment


------------------------------------------------------------------------------
                       ORCA ELECTRIC PROPERTIES CALCULATION
------------------------------------------------------------------------------

Dipole Moment Calculation                       ... on
Quadrupole Moment Calculation                   ... off
Polarizability Calculation                      ... off
GBWName                                         ... 33_SO.gbw
Electron density file                           ... 33_SO.scfp
The origin for moment calculation is the CENTER OF MASS  = ( 0.000000, -0.000000  0.940707)

-------------
DIPOLE MOMENT
-------------
                                X             Y             Z
Electronic contribution:      0.00000      -0.00000      -0.60655
Nuclear contribution   :     -0.00000       0.00000       0.02863
                        -----------------------------------------
Total Dipole Moment    :      0.00000      -0.00000      -0.57792
                        -----------------------------------------
Magnitude (a.u.)       :      0.57792
Magnitude (Debye)      :      1.46895



--------------------
Rotational spectrum 
--------------------
 
Rotational constants in cm-1:     0.000000     0.732879     0.732879 
Rotational constants in MHz :     0.000000 21971.149770 21971.149770 

 Dipole components along the rotational axes: 
x,y,z [a.u.] :    -0.577919    -0.000000    -0.000000 
x,y,z [Debye]:    -1.468955    -0.000000    -0.000000 

 

----------------------------------------------------------------------------
                           ORCA NUMERICAL FREQUENCIES
                              (24-process run)
----------------------------------------------------------------------------

Number of atoms                ... 2
Central differences            ... used
Number of displacements        ... 12
Numerical increment            ... 5.000e-03 bohr
IR-spectrum generation         ... on
Raman-spectrum generation      ... off
Surface Crossing Hessian       ... off

 WARNING: There are more processes than displacements to do
  ====> : Reducing number of processes to   6

The output will be reduced. Please look at the following files:
SCF program output             ... >33_SO.lastscf
Integral program output        ... >33_SO.lastint
Gradient program output        ... >33_SO.lastgrad
Dipole moment program output   ... >33_SO.lastmom
AutoCI program output          ... >33_SO.lastautoci


         <<< Energy and Gradient at the input geometry >>>

        <<< Energy and Gradient at displaced geometries >>>
             <<<Displacing   2/coordinate 3 (+)>>>
             <<<Displacing   1/coordinate 1 (+)>>>
             <<<Displacing   2/coordinate 1 (+)>>>
             <<<Displacing   1/coordinate 3 (+)>>>
             <<<Displacing   1/coordinate 2 (+)>>>
             <<<Displacing   2/coordinate 2 (+)>>>
             <<<Displacing   1/coordinate 3 (-)>>>
             <<<Displacing   2/coordinate 3 (-)>>>
             <<<Displacing   1/coordinate 2 (-)>>>
             <<<Displacing   1/coordinate 1 (-)>>>
             <<<Displacing   2/coordinate 1 (-)>>>
             <<<Displacing   2/coordinate 2 (-)>>>

-----------------------
VIBRATIONAL FREQUENCIES
-----------------------

Scaling factor for frequencies =  1.000000000 (already applied!)

   0:         0.00 cm**-1
   1:         0.00 cm**-1
   2:         0.00 cm**-1
   3:         0.00 cm**-1
   4:         0.00 cm**-1
   5:      1253.11 cm**-1


------------
NORMAL MODES
------------

These modes are the cartesian displacements weighted by the diagonal matrix
M(i,i)=1/sqrt(m[i]) where m[i] is the mass of the displaced atom
Thus, these vectors are normalized but *not* orthogonal

                  0          1          2          3          4          5    
      0       0.000000   0.000000   0.000000   0.000000   0.000000  -0.000000
      1       0.000000   0.000000   0.000000   0.000000   0.000000   0.000000
      2       0.000000   0.000000   0.000000   0.000000   0.000000   0.446521
      3       0.000000   0.000000   0.000000   0.000000   0.000000   0.000000
      4       0.000000   0.000000   0.000000   0.000000   0.000000  -0.000000
      5       0.000000   0.000000   0.000000   0.000000   0.000000  -0.894773


-----------
IR SPECTRUM  
-----------

 Mode    freq (cm**-1)   T**2         TX         TY         TZ
-------------------------------------------------------------------
   5:      1253.11   26.923412  ( -0.000003   0.000001   5.188778)

The first frequency considered to be a vibration is 5
The total number of vibrations considered is 1


--------------------------
THERMOCHEMISTRY AT 298.15K
--------------------------

Temperature         ... 298.15 K
Pressure            ... 1.00 atm
Total Mass          ... 48.06 AMU
The molecule is recognized as being linear

Throughout the following assumptions are being made:
  (1) The electronic state is orbitally nondegenerate
      but the spin degeneracy is treated
  (2) There are no thermally accessible electronically excited states
  (3) Hindered rotations indicated by low frequency modes are not
      treated as such but are treated as vibrations and this may
      cause some error
  (4) All equations used are the standard statistical mechanics
      equations for an ideal gas
  (5) All vibrations are strictly harmonic

freq.    1253.11  E(vib)   ...       0.01 

------------
INNER ENERGY
------------

The inner energy is: U= E(el) + E(ZPE) + E(vib) + E(rot) + E(trans)
    E(el)   - is the total energy from the electronic structure calculation
              = E(kin-el) + E(nuc-el) + E(el-el) + E(nuc-nuc)
    E(ZPE)  - the the zero temperature vibrational energy from the frequency calculation
    E(vib)  - the the finite temperature correction to E(ZPE) due to population
              of excited vibrational states
    E(rot)  - is the rotational thermal energy
    E(trans)- is the translational thermal energy

Summary of contributions to the inner energy U:
Electronic energy                ...   -473.44555970 Eh
Zero point energy                ...      0.00285480 Eh       1.79 kcal/mol
Thermal vibrational correction   ...      0.00001354 Eh       0.01 kcal/mol
Thermal rotational correction    ...      0.00094418 Eh       0.59 kcal/mol
Thermal translational correction ...      0.00141627 Eh       0.89 kcal/mol
-----------------------------------------------------------------------
Total thermal energy                   -473.44033092 Eh


Summary of corrections to the electronic energy:
(perhaps to be used in another calculation)
Total thermal correction                  0.00237399 Eh       1.49 kcal/mol
Non-thermal (ZPE) correction              0.00285480 Eh       1.79 kcal/mol
-----------------------------------------------------------------------
Total correction                          0.00522878 Eh       3.28 kcal/mol


--------
ENTHALPY
--------

The enthalpy is H = U + kB*T
                kB is Boltzmann's constant
Total free energy                 ...   -473.44033092 Eh 
Thermal Enthalpy correction       ...      0.00094421 Eh       0.59 kcal/mol
-----------------------------------------------------------------------
Total Enthalpy                    ...   -473.43938671 Eh


Note: Rotational entropy computed according to Herzberg 
Infrared and Raman Spectra, Chapter V,1, Van Nostrand Reinhold, 1945 
Point Group:  Cinfv, Symmetry Number:   1  
Rotational constants in cm-1:     0.000000     0.732879     0.732879 

Vibrational entropy computed according to the QRRHO of S. Grimme
Chem.Eur.J. 2012 18 9955


-------
ENTROPY
-------

The entropy contributions are T*S = T*(S(el)+S(vib)+S(rot)+S(trans))
     S(el)   - electronic entropy
     S(vib)  - vibrational entropy
     S(rot)  - rotational entropy
     S(trans)- translational entropy
The entropies will be listed as mutliplied by the temperature to get
units of energy

Electronic entropy                ...      0.00103729 Eh      0.65 kcal/mol
Vibrational entropy               ...      0.00001578 Eh      0.01 kcal/mol
Rotational entropy                ...      0.00627369 Eh      3.94 kcal/mol
Translational entropy             ...      0.01783348 Eh     11.19 kcal/mol
-----------------------------------------------------------------------
Final entropy term                ...      0.02516024 Eh     15.79 kcal/mol

In case the symmetry of your molecule has not been determined correctly
or in case you have a reason to use a different symmetry number we print 
out the resulting rotational entropy values for sn=1,12 :
 --------------------------------------------------------
|  sn= 1 | S(rot)=             -nan Eh      -nan kcal/mol|
|  sn= 2 | S(rot)=             -nan Eh      -nan kcal/mol|
|  sn= 3 | S(rot)=             -nan Eh      -nan kcal/mol|
|  sn= 4 | S(rot)=             -nan Eh      -nan kcal/mol|
|  sn= 5 | S(rot)=             -nan Eh      -nan kcal/mol|
|  sn= 6 | S(rot)=             -nan Eh      -nan kcal/mol|
|  sn= 7 | S(rot)=             -nan Eh      -nan kcal/mol|
|  sn= 8 | S(rot)=             -nan Eh      -nan kcal/mol|
|  sn= 9 | S(rot)=             -nan Eh      -nan kcal/mol|
|  sn=10 | S(rot)=             -nan Eh      -nan kcal/mol|
|  sn=11 | S(rot)=             -nan Eh      -nan kcal/mol|
|  sn=12 | S(rot)=             -nan Eh      -nan kcal/mol|
 --------------------------------------------------------


-------------------
GIBBS FREE ENERGY
-------------------

The Gibbs free energy is G = H - T*S

Total enthalpy                    ...   -473.43938671 Eh 
Total entropy correction          ...     -0.02516024 Eh    -15.79 kcal/mol
-----------------------------------------------------------------------
Final Gibbs free energy         ...   -473.46454695 Eh

For completeness - the Gibbs free energy minus the electronic energy
G-E(el)                           ...     -0.01898724 Eh    -11.91 kcal/mol


Total Time for Numerical Frequencies  :        15.791 sec

Timings for individual modules:

Sum of individual times         ...       29.930 sec (=   0.499 min)
GTO integral calculation        ...        4.287 sec (=   0.071 min)  14.3 %
SCF iterations                  ...       20.778 sec (=   0.346 min)  69.4 %
SCF Gradient evaluation         ...        4.318 sec (=   0.072 min)  14.4 %
Geometry relaxation             ...        0.547 sec (=   0.009 min)   1.8 %
                             ****ORCA TERMINATED NORMALLY****
TOTAL RUN TIME: 0 days 0 hours 0 minutes 44 seconds 399 msec
