
    -----------------------------------------------------------------------
          Psi4: An Open-Source Ab Initio Electronic Structure Package
                               Psi4 1.3.2 release

                         Git: Rev {HEAD} ecbda83 


    R. M. Parrish, L. A. Burns, D. G. A. Smith, A. C. Simmonett,
    A. E. DePrince III, E. G. Hohenstein, U. Bozkaya, A. Yu. Sokolov,
    R. Di Remigio, R. M. Richard, J. F. Gonthier, A. M. James,
    H. R. McAlexander, A. Kumar, M. Saitow, X. Wang, B. P. Pritchard,
    P. Verma, H. F. Schaefer III, K. Patkowski, R. A. King, E. F. Valeev,
    F. A. Evangelista, J. M. Turney, T. D. Crawford, and C. D. Sherrill,
    J. Chem. Theory Comput. 13(7) pp 3185--3197 (2017).
    (doi: 10.1021/acs.jctc.7b00174)


                         Additional Contributions by
    P. Kraus, H. Kruse, M. H. Lechner, M. C. Schieber, R. A. Shaw,
    A. Alenaizan, R. Galvelis, Z. L. Glick, S. Lehtola, and J. P. Misiewicz

    -----------------------------------------------------------------------


    Psi4 started on: Monday, 19 April 2021 03:34PM

    Process ID: 255171
    Host:       bp1-compute00147.data.bp.acrc.priv
    PSIDATADIR: /work/zw18965/.conda/envs/p4env/share/psi4
    Memory:     500.0 MiB
    Threads:    24
    
  ==> Input File <==

--------------------------------------------------------------------------
memory 144 GB

molecule {
0 1
Cl   -1.005301993365   0.000000000000   0.000000000000
Cl    1.005301993365   0.000000000000   0.000000000000}

set basis aug-cc-pV(Q+d)Z
 
optimize("B2PLYP-D3BJ")
frequencies("B2PLYP-D3BJ")--------------------------------------------------------------------------

  Memory set to 134.110 GiB by Python driver.
gradient() will perform gradient computation by finite difference of analytic energies.

         ----------------------------------------------------------
                                   FINDIF
                     R. A. King and Jonathon Misiewicz
         ---------------------------------------------------------

  Using finite-differences of energies to determine gradients.
    Generating geometries for use with 3-point formula.
    Displacement size will be 5.00e-03.
    Number of atoms is 2.
    Number of symmetric SALCs is 1.
    Translations projected? 1. Rotations projected? 1.
    Number of geometries (including reference) is 3.

  //>>>>>>>>>>>>>>>>>>>>>>>>>>>>>>>>>>>//
  //    Loading displacement 1 of 3    //
  //<<<<<<<<<<<<<<<<<<<<<<<<<<<<<<<<<<<//

*** tstart() called on bp1-compute00147.data.bp.acrc.priv
*** at Mon Apr 19 15:34:43 2021

   => Loading Basis Set <=

    Name: AUG-CC-PV(Q+D)Z
    Role: ORBITAL
    Keyword: BASIS
    atoms 1-2 entry CL         line  1246 file /work/zw18965/.conda/envs/p4env/share/psi4/basis/aug-cc-pv_qpd_z.gbs 


         ---------------------------------------------------------
                                   SCF
               by Justin Turney, Rob Parrish, Andy Simmonett
                          and Daniel G. A. Smith
                              RKS Reference
                       24 Threads, 137329 MiB Core
         ---------------------------------------------------------

  ==> Geometry <==

    Molecular point group: d2h
    Full point group: D_inf_h

    Geometry (in Angstrom), charge = 0, multiplicity = 1:

       Center              X                  Y                   Z               Mass       
    ------------   -----------------  -----------------  -----------------  -----------------
         CL          -1.005301993365    -0.000000000000     0.000000000000    34.968852682000
         CL           1.005301993365     0.000000000000     0.000000000000    34.968852682000

  Running in d2h symmetry.

  Rotational constants: A = ************  B =      0.23850  C =      0.23850 [cm^-1]
  Rotational constants: A = ************  B =   7150.11016  C =   7150.11016 [MHz]
  Nuclear repulsion =   76.062822362326827

  Charge       = 0
  Multiplicity = 1
  Electrons    = 34
  Nalpha       = 17
  Nbeta        = 17

  ==> Algorithm <==

  SCF Algorithm Type is DF.
  DIIS enabled.
  MOM disabled.
  Fractional occupation disabled.
  Guess Type is SAD.
  Energy threshold   = 1.00e-08
  Density threshold  = 1.00e-08
  Integral threshold = 0.00e+00

  ==> Primary Basis <==

  Basis Set: AUG-CC-PV(Q+D)Z
    Blend: AUG-CC-PV(Q+D)Z
    Number of shells: 46
    Number of basis function: 178
    Number of Cartesian functions: 230
    Spherical Harmonics?: true
    Max angular momentum: 4

  ==> DFT Potential <==

   => Composite Functional: B2PLYP-D3BJ <= 

    B2PLYP Double Hybrid Exchange-Correlation Functional

    S. Grimme, J. Chem. Phys., 124, 034108, 2006


    Deriv               =              1
    GGA                 =           TRUE
    Meta                =          FALSE

    Exchange Hybrid     =           TRUE
    MP2 Hybrid          =           TRUE

   => Exchange Functionals <=

    0.4700     XC_GGA_X_B88

   => Exact (HF) Exchange <=

    0.5300               HF 

   => Correlation Functionals <=

    0.7300     XC_GGA_C_LYP

   => MP2 Correlation <=

    0.2700       MP2 

   => Molecular Quadrature <=

    Radial Scheme          =       TREUTLER
    Pruning Scheme         =           FLAT
    Nuclear Scheme         =       TREUTLER

    BS radius alpha        =              1
    Pruning alpha          =              1
    Radial Points          =             75
    Spherical Points       =            302
    Total Points           =          44898
    Total Blocks           =            410
    Max Points             =            253
    Max Functions          =            178

   => B2PLYP-D3(BJ): Empirical Dispersion <=

    Grimme's -D3 (BJ-damping) Dispersion Correction
    Grimme S.; Ehrlich S.; Goerigk L. (2011), J. Comput. Chem., 32: 1456
    Parametrisation from:    L. Goerigk, S. Grimme, Phys. Chem. Chem. Phys. 13, 6670-6688, 2011

        s6 =       0.640000
        s8 =       0.914700
        a1 =       0.306500
        a2 =       5.057000

   => Loading Basis Set <=

    Name: (AUG-CC-PV(Q+D)Z AUX)
    Role: JKFIT
    Keyword: DF_BASIS_SCF
    atoms 1-2 entry CL         line   904 file /work/zw18965/.conda/envs/p4env/share/psi4/basis/aug-cc-pvqz-jkfit.gbs 

  ==> Pre-Iterations <==

   -------------------------------------------------------
    Irrep   Nso     Nmo     Nalpha   Nbeta   Ndocc  Nsocc
   -------------------------------------------------------
     Ag        35      35       0       0       0       0
     B1g       21      21       0       0       0       0
     B2g       21      21       0       0       0       0
     B3g       12      12       0       0       0       0
     Au        12      12       0       0       0       0
     B1u       21      21       0       0       0       0
     B2u       21      21       0       0       0       0
     B3u       35      35       0       0       0       0
   -------------------------------------------------------
    Total     178     178      17      17      17       0
   -------------------------------------------------------

  ==> Integral Setup <==

  DFHelper Memory: AOs need 0.101 GiB; user supplied 100.379 GiB. Using in-core AOs.

  ==> MemDFJK: Density-Fitted J/K Matrices <==

    J tasked:                   Yes
    K tasked:                   Yes
    wK tasked:                   No
    OpenMP threads:              24
    Memory [MiB]:            102788
    Algorithm:                 Core
    Schwarz Cutoff:           1E-12
    Mask sparsity (%):       0.1704
    Fitting Condition:        1E-10

   => Auxiliary Basis Set <=

  Basis Set: (AUG-CC-PV(Q+D)Z AUX)
    Blend: AUG-CC-PVQZ-JKFIT
    Number of shells: 92
    Number of basis function: 368
    Number of Cartesian functions: 494
    Spherical Harmonics?: true
    Max angular momentum: 5

  Cached 100.0% of DFT collocation blocks in 0.204 [GiB].

  Minimum eigenvalue in the overlap matrix is 1.0888610151E-04.
  Using Symmetric Orthogonalization.

  SCF Guess: Superposition of Atomic Densities via on-the-fly atomic UHF.

  ==> Iterations <==

                           Total Energy        Delta E     RMS |[F,P]|

   @DF-RKS iter SAD:  -919.89505540866833   -9.19895e+02   0.00000e+00 
   @DF-RKS iter   1:  -920.02162446140824   -1.26569e-01   3.10971e-03 DIIS
   @DF-RKS iter   2:  -920.03032498781897   -8.70053e-03   1.34438e-03 DIIS
   @DF-RKS iter   3:  -920.03228161268203   -1.95662e-03   2.37343e-04 DIIS
   @DF-RKS iter   4:  -920.03237244875697   -9.08361e-05   6.38739e-05 DIIS
   @DF-RKS iter   5:  -920.03238134660671   -8.89785e-06   8.93078e-06 DIIS
   @DF-RKS iter   6:  -920.03238162585569   -2.79249e-07   8.54505e-07 DIIS
   @DF-RKS iter   7:  -920.03238162796288   -2.10719e-09   8.06199e-08 DIIS
   @DF-RKS iter   8:  -920.03238162798232   -1.94404e-11   1.00151e-08 DIIS
   @DF-RKS iter   9:  -920.03238162798255   -2.27374e-13   7.88907e-10 DIIS
  Energy and wave function converged.


  ==> Post-Iterations <==

    Orbital Energies [Eh]
    ---------------------

    Doubly Occupied:                                                      

       1Ag  -102.992317     1B3u -102.992317     2Ag    -9.976274  
       2B3u   -9.976178     3Ag    -7.618934     3B3u   -7.618752  
       1B1u   -7.609639     1B2u   -7.609639     1B2g   -7.609634  
       1B1g   -7.609634     4Ag    -1.050834     4B3u   -0.876435  
       5Ag    -0.524891     2B1u   -0.476923     2B2u   -0.476923  
       2B1g   -0.368192     2B2g   -0.368192  

    Virtual:                                                              

       5B3u   -0.067446     6B3u    0.048567     6Ag     0.049173  
       3B1u    0.067141     3B2u    0.067141     7Ag     0.084179  
       3B2g    0.094687     3B1g    0.094687     8Ag     0.164498  
       1B3g    0.164498     7B3u    0.172998     4B1u    0.208314  
       4B2u    0.208314     9Ag     0.256385     1Au     0.258540  
       8B3u    0.258541     9B3u    0.284051     4B2g    0.311443  
       4B1g    0.311443     5B1u    0.387941     5B2u    0.387941  
      10Ag     0.441747     6B1u    0.455200     6B2u    0.455200  
       5B2g    0.476855     5B1g    0.476855    10B3u    0.484318  
      11Ag     0.490466     2B3g    0.490466    12Ag     0.500460  
       2Au     0.564695    11B3u    0.564696    13Ag     0.600619  
       6B2g    0.654976     6B1g    0.654976     7B1u    0.669589  
       7B2u    0.669589    12B3u    0.698110     3B3g    0.731497  
      14Ag     0.731499     7B2g    0.808825     7B1g    0.808825  
      13B3u    0.934028     8B1u    0.947208     8B2u    0.947208  
       3Au     0.985758    14B3u    0.985759    15Ag     1.027102  
       8B1g    1.061818     8B2g    1.061818    15B3u    1.124106  
       9B2u    1.381743     9B1u    1.381743    16Ag     1.396927  
       4B3g    1.396928    16B3u    1.420349    17Ag     1.423318  
      17B3u    1.468273     4Au     1.468274     9B1g    1.479873  
       9B2g    1.479873    10B2u    1.579652    10B1u    1.579652  
      11B1u    1.612566    11B2u    1.612566    18Ag     1.617171  
       5B3g    1.664773    19Ag     1.664785     6B3g    1.666427  
      20Ag     1.666427    10B1g    1.791575    10B2g    1.791575  
       5Au     1.799320    18B3u    1.799332    12B1u    1.816271  
      12B2u    1.816271    13B1u    1.857616    13B2u    1.857616  
      11B2g    1.930044    11B1g    1.930044     7B3g    2.000581  
      21Ag     2.000585    22Ag     2.007154    12B2g    2.040747  
      12B1g    2.040747     6Au     2.055353    19B3u    2.055356  
      20B3u    2.090962    13B1g    2.140938    13B2g    2.140938  
      21B3u    2.296988    14B2u    2.328322    14B1u    2.328322  
      23Ag     2.385463    22B3u    2.449457     7Au     2.449459  
      23B3u    2.641003    24Ag     2.813502    14B1g    2.938168  
      14B2g    2.938168    24B3u    3.170475     8B3g    3.471958  
      25Ag     3.472006     8Au     3.541245    25B3u    3.541296  
      15B2u    3.549803    15B1u    3.549803    26Ag     3.639874  
      15B1g    3.720834    15B2g    3.720834    27Ag     4.230266  
      26B3u    4.334873    16B2u    4.336003    16B1u    4.336003  
      17B2u    4.409708    17B1u    4.409708    28Ag     4.418676  
       9B3g    4.418679    18B2u    4.442530    18B1u    4.442530  
      10B3g    4.448253    29Ag     4.448261    11B3g    4.453560  
      30Ag     4.453578    16B1g    4.463175    16B2g    4.463175  
      27B3u    4.508128     9Au     4.508335    28B3u    4.508357  
      29B3u    4.551913    10Au     4.551918    17B2g    4.598336  
      17B1g    4.598336    18B1g    4.623329    18B2g    4.623329  
      19B1u    4.643840    19B2u    4.643840    31Ag     4.794894  
      11Au     4.821952    30B3u    4.821958    19B1g    5.122850  
      19B2g    5.122850    31B3u    5.610362    20B2u    5.786746  
      20B1u    5.786746    20B1g    6.374630    20B2g    6.374630  
      32Ag     6.938242    32B3u    7.031317    12B3g   10.961903  
      33Ag    10.961964    21B1u   10.987444    21B2u   10.987444  
      12Au    11.016899    33B3u   11.016961    34Ag    11.133594  
      21B1g   11.223096    21B2g   11.223096    34B3u   11.675067  
      35Ag    22.823543    35B3u   25.517682  

    Final Occupation by Irrep:
             Ag   B1g   B2g   B3g    Au   B1u   B2u   B3u 
    DOCC [     5,    2,    2,    0,    0,    2,    2,    4 ]

  @DF-RKS Final Energy:  -920.03238162798255

   => Energetics <=

    Nuclear Repulsion Energy =             76.0628223623268269
    One-Electron Energy =               -1421.5007667514801142
    Two-Electron Energy =                 452.3039665729551189
    DFT Exchange-Correlation Energy =     -26.8973686217844872
    Empirical Dispersion Energy =          -0.0010351900000000
    VV10 Nonlocal Energy =                  0.0000000000000000
    Total Energy =                       -920.0323816279826588

Computation Completed


Properties will be evaluated at   0.000000,   0.000000,   0.000000 [a0]

Properties computed using the SCF density matrix

  Nuclear Dipole Moment: [e a0]
     X:     0.0000      Y:    -0.0000      Z:     0.0000

  Electronic Dipole Moment: [e a0]
     X:     0.0000      Y:     0.0000      Z:     0.0000

  Dipole Moment: [e a0]
     X:     0.0000      Y:    -0.0000      Z:     0.0000     Total:     0.0000

  Dipole Moment: [D]
     X:     0.0000      Y:    -0.0000      Z:     0.0000     Total:     0.0000


*** tstop() called on bp1-compute00147.data.bp.acrc.priv at Mon Apr 19 15:34:45 2021
Module time:
	user time   =      34.99 seconds =       0.58 minutes
	system time =       2.19 seconds =       0.04 minutes
	total time  =          2 seconds =       0.03 minutes
Total time:
	user time   =      34.99 seconds =       0.58 minutes
	system time =       2.19 seconds =       0.04 minutes
	total time  =          2 seconds =       0.03 minutes

*** tstart() called on bp1-compute00147.data.bp.acrc.priv
*** at Mon Apr 19 15:34:45 2021

   => Loading Basis Set <=

    Name: (AUG-CC-PV(Q+D)Z AUX)
    Role: RIFIT
    Keyword: DF_BASIS_MP2
    atoms 1-2 entry CL         line   914 file /work/zw18965/.conda/envs/p4env/share/psi4/basis/aug-cc-pvqz-ri.gbs 

	 --------------------------------------------------------
	                          DF-MP2                         
	      2nd-Order Density-Fitted Moller-Plesset Theory     
	              RMP2 Wavefunction,  24 Threads             
	                                                         
	        Rob Parrish, Justin Turney, Andy Simmonett,      
	           Ed Hohenstein, and C. David Sherrill          
	 --------------------------------------------------------

   => Auxiliary Basis Set <=

  Basis Set: (AUG-CC-PV(Q+D)Z AUX)
    Blend: AUG-CC-PVQZ-RI
    Number of shells: 88
    Number of basis function: 388
    Number of Cartesian functions: 536
    Spherical Harmonics?: true
    Max angular momentum: 5

	 --------------------------------------------------------
	                 NBF =   178, NAUX =   388
	 --------------------------------------------------------
	   CLASS    FOCC     OCC    AOCC    AVIR     VIR    FVIR
	   PAIRS       0      17      17     161     161       0
	 --------------------------------------------------------

	-----------------------------------------------------------
	 ==================> DF-MP2 Energies <==================== 
	-----------------------------------------------------------
	 Reference Energy          =    -920.0323816279825451 [Eh]
	 Singles Energy            =      -0.0000000000000000 [Eh]
	 Same-Spin Energy          =      -0.2149978618542192 [Eh]
	 Opposite-Spin Energy      =      -0.5906915290116057 [Eh]
	 Correlation Energy        =      -0.8056893908658249 [Eh]
	 Total Energy              =    -920.8380710188483818 [Eh]
	-----------------------------------------------------------
	 ================> DF-SCS-MP2 Energies <================== 
	-----------------------------------------------------------
	 SCS Same-Spin Scale       =       0.3333333333333333 [-]
	 SCS Opposite-Spin Scale   =       1.2000000000000000 [-]
	 SCS Same-Spin Energy      =      -0.0716659539514064 [Eh]
	 SCS Opposite-Spin Energy  =      -0.7088298348139268 [Eh]
	 SCS Correlation Energy    =      -0.7804957887653332 [Eh]
	 SCS Total Energy          =    -920.8128774167478241 [Eh]
	-----------------------------------------------------------



    B2PLYP-D3BJ Energy Summary
    --------------------------
    DFT Reference Energy                  =  -920.0323816279825451
    Scaled MP2 Correlation                =    -0.2175361355337727
    @Final double-hybrid DFT total energy =  -920.2499177635163505


*** tstop() called on bp1-compute00147.data.bp.acrc.priv at Mon Apr 19 15:34:45 2021
Module time:
	user time   =       9.90 seconds =       0.16 minutes
	system time =       0.39 seconds =       0.01 minutes
	total time  =          0 seconds =       0.00 minutes
Total time:
	user time   =      44.90 seconds =       0.75 minutes
	system time =       2.58 seconds =       0.04 minutes
	total time  =          2 seconds =       0.03 minutes

  //>>>>>>>>>>>>>>>>>>>>>>>>>>>>>>>>>>>//
  //    Loading displacement 2 of 3    //
  //<<<<<<<<<<<<<<<<<<<<<<<<<<<<<<<<<<<//

*** tstart() called on bp1-compute00147.data.bp.acrc.priv
*** at Mon Apr 19 15:34:45 2021

   => Loading Basis Set <=

    Name: AUG-CC-PV(Q+D)Z
    Role: ORBITAL
    Keyword: BASIS
    atoms 1-2 entry CL         line  1246 file /work/zw18965/.conda/envs/p4env/share/psi4/basis/aug-cc-pv_qpd_z.gbs 


         ---------------------------------------------------------
                                   SCF
               by Justin Turney, Rob Parrish, Andy Simmonett
                          and Daniel G. A. Smith
                              RKS Reference
                       24 Threads, 137329 MiB Core
         ---------------------------------------------------------

  ==> Geometry <==

    Molecular point group: d2h
    Full point group: D_inf_h

    Geometry (in Angstrom), charge = 0, multiplicity = 1:

       Center              X                  Y                   Z               Mass       
    ------------   -----------------  -----------------  -----------------  -----------------
         CL          -1.005618378046    -0.000000000000     0.000000000000    34.968852682000
         CL           1.005618378046     0.000000000000     0.000000000000    34.968852682000

  Running in d2h symmetry.

  Rotational constants: A = ************  B =      0.23835  C =      0.23835 [cm^-1]
  Rotational constants: A = ************  B =   7145.61177  C =   7145.61177 [MHz]
  Nuclear repulsion =   76.038891702019342

  Charge       = 0
  Multiplicity = 1
  Electrons    = 34
  Nalpha       = 17
  Nbeta        = 17

  ==> Algorithm <==

  SCF Algorithm Type is DF.
  DIIS enabled.
  MOM disabled.
  Fractional occupation disabled.
  Guess Type is SAD.
  Energy threshold   = 1.00e-08
  Density threshold  = 1.00e-08
  Integral threshold = 0.00e+00

  ==> Primary Basis <==

  Basis Set: AUG-CC-PV(Q+D)Z
    Blend: AUG-CC-PV(Q+D)Z
    Number of shells: 46
    Number of basis function: 178
    Number of Cartesian functions: 230
    Spherical Harmonics?: true
    Max angular momentum: 4

  ==> DFT Potential <==

   => Composite Functional: B2PLYP-D3BJ <= 

    B2PLYP Double Hybrid Exchange-Correlation Functional

    S. Grimme, J. Chem. Phys., 124, 034108, 2006


    Deriv               =              1
    GGA                 =           TRUE
    Meta                =          FALSE

    Exchange Hybrid     =           TRUE
    MP2 Hybrid          =           TRUE

   => Exchange Functionals <=

    0.4700     XC_GGA_X_B88

   => Exact (HF) Exchange <=

    0.5300               HF 

   => Correlation Functionals <=

    0.7300     XC_GGA_C_LYP

   => MP2 Correlation <=

    0.2700       MP2 

   => Molecular Quadrature <=

    Radial Scheme          =       TREUTLER
    Pruning Scheme         =           FLAT
    Nuclear Scheme         =       TREUTLER

    BS radius alpha        =              1
    Pruning alpha          =              1
    Radial Points          =             75
    Spherical Points       =            302
    Total Points           =          44898
    Total Blocks           =            410
    Max Points             =            253
    Max Functions          =            178

   => B2PLYP-D3(BJ): Empirical Dispersion <=

    Grimme's -D3 (BJ-damping) Dispersion Correction
    Grimme S.; Ehrlich S.; Goerigk L. (2011), J. Comput. Chem., 32: 1456
    Parametrisation from:    L. Goerigk, S. Grimme, Phys. Chem. Chem. Phys. 13, 6670-6688, 2011

        s6 =       0.640000
        s8 =       0.914700
        a1 =       0.306500
        a2 =       5.057000

   => Loading Basis Set <=

    Name: (AUG-CC-PV(Q+D)Z AUX)
    Role: JKFIT
    Keyword: DF_BASIS_SCF
    atoms 1-2 entry CL         line   904 file /work/zw18965/.conda/envs/p4env/share/psi4/basis/aug-cc-pvqz-jkfit.gbs 

  ==> Pre-Iterations <==

   -------------------------------------------------------
    Irrep   Nso     Nmo     Nalpha   Nbeta   Ndocc  Nsocc
   -------------------------------------------------------
     Ag        35      35       0       0       0       0
     B1g       21      21       0       0       0       0
     B2g       21      21       0       0       0       0
     B3g       12      12       0       0       0       0
     Au        12      12       0       0       0       0
     B1u       21      21       0       0       0       0
     B2u       21      21       0       0       0       0
     B3u       35      35       0       0       0       0
   -------------------------------------------------------
    Total     178     178      17      17      17       0
   -------------------------------------------------------

  ==> Integral Setup <==

  DFHelper Memory: AOs need 0.101 GiB; user supplied 100.379 GiB. Using in-core AOs.

  ==> MemDFJK: Density-Fitted J/K Matrices <==

    J tasked:                   Yes
    K tasked:                   Yes
    wK tasked:                   No
    OpenMP threads:              24
    Memory [MiB]:            102788
    Algorithm:                 Core
    Schwarz Cutoff:           1E-12
    Mask sparsity (%):       0.1704
    Fitting Condition:        1E-10

   => Auxiliary Basis Set <=

  Basis Set: (AUG-CC-PV(Q+D)Z AUX)
    Blend: AUG-CC-PVQZ-JKFIT
    Number of shells: 92
    Number of basis function: 368
    Number of Cartesian functions: 494
    Spherical Harmonics?: true
    Max angular momentum: 5

  Cached 100.0% of DFT collocation blocks in 0.204 [GiB].

  Minimum eigenvalue in the overlap matrix is 1.0904344981E-04.
  Using Symmetric Orthogonalization.

  SCF Guess: Superposition of Atomic Densities via on-the-fly atomic UHF.

  ==> Iterations <==

                           Total Energy        Delta E     RMS |[F,P]|

   @DF-RKS iter SAD:  -919.89429704512042   -9.19894e+02   0.00000e+00 
   @DF-RKS iter   1:  -920.02161909454605   -1.27322e-01   3.10926e-03 DIIS
   @DF-RKS iter   2:  -920.03031524525227   -8.69615e-03   1.34400e-03 DIIS
   @DF-RKS iter   3:  -920.03227110281296   -1.95586e-03   2.37379e-04 DIIS
   @DF-RKS iter   4:  -920.03236194827321   -9.08455e-05   6.38351e-05 DIIS
   @DF-RKS iter   5:  -920.03237083665567   -8.88838e-06   8.93081e-06 DIIS
   @DF-RKS iter   6:  -920.03237111590249   -2.79247e-07   8.55076e-07 DIIS
   @DF-RKS iter   7:  -920.03237111801297   -2.11048e-09   8.05776e-08 DIIS
   @DF-RKS iter   8:  -920.03237111803219   -1.92131e-11   1.00215e-08 DIIS
   @DF-RKS iter   9:  -920.03237111803196    2.27374e-13   7.90180e-10 DIIS
  Energy and wave function converged.


  ==> Post-Iterations <==

    Orbital Energies [Eh]
    ---------------------

    Doubly Occupied:                                                      

       1Ag  -102.992346     1B3u -102.992346     2Ag    -9.976294  
       2B3u   -9.976198     3Ag    -7.618954     3B3u   -7.618773  
       1B1u   -7.609659     1B2u   -7.609659     1B2g   -7.609653  
       1B1g   -7.609653     4Ag    -1.050669     4B3u   -0.876504  
       5Ag    -0.524807     2B2u   -0.476847     2B1u   -0.476847  
       2B2g   -0.368250     2B1g   -0.368250  

    Virtual:                                                              

       5B3u   -0.067638     6B3u    0.048549     6Ag     0.049172  
       3B2u    0.067147     3B1u    0.067147     7Ag     0.084189  
       3B2g    0.094685     3B1g    0.094685     8Ag     0.164509  
       1B3g    0.164509     7B3u    0.172992     4B2u    0.208291  
       4B1u    0.208291     9Ag     0.256412     1Au     0.258518  
       8B3u    0.258519     9B3u    0.283994     4B1g    0.311440  
       4B2g    0.311440     5B2u    0.387960     5B1u    0.387960  
      10Ag     0.441792     6B2u    0.455219     6B1u    0.455219  
       5B1g    0.476853     5B2g    0.476853    10B3u    0.484353  
      11Ag     0.490508     2B3g    0.490508    12Ag     0.500485  
       2Au     0.564666    11B3u    0.564666    13Ag     0.600490  
       6B1g    0.654858     6B2g    0.654858     7B2u    0.669610  
       7B1u    0.669610    12B3u    0.697918     3B3g    0.731416  
      14Ag     0.731417     7B1g    0.808778     7B2g    0.808778  
      13B3u    0.933898     8B2u    0.947107     8B1u    0.947107  
       3Au     0.985683    14B3u    0.985684    15Ag     1.027133  
       8B1g    1.061806     8B2g    1.061806    15B3u    1.124073  
       9B1u    1.381794     9B2u    1.381794    16Ag     1.396933  
       4B3g    1.396933    16B3u    1.420315    17Ag     1.423425  
      17B3u    1.468222     4Au     1.468223     9B2g    1.480075  
       9B1g    1.480075    10B2u    1.579640    10B1u    1.579640  
      11B1u    1.612524    11B2u    1.612524    18Ag     1.617117  
       5B3g    1.664841    19Ag     1.664853     6B3g    1.666357  
      20Ag     1.666358    10B2g    1.791230    10B1g    1.791230  
       5Au     1.799246    18B3u    1.799258    12B2u    1.815997  
      12B1u    1.815997    13B2u    1.857640    13B1u    1.857640  
      11B1g    1.929978    11B2g    1.929978     7B3g    2.000407  
      21Ag     2.000412    22Ag     2.006989    12B2g    2.040550  
      12B1g    2.040550     6Au     2.055255    19B3u    2.055258  
      20B3u    2.090780    13B2g    2.140839    13B1g    2.140839  
      21B3u    2.296609    14B2u    2.328109    14B1u    2.328109  
      23Ag     2.384583    22B3u    2.449065     7Au     2.449067  
      23B3u    2.641375    24Ag     2.813410    14B2g    2.937909  
      14B1g    2.937909    24B3u    3.170357     8B3g    3.471976  
      25Ag     3.472024     8Au     3.541205    25B3u    3.541256  
      15B2u    3.549747    15B1u    3.549747    26Ag     3.640282  
      15B2g    3.720549    15B1g    3.720549    27Ag     4.230607  
      26B3u    4.333721    16B1u    4.336688    16B2u    4.336688  
      17B2u    4.409724    17B1u    4.409724    28Ag     4.418555  
       9B3g    4.418558    18B1u    4.442576    18B2u    4.442576  
      10B3g    4.448676    29Ag     4.448684    11B3g    4.453581  
      30Ag     4.453599    16B2g    4.463157    16B1g    4.463157  
      27B3u    4.508001     9Au     4.508311    28B3u    4.508334  
      29B3u    4.551802    10Au     4.551807    17B2g    4.598198  
      17B1g    4.598198    18B2g    4.623165    18B1g    4.623165  
      19B1u    4.643397    19B2u    4.643397    31Ag     4.794499  
      11Au     4.821451    30B3u    4.821457    19B1g    5.122123  
      19B2g    5.122123    31B3u    5.608792    20B2u    5.786665  
      20B1u    5.786665    20B1g    6.373795    20B2g    6.373795  
      32Ag     6.936983    32B3u    7.032123    12B3g   10.961904  
      33Ag    10.961966    21B2u   10.987367    21B1u   10.987367  
      12Au    11.016837    33B3u   11.016899    34Ag    11.133249  
      21B1g   11.222785    21B2g   11.222785    34B3u   11.674438  
      35Ag    22.823561    35B3u   25.512113  

    Final Occupation by Irrep:
             Ag   B1g   B2g   B3g    Au   B1u   B2u   B3u 
    DOCC [     5,    2,    2,    0,    0,    2,    2,    4 ]

  @DF-RKS Final Energy:  -920.03237111803196

   => Energetics <=

    Nuclear Repulsion Energy =             76.0388917020193418
    One-Electron Energy =               -1421.4529548063192124
    Two-Electron Energy =                 452.2799852554257996
    DFT Exchange-Correlation Energy =     -26.8972581091578142
    Empirical Dispersion Energy =          -0.0010351600000000
    VV10 Nonlocal Energy =                  0.0000000000000000
    Total Energy =                       -920.0323711180319606

Computation Completed


Properties will be evaluated at   0.000000,   0.000000,   0.000000 [a0]

Properties computed using the SCF density matrix

  Nuclear Dipole Moment: [e a0]
     X:     0.0000      Y:     0.0000      Z:     0.0000

  Electronic Dipole Moment: [e a0]
     X:     0.0000      Y:     0.0000      Z:     0.0000

  Dipole Moment: [e a0]
     X:     0.0000      Y:     0.0000      Z:     0.0000     Total:     0.0000

  Dipole Moment: [D]
     X:     0.0000      Y:     0.0000      Z:     0.0000     Total:     0.0000


*** tstop() called on bp1-compute00147.data.bp.acrc.priv at Mon Apr 19 15:34:47 2021
Module time:
	user time   =      35.23 seconds =       0.59 minutes
	system time =       1.63 seconds =       0.03 minutes
	total time  =          2 seconds =       0.03 minutes
Total time:
	user time   =      80.29 seconds =       1.34 minutes
	system time =       4.22 seconds =       0.07 minutes
	total time  =          4 seconds =       0.07 minutes

*** tstart() called on bp1-compute00147.data.bp.acrc.priv
*** at Mon Apr 19 15:34:47 2021

   => Loading Basis Set <=

    Name: (AUG-CC-PV(Q+D)Z AUX)
    Role: RIFIT
    Keyword: DF_BASIS_MP2
    atoms 1-2 entry CL         line   914 file /work/zw18965/.conda/envs/p4env/share/psi4/basis/aug-cc-pvqz-ri.gbs 

	 --------------------------------------------------------
	                          DF-MP2                         
	      2nd-Order Density-Fitted Moller-Plesset Theory     
	              RMP2 Wavefunction,  24 Threads             
	                                                         
	        Rob Parrish, Justin Turney, Andy Simmonett,      
	           Ed Hohenstein, and C. David Sherrill          
	 --------------------------------------------------------

   => Auxiliary Basis Set <=

  Basis Set: (AUG-CC-PV(Q+D)Z AUX)
    Blend: AUG-CC-PVQZ-RI
    Number of shells: 88
    Number of basis function: 388
    Number of Cartesian functions: 536
    Spherical Harmonics?: true
    Max angular momentum: 5

	 --------------------------------------------------------
	                 NBF =   178, NAUX =   388
	 --------------------------------------------------------
	   CLASS    FOCC     OCC    AOCC    AVIR     VIR    FVIR
	   PAIRS       0      17      17     161     161       0
	 --------------------------------------------------------

	-----------------------------------------------------------
	 ==================> DF-MP2 Energies <==================== 
	-----------------------------------------------------------
	 Reference Energy          =    -920.0323711180319606 [Eh]
	 Singles Energy            =      -0.0000000000000000 [Eh]
	 Same-Spin Energy          =      -0.2149916710387663 [Eh]
	 Opposite-Spin Energy      =      -0.5907112617310645 [Eh]
	 Correlation Energy        =      -0.8057029327698307 [Eh]
	 Total Energy              =    -920.8380740508017652 [Eh]
	-----------------------------------------------------------
	 ================> DF-SCS-MP2 Energies <================== 
	-----------------------------------------------------------
	 SCS Same-Spin Scale       =       0.3333333333333333 [-]
	 SCS Opposite-Spin Scale   =       1.2000000000000000 [-]
	 SCS Same-Spin Energy      =      -0.0716638903462554 [Eh]
	 SCS Opposite-Spin Energy  =      -0.7088535140772774 [Eh]
	 SCS Correlation Energy    =      -0.7805174044235328 [Eh]
	 SCS Total Energy          =    -920.8128885224555233 [Eh]
	-----------------------------------------------------------



    B2PLYP-D3BJ Energy Summary
    --------------------------
    DFT Reference Energy                  =  -920.0323711180319606
    Scaled MP2 Correlation                =    -0.2175397918478543
    @Final double-hybrid DFT total energy =  -920.2499109098797589


*** tstop() called on bp1-compute00147.data.bp.acrc.priv at Mon Apr 19 15:34:48 2021
Module time:
	user time   =      10.92 seconds =       0.18 minutes
	system time =       0.46 seconds =       0.01 minutes
	total time  =          1 seconds =       0.02 minutes
Total time:
	user time   =      91.22 seconds =       1.52 minutes
	system time =       4.68 seconds =       0.08 minutes
	total time  =          5 seconds =       0.08 minutes

  //>>>>>>>>>>>>>>>>>>>>>>>>>>>>>>>>>>>//
  //    Loading displacement 3 of 3    //
  //<<<<<<<<<<<<<<<<<<<<<<<<<<<<<<<<<<<//

*** tstart() called on bp1-compute00147.data.bp.acrc.priv
*** at Mon Apr 19 15:34:48 2021

   => Loading Basis Set <=

    Name: AUG-CC-PV(Q+D)Z
    Role: ORBITAL
    Keyword: BASIS
    atoms 1-2 entry CL         line  1246 file /work/zw18965/.conda/envs/p4env/share/psi4/basis/aug-cc-pv_qpd_z.gbs 


         ---------------------------------------------------------
                                   SCF
               by Justin Turney, Rob Parrish, Andy Simmonett
                          and Daniel G. A. Smith
                              RKS Reference
                       24 Threads, 137329 MiB Core
         ---------------------------------------------------------

  ==> Geometry <==

    Molecular point group: d2h
    Full point group: D_inf_h

    Geometry (in Angstrom), charge = 0, multiplicity = 1:

       Center              X                  Y                   Z               Mass       
    ------------   -----------------  -----------------  -----------------  -----------------
         CL          -1.004985608684    -0.000000000000     0.000000000000    34.968852682000
         CL           1.004985608684     0.000000000000     0.000000000000    34.968852682000

  Running in d2h symmetry.

  Rotational constants: A = ************  B =      0.23865  C =      0.23865 [cm^-1]
  Rotational constants: A = ************  B =   7154.61279  C =   7154.61279 [MHz]
  Nuclear repulsion =   76.086768090102453

  Charge       = 0
  Multiplicity = 1
  Electrons    = 34
  Nalpha       = 17
  Nbeta        = 17

  ==> Algorithm <==

  SCF Algorithm Type is DF.
  DIIS enabled.
  MOM disabled.
  Fractional occupation disabled.
  Guess Type is SAD.
  Energy threshold   = 1.00e-08
  Density threshold  = 1.00e-08
  Integral threshold = 0.00e+00

  ==> Primary Basis <==

  Basis Set: AUG-CC-PV(Q+D)Z
    Blend: AUG-CC-PV(Q+D)Z
    Number of shells: 46
    Number of basis function: 178
    Number of Cartesian functions: 230
    Spherical Harmonics?: true
    Max angular momentum: 4

  ==> DFT Potential <==

   => Composite Functional: B2PLYP-D3BJ <= 

    B2PLYP Double Hybrid Exchange-Correlation Functional

    S. Grimme, J. Chem. Phys., 124, 034108, 2006


    Deriv               =              1
    GGA                 =           TRUE
    Meta                =          FALSE

    Exchange Hybrid     =           TRUE
    MP2 Hybrid          =           TRUE

   => Exchange Functionals <=

    0.4700     XC_GGA_X_B88

   => Exact (HF) Exchange <=

    0.5300               HF 

   => Correlation Functionals <=

    0.7300     XC_GGA_C_LYP

   => MP2 Correlation <=

    0.2700       MP2 

   => Molecular Quadrature <=

    Radial Scheme          =       TREUTLER
    Pruning Scheme         =           FLAT
    Nuclear Scheme         =       TREUTLER

    BS radius alpha        =              1
    Pruning alpha          =              1
    Radial Points          =             75
    Spherical Points       =            302
    Total Points           =          44898
    Total Blocks           =            410
    Max Points             =            253
    Max Functions          =            178

   => B2PLYP-D3(BJ): Empirical Dispersion <=

    Grimme's -D3 (BJ-damping) Dispersion Correction
    Grimme S.; Ehrlich S.; Goerigk L. (2011), J. Comput. Chem., 32: 1456
    Parametrisation from:    L. Goerigk, S. Grimme, Phys. Chem. Chem. Phys. 13, 6670-6688, 2011

        s6 =       0.640000
        s8 =       0.914700
        a1 =       0.306500
        a2 =       5.057000

   => Loading Basis Set <=

    Name: (AUG-CC-PV(Q+D)Z AUX)
    Role: JKFIT
    Keyword: DF_BASIS_SCF
    atoms 1-2 entry CL         line   904 file /work/zw18965/.conda/envs/p4env/share/psi4/basis/aug-cc-pvqz-jkfit.gbs 

  ==> Pre-Iterations <==

   -------------------------------------------------------
    Irrep   Nso     Nmo     Nalpha   Nbeta   Ndocc  Nsocc
   -------------------------------------------------------
     Ag        35      35       0       0       0       0
     B1g       21      21       0       0       0       0
     B2g       21      21       0       0       0       0
     B3g       12      12       0       0       0       0
     Au        12      12       0       0       0       0
     B1u       21      21       0       0       0       0
     B2u       21      21       0       0       0       0
     B3u       35      35       0       0       0       0
   -------------------------------------------------------
    Total     178     178      17      17      17       0
   -------------------------------------------------------

  ==> Integral Setup <==

  DFHelper Memory: AOs need 0.101 GiB; user supplied 100.379 GiB. Using in-core AOs.

  ==> MemDFJK: Density-Fitted J/K Matrices <==

    J tasked:                   Yes
    K tasked:                   Yes
    wK tasked:                   No
    OpenMP threads:              24
    Memory [MiB]:            102788
    Algorithm:                 Core
    Schwarz Cutoff:           1E-12
    Mask sparsity (%):       0.1704
    Fitting Condition:        1E-10

   => Auxiliary Basis Set <=

  Basis Set: (AUG-CC-PV(Q+D)Z AUX)
    Blend: AUG-CC-PVQZ-JKFIT
    Number of shells: 92
    Number of basis function: 368
    Number of Cartesian functions: 494
    Spherical Harmonics?: true
    Max angular momentum: 5

  Cached 100.0% of DFT collocation blocks in 0.204 [GiB].

  Minimum eigenvalue in the overlap matrix is 1.0872893618E-04.
  Using Symmetric Orthogonalization.

  SCF Guess: Superposition of Atomic Densities via on-the-fly atomic UHF.

  ==> Iterations <==

                           Total Energy        Delta E     RMS |[F,P]|

   @DF-RKS iter SAD:  -919.89581607608659   -9.19896e+02   0.00000e+00 
   @DF-RKS iter   1:  -920.02162953551351   -1.25813e-01   3.11017e-03 DIIS
   @DF-RKS iter   2:  -920.03033444901064   -8.70491e-03   1.34477e-03 DIIS
   @DF-RKS iter   3:  -920.03229183662734   -1.95739e-03   2.37305e-04 DIIS
   @DF-RKS iter   4:  -920.03238266267579   -9.08260e-05   6.39128e-05 DIIS
   @DF-RKS iter   5:  -920.03239157002758   -8.90735e-06   8.93077e-06 DIIS
   @DF-RKS iter   6:  -920.03239184928054   -2.79253e-07   8.53932e-07 DIIS
   @DF-RKS iter   7:  -920.03239185138443   -2.10389e-09   8.06622e-08 DIIS
   @DF-RKS iter   8:  -920.03239185140501   -2.05773e-11   1.00088e-08 DIIS
   @DF-RKS iter   9:  -920.03239185140444    5.68434e-13   7.87639e-10 DIIS
  Energy and wave function converged.


  ==> Post-Iterations <==

    Orbital Energies [Eh]
    ---------------------

    Doubly Occupied:                                                      

       1Ag  -102.992289     1B3u -102.992288     2Ag    -9.976255  
       2B3u   -9.976158     3Ag    -7.618914     3B3u   -7.618731  
       1B2u   -7.609620     1B1u   -7.609620     1B1g   -7.609614  
       1B2g   -7.609614     4Ag    -1.050998     4B3u   -0.876366  
       5Ag    -0.524976     2B1u   -0.476999     2B2u   -0.476999  
       2B2g   -0.368134     2B1g   -0.368134  

    Virtual:                                                              

       5B3u   -0.067254     6B3u    0.048585     6Ag     0.049174  
       3B2u    0.067136     3B1u    0.067136     7Ag     0.084169  
       3B2g    0.094689     3B1g    0.094689     8Ag     0.164486  
       1B3g    0.164486     7B3u    0.173004     4B2u    0.208338  
       4B1u    0.208338     9Ag     0.256358     1Au     0.258562  
       8B3u    0.258563     9B3u    0.284107     4B1g    0.311446  
       4B2g    0.311446     5B2u    0.387922     5B1u    0.387922  
      10Ag     0.441701     6B2u    0.455181     6B1u    0.455181  
       5B2g    0.476857     5B1g    0.476857    10B3u    0.484284  
      11Ag     0.490423     2B3g    0.490423    12Ag     0.500436  
       2Au     0.564725    11B3u    0.564725    13Ag     0.600748  
       6B1g    0.655095     6B2g    0.655095     7B1u    0.669568  
       7B2u    0.669568    12B3u    0.698301     3B3g    0.731579  
      14Ag     0.731580     7B2g    0.808872     7B1g    0.808872  
      13B3u    0.934158     8B2u    0.947309     8B1u    0.947309  
       3Au     0.985832    14B3u    0.985833    15Ag     1.027070  
       8B2g    1.061829     8B1g    1.061829    15B3u    1.124139  
       9B1u    1.381692     9B2u    1.381692    16Ag     1.396922  
       4B3g    1.396922    16B3u    1.420384    17Ag     1.423210  
      17B3u    1.468325     4Au     1.468326     9B2g    1.479670  
       9B1g    1.479670    10B2u    1.579664    10B1u    1.579664  
      11B2u    1.612609    11B1u    1.612609    18Ag     1.617226  
       5B3g    1.664705    19Ag     1.664716     6B3g    1.666496  
      20Ag     1.666497    10B1g    1.791920    10B2g    1.791920  
       5Au     1.799394    18B3u    1.799406    12B2u    1.816544  
      12B1u    1.816544    13B1u    1.857593    13B2u    1.857593  
      11B1g    1.930110    11B2g    1.930110     7B3g    2.000755  
      21Ag     2.000759    22Ag     2.007320    12B1g    2.040944  
      12B2g    2.040944     6Au     2.055450    19B3u    2.055454  
      20B3u    2.091144    13B2g    2.141037    13B1g    2.141037  
      21B3u    2.297367    14B2u    2.328534    14B1u    2.328534  
      23Ag     2.386343    22B3u    2.449849     7Au     2.449851  
      23B3u    2.640631    24Ag     2.813595    14B2g    2.938426  
      14B1g    2.938426    24B3u    3.170593     8B3g    3.471940  
      25Ag     3.471988     8Au     3.541285    25B3u    3.541336  
      15B1u    3.549858    15B2u    3.549858    26Ag     3.639469  
      15B2g    3.721121    15B1g    3.721121    27Ag     4.229925  
      16B2u    4.335319    16B1u    4.335319    26B3u    4.336024  
      17B2u    4.409691    17B1u    4.409691    28Ag     4.418797  
       9B3g    4.418800    18B2u    4.442484    18B1u    4.442484  
      10B3g    4.447829    29Ag     4.447837    11B3g    4.453540  
      30Ag     4.453557    16B1g    4.463193    16B2g    4.463193  
      27B3u    4.508256     9Au     4.508358    28B3u    4.508380  
      29B3u    4.552025    10Au     4.552030    17B1g    4.598475  
      17B2g    4.598475    18B1g    4.623494    18B2g    4.623494  
      19B2u    4.644284    19B1u    4.644284    31Ag     4.795289  
      11Au     4.822453    30B3u    4.822460    19B2g    5.123578  
      19B1g    5.123578    31B3u    5.611932    20B2u    5.786827  
      20B1u    5.786827    20B2g    6.375465    20B1g    6.375465  
      32Ag     6.939498    32B3u    7.030515    12B3g   10.961901  
      33Ag    10.961963    21B1u   10.987520    21B2u   10.987520  
      12Au    11.016961    33B3u   11.017023    34Ag    11.133941  
      21B2g   11.223407    21B1g   11.223407    34B3u   11.675693  
      35Ag    22.823529    35B3u   25.523253  

    Final Occupation by Irrep:
             Ag   B1g   B2g   B3g    Au   B1u   B2u   B3u 
    DOCC [     5,    2,    2,    0,    0,    2,    2,    4 ]

  @DF-RKS Final Energy:  -920.03239185140444

   => Energetics <=

    Nuclear Repulsion Energy =             76.0867680901024528
    One-Electron Energy =               -1421.5486079489501208
    Two-Electron Energy =                 452.3279625008578932
    DFT Exchange-Correlation Energy =     -26.8974792734145964
    Empirical Dispersion Energy =          -0.0010352200000000
    VV10 Nonlocal Energy =                  0.0000000000000000
    Total Energy =                       -920.0323918514043271

Computation Completed


Properties will be evaluated at   0.000000,   0.000000,   0.000000 [a0]

Properties computed using the SCF density matrix

  Nuclear Dipole Moment: [e a0]
     X:     0.0000      Y:    -0.0000      Z:     0.0000

  Electronic Dipole Moment: [e a0]
     X:     0.0000      Y:     0.0000      Z:     0.0000

  Dipole Moment: [e a0]
     X:     0.0000      Y:    -0.0000      Z:     0.0000     Total:     0.0000

  Dipole Moment: [D]
     X:     0.0000      Y:    -0.0000      Z:     0.0000     Total:     0.0000


*** tstop() called on bp1-compute00147.data.bp.acrc.priv at Mon Apr 19 15:34:50 2021
Module time:
	user time   =      35.18 seconds =       0.59 minutes
	system time =       1.52 seconds =       0.03 minutes
	total time  =          2 seconds =       0.03 minutes
Total time:
	user time   =     126.53 seconds =       2.11 minutes
	system time =       6.21 seconds =       0.10 minutes
	total time  =          7 seconds =       0.12 minutes

*** tstart() called on bp1-compute00147.data.bp.acrc.priv
*** at Mon Apr 19 15:34:50 2021

   => Loading Basis Set <=

    Name: (AUG-CC-PV(Q+D)Z AUX)
    Role: RIFIT
    Keyword: DF_BASIS_MP2
    atoms 1-2 entry CL         line   914 file /work/zw18965/.conda/envs/p4env/share/psi4/basis/aug-cc-pvqz-ri.gbs 

	 --------------------------------------------------------
	                          DF-MP2                         
	      2nd-Order Density-Fitted Moller-Plesset Theory     
	              RMP2 Wavefunction,  24 Threads             
	                                                         
	        Rob Parrish, Justin Turney, Andy Simmonett,      
	           Ed Hohenstein, and C. David Sherrill          
	 --------------------------------------------------------

   => Auxiliary Basis Set <=

  Basis Set: (AUG-CC-PV(Q+D)Z AUX)
    Blend: AUG-CC-PVQZ-RI
    Number of shells: 88
    Number of basis function: 388
    Number of Cartesian functions: 536
    Spherical Harmonics?: true
    Max angular momentum: 5

	 --------------------------------------------------------
	                 NBF =   178, NAUX =   388
	 --------------------------------------------------------
	   CLASS    FOCC     OCC    AOCC    AVIR     VIR    FVIR
	   PAIRS       0      17      17     161     161       0
	 --------------------------------------------------------

	-----------------------------------------------------------
	 ==================> DF-MP2 Energies <==================== 
	-----------------------------------------------------------
	 Reference Energy          =    -920.0323918514044408 [Eh]
	 Singles Energy            =      -0.0000000000000000 [Eh]
	 Same-Spin Energy          =      -0.2150040623203582 [Eh]
	 Opposite-Spin Energy      =      -0.5906718282569682 [Eh]
	 Correlation Energy        =      -0.8056758905773264 [Eh]
	 Total Energy              =    -920.8380677419817175 [Eh]
	-----------------------------------------------------------
	 ================> DF-SCS-MP2 Energies <================== 
	-----------------------------------------------------------
	 SCS Same-Spin Scale       =       0.3333333333333333 [-]
	 SCS Opposite-Spin Scale   =       1.2000000000000000 [-]
	 SCS Same-Spin Energy      =      -0.0716680207734527 [Eh]
	 SCS Opposite-Spin Energy  =      -0.7088061939083617 [Eh]
	 SCS Correlation Energy    =      -0.7804742146818144 [Eh]
	 SCS Total Energy          =    -920.8128660660862579 [Eh]
	-----------------------------------------------------------



    B2PLYP-D3BJ Energy Summary
    --------------------------
    DFT Reference Energy                  =  -920.0323918514044408
    Scaled MP2 Correlation                =    -0.2175324904558781
    @Final double-hybrid DFT total energy =  -920.2499243418602646


*** tstop() called on bp1-compute00147.data.bp.acrc.priv at Mon Apr 19 15:34:50 2021
Module time:
	user time   =      10.50 seconds =       0.17 minutes
	system time =       0.46 seconds =       0.01 minutes
	total time  =          0 seconds =       0.00 minutes
Total time:
	user time   =     137.04 seconds =       2.28 minutes
	system time =       6.67 seconds =       0.11 minutes
	total time  =          7 seconds =       0.12 minutes

         ----------------------------------------------------------
                                   FINDIF
                     R. A. King and Jonathon Misiewicz
         ---------------------------------------------------------

  Computing gradient from energies.
    Using 3-point formula.
    Energy without displacement: -920.2499177635
    Check energies below for precision!
    Forces are for mass-weighted, symmetry-adapted cartesians (in au).

     Coord      Energy(-1)        Energy(+1)            Force
        0   -920.2499109099   -920.2499243419     -0.0013431981


-------------------------------------------------------------
  ## New Matrix (Symmetry 0) ##
  Irrep: 1 Size: 2 x 3

                 1                   2                   3

    1    -0.00561649978665     0.00000000000000     0.00000000000000
    2     0.00561649978665     0.00000000000000     0.00000000000000




			-----------------------------------------
			 OPTKING 2.0: for geometry optimizations 
			  - R.A. King,  Bethel University        
			-----------------------------------------

	Internal coordinates to be generated automatically.
	Detected frag 1 with atoms:  1 2
	---Fragment 1 Bond Connectivity---
	 1 : 2
	 2 : 1

	---Fragment 1 Geometry and Gradient---
	 CL         -1.8997454408       -0.0000000000        0.0000000000
	 CL          1.8997454408        0.0000000000        0.0000000000
	            -0.0056164998        0.0000000000        0.0000000000
	             0.0056164998        0.0000000000        0.0000000000

	Previous optimization step data not found.  Starting new optimization.

	---Fragment 1 Intrafragment Coordinates---
	 - Coordinate -           - BOHR/RAD -       - ANG/DEG -
	 R(1,2)           =         3.799491	       2.010604

	Current energy   :      -920.2499177635

	Generating empirical Hessian (Schlegel '84) for each fragment.
	Taking RFO optimization step.
	Going to follow RFO solution 1.
	Using RFO vector 1.
	Norm of target step-size    0.01681
	Projected energy change by RFO approximation:         0.0000468557

	Back-transformation to cartesian coordinates...
	Successfully converged to displaced geometry.

	--- Internal Coordinate Step in ANG or DEG, aJ/ANG or AJ/DEG ---
	 ---------------------------------------------------------------------------
	   Coordinate                Previous        Force       Change         New 
	   ----------                --------       ------       ------       ------
	    1 R(1,2)          =      2.010604    -0.046273    -0.008895     2.001709
	 ---------------------------------------------------------------------------
	Successfully symmetrized geometry.

  ==> Convergence Check <==

  Measures of convergence in internal coordinates in au.
  Criteria marked as inactive (o), active & met (*), and active & unmet ( ).
  --------------------------------------------------------------------------------------------- ~
   Step     Total Energy     Delta E     MAX Force     RMS Force      MAX Disp      RMS Disp    ~
  --------------------------------------------------------------------------------------------- ~
    Convergence Criteria    1.00e-06 *    3.00e-04 *             o    1.20e-03 *             o  ~
  --------------------------------------------------------------------------------------------- ~
      1    -920.24991776   -9.20e+02      5.62e-03      5.62e-03 o    1.68e-02      1.68e-02 o  ~
  ---------------------------------------------------------------------------------------------

	Writing optimization data to binary file.
	Structure for next step:
	Cartesian Geometry (in Angstrom)
	   CL    -1.0008543898  -0.0000000000   0.0000000000
	   CL     1.0008543898   0.0000000000   0.0000000000
			--------------------------
			 OPTKING Finished Execution 
			--------------------------

    Structure for next step:
    Molecular point group: d2h
    Full point group: D_inf_h

    Geometry (in Angstrom), charge = 0, multiplicity = 1:

    CL          -1.000854393729    -0.000000000000     0.000000000000
    CL           1.000854393729     0.000000000000     0.000000000000

gradient() will perform gradient computation by finite difference of analytic energies.

         ----------------------------------------------------------
                                   FINDIF
                     R. A. King and Jonathon Misiewicz
         ---------------------------------------------------------

  Using finite-differences of energies to determine gradients.
    Generating geometries for use with 3-point formula.
    Displacement size will be 5.00e-03.
    Number of atoms is 2.
    Number of symmetric SALCs is 1.
    Translations projected? 1. Rotations projected? 1.
    Number of geometries (including reference) is 3.

  //>>>>>>>>>>>>>>>>>>>>>>>>>>>>>>>>>>>//
  //    Loading displacement 1 of 3    //
  //<<<<<<<<<<<<<<<<<<<<<<<<<<<<<<<<<<<//

*** tstart() called on bp1-compute00147.data.bp.acrc.priv
*** at Mon Apr 19 15:34:50 2021

   => Loading Basis Set <=

    Name: AUG-CC-PV(Q+D)Z
    Role: ORBITAL
    Keyword: BASIS
    atoms 1-2 entry CL         line  1246 file /work/zw18965/.conda/envs/p4env/share/psi4/basis/aug-cc-pv_qpd_z.gbs 


         ---------------------------------------------------------
                                   SCF
               by Justin Turney, Rob Parrish, Andy Simmonett
                          and Daniel G. A. Smith
                              RKS Reference
                       24 Threads, 137329 MiB Core
         ---------------------------------------------------------

  ==> Geometry <==

    Molecular point group: d2h
    Full point group: D_inf_h

    Geometry (in Angstrom), charge = 0, multiplicity = 1:

       Center              X                  Y                   Z               Mass       
    ------------   -----------------  -----------------  -----------------  -----------------
         CL          -1.000854393729    -0.000000000000     0.000000000000    34.968852682000
         CL           1.000854393729     0.000000000000     0.000000000000    34.968852682000

  Running in d2h symmetry.

  Rotational constants: A = ************  B =      0.24063  C =      0.24063 [cm^-1]
  Rotational constants: A = ************  B =   7213.79871  C =   7213.79871 [MHz]
  Nuclear repulsion =   76.400830551300544

  Charge       = 0
  Multiplicity = 1
  Electrons    = 34
  Nalpha       = 17
  Nbeta        = 17

  ==> Algorithm <==

  SCF Algorithm Type is DF.
  DIIS enabled.
  MOM disabled.
  Fractional occupation disabled.
  Guess Type is READ.
  Energy threshold   = 1.00e-08
  Density threshold  = 1.00e-08
  Integral threshold = 0.00e+00

  ==> Primary Basis <==

  Basis Set: AUG-CC-PV(Q+D)Z
    Blend: AUG-CC-PV(Q+D)Z
    Number of shells: 46
    Number of basis function: 178
    Number of Cartesian functions: 230
    Spherical Harmonics?: true
    Max angular momentum: 4

  ==> DFT Potential <==

   => Composite Functional: B2PLYP-D3BJ <= 

    B2PLYP Double Hybrid Exchange-Correlation Functional

    S. Grimme, J. Chem. Phys., 124, 034108, 2006


    Deriv               =              1
    GGA                 =           TRUE
    Meta                =          FALSE

    Exchange Hybrid     =           TRUE
    MP2 Hybrid          =           TRUE

   => Exchange Functionals <=

    0.4700     XC_GGA_X_B88

   => Exact (HF) Exchange <=

    0.5300               HF 

   => Correlation Functionals <=

    0.7300     XC_GGA_C_LYP

   => MP2 Correlation <=

    0.2700       MP2 

   => Molecular Quadrature <=

    Radial Scheme          =       TREUTLER
    Pruning Scheme         =           FLAT
    Nuclear Scheme         =       TREUTLER

    BS radius alpha        =              1
    Pruning alpha          =              1
    Radial Points          =             75
    Spherical Points       =            302
    Total Points           =          44898
    Total Blocks           =            411
    Max Points             =            256
    Max Functions          =            178

   => B2PLYP-D3(BJ): Empirical Dispersion <=

    Grimme's -D3 (BJ-damping) Dispersion Correction
    Grimme S.; Ehrlich S.; Goerigk L. (2011), J. Comput. Chem., 32: 1456
    Parametrisation from:    L. Goerigk, S. Grimme, Phys. Chem. Chem. Phys. 13, 6670-6688, 2011

        s6 =       0.640000
        s8 =       0.914700
        a1 =       0.306500
        a2 =       5.057000

   => Loading Basis Set <=

    Name: (AUG-CC-PV(Q+D)Z AUX)
    Role: JKFIT
    Keyword: DF_BASIS_SCF
    atoms 1-2 entry CL         line   904 file /work/zw18965/.conda/envs/p4env/share/psi4/basis/aug-cc-pvqz-jkfit.gbs 

   => Loading Basis Set <=

    Name: AUG-CC-PV(Q+D)Z
    Role: ORBITAL
    Keyword: BASIS
    atoms 1-2 entry CL         line  1246 file /work/zw18965/.conda/envs/p4env/share/psi4/basis/aug-cc-pv_qpd_z.gbs 

  Reading orbitals from file 180, no projection.

  ==> Pre-Iterations <==

   -------------------------------------------------------
    Irrep   Nso     Nmo     Nalpha   Nbeta   Ndocc  Nsocc
   -------------------------------------------------------
     Ag        35      35       0       0       0       0
     B1g       21      21       0       0       0       0
     B2g       21      21       0       0       0       0
     B3g       12      12       0       0       0       0
     Au        12      12       0       0       0       0
     B1u       21      21       0       0       0       0
     B2u       21      21       0       0       0       0
     B3u       35      35       0       0       0       0
   -------------------------------------------------------
    Total     178     178      17      17      17       0
   -------------------------------------------------------

  ==> Integral Setup <==

  DFHelper Memory: AOs need 0.101 GiB; user supplied 100.379 GiB. Using in-core AOs.

  ==> MemDFJK: Density-Fitted J/K Matrices <==

    J tasked:                   Yes
    K tasked:                   Yes
    wK tasked:                   No
    OpenMP threads:              24
    Memory [MiB]:            102788
    Algorithm:                 Core
    Schwarz Cutoff:           1E-12
    Mask sparsity (%):       0.1704
    Fitting Condition:        1E-10

   => Auxiliary Basis Set <=

  Basis Set: (AUG-CC-PV(Q+D)Z AUX)
    Blend: AUG-CC-PVQZ-JKFIT
    Number of shells: 92
    Number of basis function: 368
    Number of Cartesian functions: 494
    Spherical Harmonics?: true
    Max angular momentum: 5

  Cached 100.0% of DFT collocation blocks in 0.204 [GiB].

  Minimum eigenvalue in the overlap matrix is 1.0669347391E-04.
  Using Symmetric Orthogonalization.

  SCF Guess: Orbitals guess was supplied from a previous computation.

  ==> Iterations <==

                           Total Energy        Delta E     RMS |[F,P]|

   @DF-RKS iter   0:  -920.03634139341250   -9.20036e+02   2.89676e-04 
   @DF-RKS iter   1:  -920.03249400152811    3.84739e-03   5.02915e-05 DIIS
   @DF-RKS iter   2:  -920.03249593857629   -1.93705e-06   4.22589e-05 DIIS
   @DF-RKS iter   3:  -920.03249868256637   -2.74399e-06   1.69084e-06 DIIS
   @DF-RKS iter   4:  -920.03249868973194   -7.16557e-09   4.95287e-07 DIIS
   @DF-RKS iter   5:  -920.03249869022682   -4.94879e-10   1.54259e-07 DIIS
   @DF-RKS iter   6:  -920.03249869026774   -4.09273e-11   7.29902e-09 DIIS
  Energy and wave function converged.


  ==> Post-Iterations <==

    Orbital Energies [Eh]
    ---------------------

    Doubly Occupied:                                                      

       1Ag  -102.991911     1B3u -102.991911     2Ag    -9.975996  
       2B3u   -9.975896     3Ag    -7.618647     3B3u   -7.618455  
       1B1u   -7.609362     1B2u   -7.609362     1B2g   -7.609356  
       1B1g   -7.609356     4Ag    -1.053174     4B3u   -0.875457  
       5Ag    -0.526075     2B2u   -0.478003     2B1u   -0.478003  
       2B2g   -0.367367     2B1g   -0.367367  

    Virtual:                                                              

       5B3u   -0.064742     6B3u    0.048824     6Ag     0.049184  
       3B2u    0.067064     3B1u    0.067064     7Ag     0.084043  
       3B1g    0.094711     3B2g    0.094711     8Ag     0.164336  
       1B3g    0.164336     7B3u    0.173087     4B1u    0.208645  
       4B2u    0.208645     9Ag     0.256003     1Au     0.258851  
       8B3u    0.258851     9B3u    0.284851     4B1g    0.311486  
       4B2g    0.311486     5B2u    0.387667     5B1u    0.387667  
      10Ag     0.441105     6B1u    0.454942     6B2u    0.454942  
       5B2g    0.476883     5B1g    0.476883    10B3u    0.483836  
      11Ag     0.489869     2B3g    0.489869    12Ag     0.500118  
       2Au     0.565114    11B3u    0.565115    13Ag     0.602432  
       6B2g    0.656652     6B1g    0.656652     7B1u    0.669291  
       7B2u    0.669291    12B3u    0.700820     3B3g    0.732648  
      14Ag     0.732649     7B2g    0.809483     7B1g    0.809483  
      13B3u    0.935851     8B1u    0.948617     8B2u    0.948617  
       3Au     0.986803    14B3u    0.986804    15Ag     1.026650  
       8B2g    1.061992     8B1g    1.061992    15B3u    1.124574  
       9B1u    1.381024     9B2u    1.381024    16Ag     1.396841  
       4B3g    1.396842    16B3u    1.420874    17Ag     1.421807  
      17B3u    1.469006     4Au     1.469007     9B2g    1.477018  
       9B1g    1.477018    10B1u    1.579809    10B2u    1.579809  
      11B2u    1.613176    11B1u    1.613176    18Ag     1.617947  
       5B3g    1.663813    19Ag     1.663823     6B3g    1.667412  
      20Ag     1.667413    10B2g    1.796443    10B1g    1.796443  
       5Au     1.800364    18B3u    1.800375    12B1u    1.820129  
      12B2u    1.820129    13B1u    1.857290    13B2u    1.857290  
      11B1g    1.930969    11B2g    1.930969     7B3g    2.003030  
      21Ag     2.003035    22Ag     2.009477    12B1g    2.043525  
      12B2g    2.043525     6Au     2.056718    19B3u    2.056722  
      20B3u    2.093497    13B2g    2.142338    13B1g    2.142338  
      21B3u    2.302333    14B1u    2.331339    14B2u    2.331339  
      23Ag     2.397814    22B3u    2.454987     7Au     2.454988  
      23B3u    2.635787    24Ag     2.814852    14B2g    2.941648  
      14B1g    2.941648    24B3u    3.172133     8B3g    3.471702  
      25Ag     3.471750     8Au     3.541811    25B3u    3.541862  
      15B1u    3.550600    15B2u    3.550600    26Ag     3.634321  
      15B2g    3.725019    15B1g    3.725019    27Ag     4.225481  
      16B2u    4.326407    16B1u    4.326407    26B3u    4.350920  
      17B1u    4.409478    17B2u    4.409478    28Ag     4.420392  
       9B3g    4.420395    18B1u    4.441843    18B2u    4.441843  
      10B3g    4.442223    29Ag     4.442232    11B3g    4.453267  
      30Ag     4.453278    16B2g    4.463423    16B1g    4.463423  
       9Au     4.508667    27B3u    4.508682    28B3u    4.510023  
      29B3u    4.553502    10Au     4.553507    17B2g    4.600316  
      17B1g    4.600316    18B2g    4.625646    18B1g    4.625646  
      19B1u    4.650138    19B2u    4.650138    31Ag     4.800496  
      11Au     4.829073    30B3u    4.829081    19B2g    5.133129  
      19B1g    5.133129    31B3u    5.632373    20B1u    5.787898  
      20B2u    5.787898    20B2g    6.386391    20B1g    6.386391  
      32Ag     6.955732    32B3u    7.020351    12B3g   10.961881  
      33Ag    10.961943    21B1u   10.988571    21B2u   10.988571  
      12Au    11.017777    33B3u   11.017840    34Ag    11.138704  
      21B2g   11.227541    21B1g   11.227541    34B3u   11.683628  
      35Ag    22.823648    35B3u   25.596229  

    Final Occupation by Irrep:
             Ag   B1g   B2g   B3g    Au   B1u   B2u   B3u 
    DOCC [     5,    2,    2,    0,    0,    2,    2,    4 ]

  @DF-RKS Final Energy:  -920.03249869026774

   => Energetics <=

    Nuclear Repulsion Energy =             76.4008305513005439
    One-Electron Energy =               -1422.1759960393328583
    Two-Electron Energy =                 452.6426394530697621
    DFT Exchange-Correlation Energy =     -26.8989370253051128
    Empirical Dispersion Energy =          -0.0010356300000000
    VV10 Nonlocal Energy =                  0.0000000000000000
    Total Energy =                       -920.0324986902678575

Computation Completed


Properties will be evaluated at   0.000000,   0.000000,   0.000000 [a0]

Properties computed using the SCF density matrix

  Nuclear Dipole Moment: [e a0]
     X:     0.0000      Y:     0.0000      Z:     0.0000

  Electronic Dipole Moment: [e a0]
     X:     0.0000      Y:     0.0000      Z:     0.0000

  Dipole Moment: [e a0]
     X:     0.0000      Y:     0.0000      Z:     0.0000     Total:     0.0000

  Dipole Moment: [D]
     X:     0.0000      Y:     0.0000      Z:     0.0000     Total:     0.0000


*** tstop() called on bp1-compute00147.data.bp.acrc.priv at Mon Apr 19 15:34:52 2021
Module time:
	user time   =      24.94 seconds =       0.42 minutes
	system time =       1.16 seconds =       0.02 minutes
	total time  =          2 seconds =       0.03 minutes
Total time:
	user time   =     162.35 seconds =       2.71 minutes
	system time =       7.84 seconds =       0.13 minutes
	total time  =          9 seconds =       0.15 minutes

*** tstart() called on bp1-compute00147.data.bp.acrc.priv
*** at Mon Apr 19 15:34:52 2021

   => Loading Basis Set <=

    Name: (AUG-CC-PV(Q+D)Z AUX)
    Role: RIFIT
    Keyword: DF_BASIS_MP2
    atoms 1-2 entry CL         line   914 file /work/zw18965/.conda/envs/p4env/share/psi4/basis/aug-cc-pvqz-ri.gbs 

	 --------------------------------------------------------
	                          DF-MP2                         
	      2nd-Order Density-Fitted Moller-Plesset Theory     
	              RMP2 Wavefunction,  24 Threads             
	                                                         
	        Rob Parrish, Justin Turney, Andy Simmonett,      
	           Ed Hohenstein, and C. David Sherrill          
	 --------------------------------------------------------

   => Auxiliary Basis Set <=

  Basis Set: (AUG-CC-PV(Q+D)Z AUX)
    Blend: AUG-CC-PVQZ-RI
    Number of shells: 88
    Number of basis function: 388
    Number of Cartesian functions: 536
    Spherical Harmonics?: true
    Max angular momentum: 5

	 --------------------------------------------------------
	                 NBF =   178, NAUX =   388
	 --------------------------------------------------------
	   CLASS    FOCC     OCC    AOCC    AVIR     VIR    FVIR
	   PAIRS       0      17      17     161     161       0
	 --------------------------------------------------------

	-----------------------------------------------------------
	 ==================> DF-MP2 Energies <==================== 
	-----------------------------------------------------------
	 Reference Energy          =    -920.0324986902677438 [Eh]
	 Singles Energy            =      -0.0000000000000000 [Eh]
	 Same-Spin Energy          =      -0.2150859184158194 [Eh]
	 Opposite-Spin Energy      =      -0.5904175283383846 [Eh]
	 Correlation Energy        =      -0.8055034467542040 [Eh]
	 Total Energy              =    -920.8380021370219310 [Eh]
	-----------------------------------------------------------
	 ================> DF-SCS-MP2 Energies <================== 
	-----------------------------------------------------------
	 SCS Same-Spin Scale       =       0.3333333333333333 [-]
	 SCS Opposite-Spin Scale   =       1.2000000000000000 [-]
	 SCS Same-Spin Energy      =      -0.0716953061386065 [Eh]
	 SCS Opposite-Spin Energy  =      -0.7085010340060615 [Eh]
	 SCS Correlation Energy    =      -0.7801963401446679 [Eh]
	 SCS Total Energy          =    -920.8126950304124421 [Eh]
	-----------------------------------------------------------



    B2PLYP-D3BJ Energy Summary
    --------------------------
    DFT Reference Energy                  =  -920.0324986902677438
    Scaled MP2 Correlation                =    -0.2174859306236351
    @Final double-hybrid DFT total energy =  -920.2499846208913823


*** tstop() called on bp1-compute00147.data.bp.acrc.priv at Mon Apr 19 15:34:52 2021
Module time:
	user time   =      10.18 seconds =       0.17 minutes
	system time =       0.45 seconds =       0.01 minutes
	total time  =          0 seconds =       0.00 minutes
Total time:
	user time   =     172.54 seconds =       2.88 minutes
	system time =       8.29 seconds =       0.14 minutes
	total time  =          9 seconds =       0.15 minutes

  //>>>>>>>>>>>>>>>>>>>>>>>>>>>>>>>>>>>//
  //    Loading displacement 2 of 3    //
  //<<<<<<<<<<<<<<<<<<<<<<<<<<<<<<<<<<<//

*** tstart() called on bp1-compute00147.data.bp.acrc.priv
*** at Mon Apr 19 15:34:52 2021

   => Loading Basis Set <=

    Name: AUG-CC-PV(Q+D)Z
    Role: ORBITAL
    Keyword: BASIS
    atoms 1-2 entry CL         line  1246 file /work/zw18965/.conda/envs/p4env/share/psi4/basis/aug-cc-pv_qpd_z.gbs 


         ---------------------------------------------------------
                                   SCF
               by Justin Turney, Rob Parrish, Andy Simmonett
                          and Daniel G. A. Smith
                              RKS Reference
                       24 Threads, 137329 MiB Core
         ---------------------------------------------------------

  ==> Geometry <==

    Molecular point group: d2h
    Full point group: D_inf_h

    Geometry (in Angstrom), charge = 0, multiplicity = 1:

       Center              X                  Y                   Z               Mass       
    ------------   -----------------  -----------------  -----------------  -----------------
         CL          -1.001170778410    -0.000000000000     0.000000000000    34.968852682000
         CL           1.001170778410     0.000000000000     0.000000000000    34.968852682000

  Running in d2h symmetry.

  Rotational constants: A = ************  B =      0.24047  C =      0.24047 [cm^-1]
  Rotational constants: A = ************  B =   7209.24010  C =   7209.24010 [MHz]
  Nuclear repulsion =   76.376686765906143

  Charge       = 0
  Multiplicity = 1
  Electrons    = 34
  Nalpha       = 17
  Nbeta        = 17

  ==> Algorithm <==

  SCF Algorithm Type is DF.
  DIIS enabled.
  MOM disabled.
  Fractional occupation disabled.
  Guess Type is READ.
  Energy threshold   = 1.00e-08
  Density threshold  = 1.00e-08
  Integral threshold = 0.00e+00

  ==> Primary Basis <==

  Basis Set: AUG-CC-PV(Q+D)Z
    Blend: AUG-CC-PV(Q+D)Z
    Number of shells: 46
    Number of basis function: 178
    Number of Cartesian functions: 230
    Spherical Harmonics?: true
    Max angular momentum: 4

  ==> DFT Potential <==

   => Composite Functional: B2PLYP-D3BJ <= 

    B2PLYP Double Hybrid Exchange-Correlation Functional

    S. Grimme, J. Chem. Phys., 124, 034108, 2006


    Deriv               =              1
    GGA                 =           TRUE
    Meta                =          FALSE

    Exchange Hybrid     =           TRUE
    MP2 Hybrid          =           TRUE

   => Exchange Functionals <=

    0.4700     XC_GGA_X_B88

   => Exact (HF) Exchange <=

    0.5300               HF 

   => Correlation Functionals <=

    0.7300     XC_GGA_C_LYP

   => MP2 Correlation <=

    0.2700       MP2 

   => Molecular Quadrature <=

    Radial Scheme          =       TREUTLER
    Pruning Scheme         =           FLAT
    Nuclear Scheme         =       TREUTLER

    BS radius alpha        =              1
    Pruning alpha          =              1
    Radial Points          =             75
    Spherical Points       =            302
    Total Points           =          44898
    Total Blocks           =            411
    Max Points             =            256
    Max Functions          =            178

   => B2PLYP-D3(BJ): Empirical Dispersion <=

    Grimme's -D3 (BJ-damping) Dispersion Correction
    Grimme S.; Ehrlich S.; Goerigk L. (2011), J. Comput. Chem., 32: 1456
    Parametrisation from:    L. Goerigk, S. Grimme, Phys. Chem. Chem. Phys. 13, 6670-6688, 2011

        s6 =       0.640000
        s8 =       0.914700
        a1 =       0.306500
        a2 =       5.057000

   => Loading Basis Set <=

    Name: (AUG-CC-PV(Q+D)Z AUX)
    Role: JKFIT
    Keyword: DF_BASIS_SCF
    atoms 1-2 entry CL         line   904 file /work/zw18965/.conda/envs/p4env/share/psi4/basis/aug-cc-pvqz-jkfit.gbs 

   => Loading Basis Set <=

    Name: AUG-CC-PV(Q+D)Z
    Role: ORBITAL
    Keyword: BASIS
    atoms 1-2 entry CL         line  1246 file /work/zw18965/.conda/envs/p4env/share/psi4/basis/aug-cc-pv_qpd_z.gbs 

  Reading orbitals from file 180, no projection.

  ==> Pre-Iterations <==

   -------------------------------------------------------
    Irrep   Nso     Nmo     Nalpha   Nbeta   Ndocc  Nsocc
   -------------------------------------------------------
     Ag        35      35       0       0       0       0
     B1g       21      21       0       0       0       0
     B2g       21      21       0       0       0       0
     B3g       12      12       0       0       0       0
     Au        12      12       0       0       0       0
     B1u       21      21       0       0       0       0
     B2u       21      21       0       0       0       0
     B3u       35      35       0       0       0       0
   -------------------------------------------------------
    Total     178     178      17      17      17       0
   -------------------------------------------------------

  ==> Integral Setup <==

  DFHelper Memory: AOs need 0.101 GiB; user supplied 100.379 GiB. Using in-core AOs.

  ==> MemDFJK: Density-Fitted J/K Matrices <==

    J tasked:                   Yes
    K tasked:                   Yes
    wK tasked:                   No
    OpenMP threads:              24
    Memory [MiB]:            102788
    Algorithm:                 Core
    Schwarz Cutoff:           1E-12
    Mask sparsity (%):       0.1704
    Fitting Condition:        1E-10

   => Auxiliary Basis Set <=

  Basis Set: (AUG-CC-PV(Q+D)Z AUX)
    Blend: AUG-CC-PVQZ-JKFIT
    Number of shells: 92
    Number of basis function: 368
    Number of Cartesian functions: 494
    Spherical Harmonics?: true
    Max angular momentum: 5

  Cached 100.0% of DFT collocation blocks in 0.204 [GiB].

  Minimum eigenvalue in the overlap matrix is 1.0684826159E-04.
  Using Symmetric Orthogonalization.

  SCF Guess: Orbitals guess was supplied from a previous computation.

  ==> Iterations <==

                           Total Energy        Delta E     RMS |[F,P]|

   @DF-RKS iter   0:  -920.03221708684725   -9.20032e+02   2.07314e-05 
   @DF-RKS iter   1:  -920.03249225043271   -2.75164e-04   3.57886e-06 DIIS
   @DF-RKS iter   2:  -920.03249226027037   -9.83766e-09   3.00427e-06 DIIS
   @DF-RKS iter   3:  -920.03249227412948   -1.38591e-08   1.21160e-07 DIIS
   @DF-RKS iter   4:  -920.03249227416609   -3.66072e-11   3.55919e-08 DIIS
   @DF-RKS iter   5:  -920.03249227416882   -2.72848e-12   1.10208e-08 DIIS
   @DF-RKS iter   6:  -920.03249227416825    5.68434e-13   5.17257e-10 DIIS
  Energy and wave function converged.


  ==> Post-Iterations <==

    Orbital Energies [Eh]
    ---------------------

    Doubly Occupied:                                                      

       1Ag  -102.991940     1B3u -102.991940     2Ag    -9.976016  
       2B3u   -9.975916     3Ag    -7.618668     3B3u   -7.618476  
       1B1u   -7.609382     1B2u   -7.609382     1B1g   -7.609376  
       1B2g   -7.609376     4Ag    -1.053006     4B3u   -0.875527  
       5Ag    -0.525991     2B2u   -0.477925     2B1u   -0.477925  
       2B1g   -0.367426     2B2g   -0.367426  

    Virtual:                                                              

       5B3u   -0.064935     6B3u    0.048805     6Ag     0.049183  
       3B2u    0.067069     3B1u    0.067069     7Ag     0.084052  
       3B2g    0.094709     3B1g    0.094709     8Ag     0.164347  
       1B3g    0.164348     7B3u    0.173081     4B2u    0.208622  
       4B1u    0.208622     9Ag     0.256030     1Au     0.258829  
       8B3u    0.258829     9B3u    0.284794     4B1g    0.311483  
       4B2g    0.311483     5B2u    0.387687     5B1u    0.387687  
      10Ag     0.441151     6B1u    0.454960     6B2u    0.454960  
       5B1g    0.476881     5B2g    0.476881    10B3u    0.483870  
      11Ag     0.489911     2B3g    0.489911    12Ag     0.500143  
       2Au     0.565084    11B3u    0.565085    13Ag     0.602303  
       6B1g    0.656532     6B2g    0.656532     7B1u    0.669312  
       7B2u    0.669312    12B3u    0.700626     3B3g    0.732566  
      14Ag     0.732567     7B2g    0.809437     7B1g    0.809437  
      13B3u    0.935722     8B2u    0.948518     8B1u    0.948518  
       3Au     0.986729    14B3u    0.986730    15Ag     1.026683  
       8B1g    1.061979     8B2g    1.061979    15B3u    1.124540  
       9B1u    1.381075     9B2u    1.381075    16Ag     1.396848  
       4B3g    1.396848    16B3u    1.420834    17Ag     1.421914  
      17B3u    1.468954     4Au     1.468955     9B1g    1.477222  
       9B2g    1.477222    10B2u    1.579799    10B1u    1.579799  
      11B1u    1.613132    11B2u    1.613132    18Ag     1.617891  
       5B3g    1.663881    19Ag     1.663892     6B3g    1.667342  
      20Ag     1.667342    10B2g    1.796095    10B1g    1.796095  
       5Au     1.800289    18B3u    1.800300    12B2u    1.819854  
      12B1u    1.819854    13B1u    1.857314    13B2u    1.857314  
      11B2g    1.930904    11B1g    1.930904     7B3g    2.002855  
      21Ag     2.002860    22Ag     2.009312    12B2g    2.043327  
      12B1g    2.043327     6Au     2.056621    19B3u    2.056625  
      20B3u    2.093318    13B2g    2.142238    13B1g    2.142238  
      21B3u    2.301952    14B2u    2.331122    14B1u    2.331122  
      23Ag     2.396937    22B3u    2.454592     7Au     2.454593  
      23B3u    2.636157    24Ag     2.814752    14B2g    2.941411  
      14B1g    2.941411    24B3u    3.172015     8B3g    3.471720  
      25Ag     3.471768     8Au     3.541771    25B3u    3.541821  
      15B1u    3.550542    15B2u    3.550542    26Ag     3.634706  
      15B2g    3.724710    15B1g    3.724710    27Ag     4.225821  
      16B2u    4.327087    16B1u    4.327087    26B3u    4.349788  
      17B1u    4.409494    17B2u    4.409494    28Ag     4.420269  
       9B3g    4.420272    18B2u    4.441895    18B1u    4.441895  
[...]
    Pruning Scheme         =           FLAT
    Nuclear Scheme         =       TREUTLER

    BS radius alpha        =              1
    Pruning alpha          =              1
    Radial Points          =             75
    Spherical Points       =            302
    Total Points           =          44898
    Total Blocks           =            413
    Max Points             =            254
    Max Functions          =            178

   => B2PLYP-D3(BJ): Empirical Dispersion <=

    Grimme's -D3 (BJ-damping) Dispersion Correction
    Grimme S.; Ehrlich S.; Goerigk L. (2011), J. Comput. Chem., 32: 1456
    Parametrisation from:    L. Goerigk, S. Grimme, Phys. Chem. Chem. Phys. 13, 6670-6688, 2011

        s6 =       0.640000
        s8 =       0.914700
        a1 =       0.306500
        a2 =       5.057000

   => Loading Basis Set <=

    Name: (AUG-CC-PV(Q+D)Z AUX)
    Role: JKFIT
    Keyword: DF_BASIS_SCF
    atoms 1-2 entry CL         line   904 file /work/zw18965/.conda/envs/p4env/share/psi4/basis/aug-cc-pvqz-jkfit.gbs 

  ==> Pre-Iterations <==

   -------------------------------------------------------
    Irrep   Nso     Nmo     Nalpha   Nbeta   Ndocc  Nsocc
   -------------------------------------------------------
     Ag        35      35       0       0       0       0
     B1g       21      21       0       0       0       0
     B2g       21      21       0       0       0       0
     B3g       12      12       0       0       0       0
     Au        12      12       0       0       0       0
     B1u       21      21       0       0       0       0
     B2u       21      21       0       0       0       0
     B3u       35      35       0       0       0       0
   -------------------------------------------------------
    Total     178     178      17      17      17       0
   -------------------------------------------------------

  ==> Integral Setup <==

  DFHelper Memory: AOs need 0.101 GiB; user supplied 100.379 GiB. Using in-core AOs.

  ==> MemDFJK: Density-Fitted J/K Matrices <==

    J tasked:                   Yes
    K tasked:                   Yes
    wK tasked:                   No
    OpenMP threads:              24
    Memory [MiB]:            102788
    Algorithm:                 Core
    Schwarz Cutoff:           1E-12
    Mask sparsity (%):       0.1704
    Fitting Condition:        1E-10

   => Auxiliary Basis Set <=

  Basis Set: (AUG-CC-PV(Q+D)Z AUX)
    Blend: AUG-CC-PVQZ-JKFIT
    Number of shells: 92
    Number of basis function: 368
    Number of Cartesian functions: 494
    Spherical Harmonics?: true
    Max angular momentum: 5

  Cached 100.0% of DFT collocation blocks in 0.204 [GiB].

  Minimum eigenvalue in the overlap matrix is 1.0502306963E-04.
  Using Symmetric Orthogonalization.

  SCF Guess: Superposition of Atomic Densities via on-the-fly atomic UHF.

  ==> Iterations <==

                           Total Energy        Delta E     RMS |[F,P]|

   @DF-RKS iter SAD:  -919.91424646805922   -9.19914e+02   0.00000e+00 
   @DF-RKS iter   1:  -920.02166213529995   -1.07416e-01   3.12124e-03 DIIS
   @DF-RKS iter   2:  -920.03047396405964   -8.81183e-03   1.35380e-03 DIIS
   @DF-RKS iter   3:  -920.03244891551151   -1.97495e-03   2.36357e-04 DIIS
   @DF-RKS iter   4:  -920.03253945672429   -9.05412e-05   6.48686e-05 DIIS
   @DF-RKS iter   5:  -920.03254859467688   -9.13795e-06   8.93057e-06 DIIS
   @DF-RKS iter   6:  -920.03254887390551   -2.79229e-07   8.40691e-07 DIIS
   @DF-RKS iter   7:  -920.03254887595222   -2.04670e-09   8.17607e-08 DIIS
   @DF-RKS iter   8:  -920.03254887597325   -2.10321e-11   9.86360e-09 DIIS
   @DF-RKS iter   9:  -920.03254887597348   -2.27374e-13   7.57170e-10 DIIS
   @DF-RKS iter  10:  -920.03254887597302    4.54747e-13   2.77623e-11 DIIS
  Energy and wave function converged.


  ==> Post-Iterations <==

    Orbital Energies [Eh]
    ---------------------

    Doubly Occupied:                                                      

       1Ag  -102.991593     1B3u -102.991592     2Ag    -9.975780  
       2B3u   -9.975677     3Ag    -7.618424     3B3u   -7.618223  
       1B1u   -7.609147     1B2u   -7.609147     1B2g   -7.609140  
       1B1g   -7.609140     4Ag    -1.055015     4B3u   -0.874694  
       5Ag    -0.526988     2B1u   -0.478852     2B2u   -0.478852  
       2B2g   -0.366722     2B1g   -0.366722  

    Virtual:                                                              

       5B3u   -0.062642     6B3u    0.049032     6Ag     0.049193  
       3B1u    0.067002     3B2u    0.067002     7Ag     0.083936  
       3B1g    0.094729     3B2g    0.094729     8Ag     0.164209  
       1B3g    0.164210     7B3u    0.173158     4B2u    0.208902  
       4B1u    0.208902     9Ag     0.255702     1Au     0.259091  
       8B3u    0.259092     9B3u    0.285478     4B1g    0.311518  
       4B2g    0.311518     5B2u    0.387443     5B1u    0.387443  
      10Ag     0.440610     6B2u    0.454751     6B1u    0.454751  
       5B1g    0.476902     5B2g    0.476902    10B3u    0.483469  
      11Ag     0.489402     2B3g    0.489402    12Ag     0.499852  
       2Au     0.565442    11B3u    0.565442    13Ag     0.603836  
       6B1g    0.657961     6B2g    0.657961     7B1u    0.669061  
       7B2u    0.669061    12B3u    0.702942     3B3g    0.733543  
      14Ag     0.733544     7B1g    0.809994     7B2g    0.809994  
      13B3u    0.937255     8B1u    0.949688     8B2u    0.949688  
       3Au     0.987606    14B3u    0.987607    15Ag     1.026285  
       8B1g    1.062140     8B2g    1.062140    15B3u    1.124941  
       9B1u    1.380464     9B2u    1.380464    16Ag     1.396762  
       4B3g    1.396762    17Ag     1.420647    16B3u    1.421340  
      17B3u    1.469581     4Au     1.469582     9B1g    1.474796  
       9B2g    1.474796    10B2u    1.579914    10B1u    1.579914  
      11B2u    1.613660    11B1u    1.613660    18Ag     1.618561  
       5B3g    1.663067    19Ag     1.663077     6B3g    1.668184  
      20Ag     1.668184    10B1g    1.800235    10B2g    1.800235  
       5Au     1.801176    18B3u    1.801187    12B1u    1.823129  
      12B2u    1.823129    13B1u    1.857039    13B2u    1.857039  
      11B2g    1.931680    11B1g    1.931680     7B3g    2.004934  
      21Ag     2.004939    22Ag     2.011272    12B1g    2.045689  
      12B2g    2.045689     6Au     2.057761    19B3u    2.057766  
      20B3u    2.095432    13B1g    2.143437    13B2g    2.143437  
      21B3u    2.306486    14B1u    2.333716    14B2u    2.333716  
      23Ag     2.407323    22B3u    2.459292     7Au     2.459293  
      23B3u    2.631776    24Ag     2.815973    14B1g    2.944116  
      14B2g    2.944116    24B3u    3.173413     8B3g    3.471499  
      25Ag     3.471546     8Au     3.542252    25B3u    3.542303  
      15B1u    3.551239    15B2u    3.551239    26Ag     3.630250  
      15B2g    3.728483    15B1g    3.728483    27Ag     4.221792  
      16B2u    4.319037    16B1u    4.319037    26B3u    4.363115  
      17B1u    4.409301    17B2u    4.409301    28Ag     4.421729  
       9B3g    4.421733    10B3g    4.437472    29Ag     4.437482  
      18B2u    4.441255    18B1u    4.441255    11B3g    4.453034  
      30Ag     4.453040    16B2g    4.463617    16B1g    4.463617  
       9Au     4.508926    27B3u    4.508935    28B3u    4.511645  
      29B3u    4.554761    10Au     4.554767    17B1g    4.601894  
      17B2g    4.601894    18B1g    4.627440    18B2g    4.627440  
      19B1u    4.655092    19B2u    4.655092    31Ag     4.804889  
      11Au     4.834684    30B3u    4.834693    19B1g    5.141151  
      19B2g    5.141151    31B3u    5.649272    20B2u    5.788802  
      20B1u    5.788802    20B1g    6.395507    20B2g    6.395507  
      32Ag     6.968989    32B3u    7.012393    12B3g   10.961865  
      33Ag    10.961928    21B1u   10.989516    21B2u   10.989516  
      12Au    11.018465    33B3u   11.018528    34Ag    11.142992  
      21B2g   11.231084    21B1g   11.231084    34B3u   11.689880  
      35Ag    22.824207    35B3u   25.657226  

    Final Occupation by Irrep:
             Ag   B1g   B2g   B3g    Au   B1u   B2u   B3u 
    DOCC [     5,    2,    2,    0,    0,    2,    2,    4 ]

  @DF-RKS Final Energy:  -920.03254887597302

   => Energetics <=

    Nuclear Repulsion Energy =             76.6641863746640837
    One-Electron Energy =               -1422.7019719894719856
    Two-Electron Energy =                 452.9064411317426675
    DFT Exchange-Correlation Energy =     -26.9001684329076483
    Empirical Dispersion Energy =          -0.0010359600000000
    VV10 Nonlocal Energy =                  0.0000000000000000
    Total Energy =                       -920.0325488759729069

Computation Completed


Properties will be evaluated at   0.000000,   0.000000,   0.000000 [a0]

Properties computed using the SCF density matrix

  Nuclear Dipole Moment: [e a0]
     X:     0.0000      Y:    -0.0000      Z:     0.0000

  Electronic Dipole Moment: [e a0]
     X:     0.0000      Y:     0.0000      Z:     0.0000

  Dipole Moment: [e a0]
     X:     0.0000      Y:    -0.0000      Z:     0.0000     Total:     0.0000

  Dipole Moment: [D]
     X:     0.0000      Y:    -0.0000      Z:     0.0000     Total:     0.0000


*** tstop() called on bp1-compute00147.data.bp.acrc.priv at Mon Apr 19 15:35:16 2021
Module time:
	user time   =      36.14 seconds =       0.60 minutes
	system time =       1.28 seconds =       0.02 minutes
	total time  =          2 seconds =       0.03 minutes
Total time:
	user time   =     609.60 seconds =      10.16 minutes
	system time =      26.26 seconds =       0.44 minutes
	total time  =         33 seconds =       0.55 minutes

*** tstart() called on bp1-compute00147.data.bp.acrc.priv
*** at Mon Apr 19 15:35:16 2021

   => Loading Basis Set <=

    Name: (AUG-CC-PV(Q+D)Z AUX)
    Role: RIFIT
    Keyword: DF_BASIS_MP2
    atoms 1-2 entry CL         line   914 file /work/zw18965/.conda/envs/p4env/share/psi4/basis/aug-cc-pvqz-ri.gbs 

	 --------------------------------------------------------
	                          DF-MP2                         
	      2nd-Order Density-Fitted Moller-Plesset Theory     
	              RMP2 Wavefunction,  24 Threads             
	                                                         
	        Rob Parrish, Justin Turney, Andy Simmonett,      
	           Ed Hohenstein, and C. David Sherrill          
	 --------------------------------------------------------

   => Auxiliary Basis Set <=

  Basis Set: (AUG-CC-PV(Q+D)Z AUX)
    Blend: AUG-CC-PVQZ-RI
    Number of shells: 88
    Number of basis function: 388
    Number of Cartesian functions: 536
    Spherical Harmonics?: true
    Max angular momentum: 5

	 --------------------------------------------------------
	                 NBF =   178, NAUX =   388
	 --------------------------------------------------------
	   CLASS    FOCC     OCC    AOCC    AVIR     VIR    FVIR
	   PAIRS       0      17      17     161     161       0
	 --------------------------------------------------------

	-----------------------------------------------------------
	 ==================> DF-MP2 Energies <==================== 
	-----------------------------------------------------------
	 Reference Energy          =    -920.0325488759730206 [Eh]
	 Singles Energy            =      -0.0000000000000000 [Eh]
	 Same-Spin Energy          =      -0.2151553226170592 [Eh]
	 Opposite-Spin Energy      =      -0.5902100854525711 [Eh]
	 Correlation Energy        =      -0.8053654080696304 [Eh]
	 Total Energy              =    -920.8379142840426539 [Eh]
	-----------------------------------------------------------
	 ================> DF-SCS-MP2 Energies <================== 
	-----------------------------------------------------------
	 SCS Same-Spin Scale       =       0.3333333333333333 [-]
	 SCS Opposite-Spin Scale   =       1.2000000000000000 [-]
	 SCS Same-Spin Energy      =      -0.0717184408723531 [Eh]
	 SCS Opposite-Spin Energy  =      -0.7082521025430853 [Eh]
	 SCS Correlation Energy    =      -0.7799705434154385 [Eh]
	 SCS Total Energy          =    -920.8125194193884226 [Eh]
	-----------------------------------------------------------



    B2PLYP-D3BJ Energy Summary
    --------------------------
    DFT Reference Energy                  =  -920.0325488759730206
    Scaled MP2 Correlation                =    -0.2174486601788002
    @Final double-hybrid DFT total energy =  -920.2499975361517954


*** tstop() called on bp1-compute00147.data.bp.acrc.priv at Mon Apr 19 15:35:17 2021
Module time:
	user time   =      10.45 seconds =       0.17 minutes
	system time =       0.44 seconds =       0.01 minutes
	total time  =          1 seconds =       0.02 minutes
Total time:
	user time   =     620.06 seconds =      10.33 minutes
	system time =      26.70 seconds =       0.45 minutes
	total time  =         34 seconds =       0.57 minutes

         ----------------------------------------------------------
                                   FINDIF
                     R. A. King and Jonathon Misiewicz
         ---------------------------------------------------------

  Computing second-derivative from energies using projected, 
  symmetry-adapted, cartesian coordinates.

  3 energies passed in, including the reference geometry.
    Using 3-point formula.
    Energy without displacement: -920.2499977941
    Check energies below for precision!
    0: -1 :      -920.2499977565
    0: 1  :      -920.2499975362

-------------------------------------------------------------


  ==> Harmonic Vibrational Analysis <==

  non-mass-weighted Hessian:       Symmetric? True   Hermitian? True   Lin Dep Dim?  5 (0)
  projection of translations (True) and rotations (True) removed 5 degrees of freedom (5)
  total projector:                 Symmetric? True   Hermitian? True   Lin Dep Dim?  5 (5)
  mass-weighted Hessian:           Symmetric? True   Hermitian? True   Lin Dep Dim?  5 (0)
  pre-proj  low-frequency mode:    0.0000  [cm^-1]
  pre-proj  low-frequency mode:    0.0000  [cm^-1]
  pre-proj  low-frequency mode:    0.0000  [cm^-1]
  pre-proj  low-frequency mode:    0.0000  [cm^-1]
  pre-proj  low-frequency mode:    0.0000  [cm^-1]
  pre-proj  all modes:['0.0000' '0.0000' '0.0000' '0.0000' '0.0000' '558.9026']
  projected mass-weighted Hessian: Symmetric? True   Hermitian? True   Lin Dep Dim?  5 (5)
  post-proj low-frequency mode:    0.0000i [cm^-1] (TR)
  post-proj low-frequency mode:    0.0000i [cm^-1] (TR)
  post-proj low-frequency mode:    0.0000i [cm^-1] (TR)
  post-proj low-frequency mode:    0.0000  [cm^-1] (TR)
  post-proj low-frequency mode:    0.0000  [cm^-1] (TR)
  post-proj  all modes:['0.0000i' '0.0000i' '0.0000i' '0.0000' '0.0000' '558.9026']

  Vibration                       6           
  Freq [cm^-1]                 558.9026       
  Irrep                           Ag          
  Reduced mass [u]             34.9689        
  Force const [mDyne/A]         6.4358        
  Turning point v=0 [a0]        0.0785        
  RMS dev v=0 [a0 u^1/2]        0.3282        
  Char temp [K]                804.1364       
  ----------------------------------------------------------------------------------
      1   CL               0.71  0.00  0.00   
      2   CL              -0.71 -0.00  0.00   

  ==> Thermochemistry Components <==

  Entropy, S
    Electronic S            0.000 [cal/(mol K)]        0.000 [J/(mol K)]       0.00000000 [mEh/K] (multiplicity = 1)
    Translational S        38.652 [cal/(mol K)]      161.721 [J/(mol K)]       0.06159614 [mEh/K] (mol. weight = 69.9377 [u], P = 101325.00 [Pa])
    Rotational S           14.028 [cal/(mol K)]       58.691 [J/(mol K)]       0.02235425 [mEh/K] (symmetry no. = 2)
    Vibrational S           0.526 [cal/(mol K)]        2.201 [J/(mol K)]       0.00083828 [mEh/K]
  Total S                  53.206 [cal/(mol K)]      222.613 [J/(mol K)]       0.08478867 [mEh/K]
  Correction S              0.000 [cal/(mol K)]        0.000 [J/(mol K)]       0.00000000 [mEh/K]

  Constant volume heat capacity, Cv
    Electronic Cv           0.000 [cal/(mol K)]        0.000 [J/(mol K)]       0.00000000 [mEh/K]
    Translational Cv        2.981 [cal/(mol K)]       12.472 [J/(mol K)]       0.00475022 [mEh/K]
    Rotational Cv           1.987 [cal/(mol K)]        8.314 [J/(mol K)]       0.00316681 [mEh/K]
    Vibrational Cv          1.120 [cal/(mol K)]        4.687 [J/(mol K)]       0.00178522 [mEh/K]
  Total Cv                  6.088 [cal/(mol K)]       25.473 [J/(mol K)]       0.00970225 [mEh/K]
  Correction Cv             0.000 [cal/(mol K)]        0.000 [J/(mol K)]       0.00000000 [mEh/K]

  Constant pressure heat capacity, Cp
    Electronic Cp           0.000 [cal/(mol K)]        0.000 [J/(mol K)]       0.00000000 [mEh/K]
    Translational Cp        4.968 [cal/(mol K)]       20.786 [J/(mol K)]       0.00791703 [mEh/K]
    Rotational Cp           1.987 [cal/(mol K)]        8.314 [J/(mol K)]       0.00316681 [mEh/K]
    Vibrational Cp          1.120 [cal/(mol K)]        4.687 [J/(mol K)]       0.00178522 [mEh/K]
  Total Cp                  8.075 [cal/(mol K)]       33.788 [J/(mol K)]       0.01286906 [mEh/K]
  Correction Cp             0.000 [cal/(mol K)]        0.000 [J/(mol K)]       0.00000000 [mEh/K]

  ==> Thermochemistry Energy Analysis <==

  Raw electronic energy, E0
  Total E0, Electronic energy at well bottom at 0 [K]                 -920.24999779 [Eh]

  Zero-point energy, ZPE_vib = Sum_i nu_i / 2
    Electronic ZPE          0.000 [kcal/mol]        0.000 [kJ/mol]       0.00000000 [Eh]
    Translational ZPE       0.000 [kcal/mol]        0.000 [kJ/mol]       0.00000000 [Eh]
    Rotational ZPE          0.000 [kcal/mol]        0.000 [kJ/mol]       0.00000000 [Eh]
    Vibrational ZPE         0.799 [kcal/mol]        3.343 [kJ/mol]       0.00127327 [Eh]         279.451 [cm^-1]
  Correction ZPE            0.799 [kcal/mol]        3.343 [kJ/mol]       0.00127327 [Eh]         279.451 [cm^-1]
  Total ZPE, Electronic energy at 0 [K]                               -920.24872452 [Eh]

  Thermal Energy, E (includes ZPE)
    Electronic E            0.000 [kcal/mol]        0.000 [kJ/mol]       0.00000000 [Eh]
    Translational E         0.889 [kcal/mol]        3.718 [kJ/mol]       0.00141628 [Eh]
    Rotational E            0.592 [kcal/mol]        2.479 [kJ/mol]       0.00094418 [Eh]
    Vibrational E           0.914 [kcal/mol]        3.826 [kJ/mol]       0.00145732 [Eh]
  Correction E              2.396 [kcal/mol]       10.024 [kJ/mol]       0.00381778 [Eh]
  Total E, Electronic energy at  298.15 [K]                           -920.24618001 [Eh]

  Enthalpy, H_trans = E_trans + k_B * T
    Electronic H            0.000 [kcal/mol]        0.000 [kJ/mol]       0.00000000 [Eh]
    Translational H         1.481 [kcal/mol]        6.197 [kJ/mol]       0.00236046 [Eh]
    Rotational H            0.592 [kcal/mol]        2.479 [kJ/mol]       0.00094418 [Eh]
    Vibrational H           0.914 [kcal/mol]        3.826 [kJ/mol]       0.00145732 [Eh]
  Correction H              2.988 [kcal/mol]       12.503 [kJ/mol]       0.00476197 [Eh]
  Total H, Enthalpy at  298.15 [K]                                    -920.24523583 [Eh]

  Gibbs free energy, G = H - T * S
    Electronic G            0.000 [kcal/mol]        0.000 [kJ/mol]       0.00000000 [Eh]
    Translational G       -10.043 [kcal/mol]      -42.020 [kJ/mol]      -0.01600443 [Eh]
    Rotational G           -3.590 [kcal/mol]      -15.020 [kJ/mol]      -0.00572074 [Eh]
    Vibrational G           0.758 [kcal/mol]        3.170 [kJ/mol]       0.00120739 [Eh]
  Correction G            -12.875 [kcal/mol]      -53.869 [kJ/mol]      -0.02051777 [Eh]
  Total G, Free enthalpy at  298.15 [K]                               -920.27051557 [Eh]

    Psi4 stopped on: Monday, 19 April 2021 03:35PM
    Psi4 wall time for execution: 0:00:36.28

*** Psi4 exiting successfully. Buy a developer a beer!
