
    -----------------------------------------------------------------------
          Psi4: An Open-Source Ab Initio Electronic Structure Package
                               Psi4 1.3.2 release

                         Git: Rev {HEAD} ecbda83 


    R. M. Parrish, L. A. Burns, D. G. A. Smith, A. C. Simmonett,
    A. E. DePrince III, E. G. Hohenstein, U. Bozkaya, A. Yu. Sokolov,
    R. Di Remigio, R. M. Richard, J. F. Gonthier, A. M. James,
    H. R. McAlexander, A. Kumar, M. Saitow, X. Wang, B. P. Pritchard,
    P. Verma, H. F. Schaefer III, K. Patkowski, R. A. King, E. F. Valeev,
    F. A. Evangelista, J. M. Turney, T. D. Crawford, and C. D. Sherrill,
    J. Chem. Theory Comput. 13(7) pp 3185--3197 (2017).
    (doi: 10.1021/acs.jctc.7b00174)


                         Additional Contributions by
    P. Kraus, H. Kruse, M. H. Lechner, M. C. Schieber, R. A. Shaw,
    A. Alenaizan, R. Galvelis, Z. L. Glick, S. Lehtola, and J. P. Misiewicz

    -----------------------------------------------------------------------


    Psi4 started on: Monday, 19 April 2021 03:34PM

    Process ID: 42497
    Host:       bp1-compute00190.data.bp.acrc.priv
    PSIDATADIR: /work/zw18965/.conda/envs/p4env/share/psi4
    Memory:     500.0 MiB
    Threads:    24
    
  ==> Input File <==

--------------------------------------------------------------------------
memory 144 GB

molecule {
0 1
Cl    0.834210788250   0.000000000000   0.000000000000
F    -0.834210788250   0.000000000000   0.000000000000}

set basis aug-cc-pV(Q+d)Z
 
optimize("B2PLYP-D3BJ")
frequencies("B2PLYP-D3BJ")--------------------------------------------------------------------------

  Memory set to 134.110 GiB by Python driver.
gradient() will perform gradient computation by finite difference of analytic energies.

         ----------------------------------------------------------
                                   FINDIF
                     R. A. King and Jonathon Misiewicz
         ---------------------------------------------------------

  Using finite-differences of energies to determine gradients.
    Generating geometries for use with 3-point formula.
    Displacement size will be 5.00e-03.
    Number of atoms is 2.
    Number of symmetric SALCs is 1.
    Translations projected? 1. Rotations projected? 1.
    Number of geometries (including reference) is 3.

  //>>>>>>>>>>>>>>>>>>>>>>>>>>>>>>>>>>>//
  //    Loading displacement 1 of 3    //
  //<<<<<<<<<<<<<<<<<<<<<<<<<<<<<<<<<<<//

*** tstart() called on bp1-compute00190.data.bp.acrc.priv
*** at Mon Apr 19 15:34:43 2021

   => Loading Basis Set <=

    Name: AUG-CC-PV(Q+D)Z
    Role: ORBITAL
    Keyword: BASIS
    atoms 1 entry CL         line  1246 file /work/zw18965/.conda/envs/p4env/share/psi4/basis/aug-cc-pv_qpd_z.gbs 
    atoms 2 entry F          line   499 file /work/zw18965/.conda/envs/p4env/share/psi4/basis/aug-cc-pv_qpd_z.gbs 


         ---------------------------------------------------------
                                   SCF
               by Justin Turney, Rob Parrish, Andy Simmonett
                          and Daniel G. A. Smith
                              RKS Reference
                       24 Threads, 137329 MiB Core
         ---------------------------------------------------------

  ==> Geometry <==

    Molecular point group: c2v
    Full point group: C_inf_v

    Geometry (in Angstrom), charge = 0, multiplicity = 1:

       Center              X                  Y                   Z               Mass       
    ------------   -----------------  -----------------  -----------------  -----------------
         CL           0.000000000000     0.000000000000     0.587344034074    34.968852682000
         F            0.000000000000     0.000000000000    -1.081077542426    18.998403162730

  Running in c2v symmetry.

  Rotational constants: A = ************  B =      0.49195  C =      0.49195 [cm^-1]
  Rotational constants: A = ************  B =  14748.14696  C =  14748.14696 [MHz]
  Nuclear repulsion =   48.527371242917987

  Charge       = 0
  Multiplicity = 1
  Electrons    = 26
  Nalpha       = 13
  Nbeta        = 13

  ==> Algorithm <==

  SCF Algorithm Type is DF.
  DIIS enabled.
  MOM disabled.
  Fractional occupation disabled.
  Guess Type is SAD.
  Energy threshold   = 1.00e-08
  Density threshold  = 1.00e-08
  Integral threshold = 0.00e+00

  ==> Primary Basis <==

  Basis Set: AUG-CC-PV(Q+D)Z
    Blend: AUG-CC-PV(Q+D)Z
    Number of shells: 43
    Number of basis function: 169
    Number of Cartesian functions: 220
    Spherical Harmonics?: true
    Max angular momentum: 4

  ==> DFT Potential <==

   => Composite Functional: B2PLYP-D3BJ <= 

    B2PLYP Double Hybrid Exchange-Correlation Functional

    S. Grimme, J. Chem. Phys., 124, 034108, 2006


    Deriv               =              1
    GGA                 =           TRUE
    Meta                =          FALSE

    Exchange Hybrid     =           TRUE
    MP2 Hybrid          =           TRUE

   => Exchange Functionals <=

    0.4700     XC_GGA_X_B88

   => Exact (HF) Exchange <=

    0.5300               HF 

   => Correlation Functionals <=

    0.7300     XC_GGA_C_LYP

   => MP2 Correlation <=

    0.2700       MP2 

   => Molecular Quadrature <=

    Radial Scheme          =       TREUTLER
    Pruning Scheme         =           FLAT
    Nuclear Scheme         =       TREUTLER

    BS radius alpha        =              1
    Pruning alpha          =              1
    Radial Points          =             75
    Spherical Points       =            302
    Total Points           =          45099
    Total Blocks           =            423
    Max Points             =            255
    Max Functions          =            169

   => B2PLYP-D3(BJ): Empirical Dispersion <=

    Grimme's -D3 (BJ-damping) Dispersion Correction
    Grimme S.; Ehrlich S.; Goerigk L. (2011), J. Comput. Chem., 32: 1456
    Parametrisation from:    L. Goerigk, S. Grimme, Phys. Chem. Chem. Phys. 13, 6670-6688, 2011

        s6 =       0.640000
        s8 =       0.914700
        a1 =       0.306500
        a2 =       5.057000

   => Loading Basis Set <=

    Name: (AUG-CC-PV(Q+D)Z AUX)
    Role: JKFIT
    Keyword: DF_BASIS_SCF
    atoms 1 entry CL         line   904 file /work/zw18965/.conda/envs/p4env/share/psi4/basis/aug-cc-pvqz-jkfit.gbs 
    atoms 2 entry F          line   388 file /work/zw18965/.conda/envs/p4env/share/psi4/basis/aug-cc-pvqz-jkfit.gbs 

  ==> Pre-Iterations <==

   -------------------------------------------------------
    Irrep   Nso     Nmo     Nalpha   Nbeta   Ndocc  Nsocc
   -------------------------------------------------------
     A1        66      66       0       0       0       0
     A2        23      23       0       0       0       0
     B1        40      40       0       0       0       0
     B2        40      40       0       0       0       0
   -------------------------------------------------------
    Total     169     169      13      13      13       0
   -------------------------------------------------------

  ==> Integral Setup <==

  DFHelper Memory: AOs need 0.082 GiB; user supplied 100.393 GiB. Using in-core AOs.

  ==> MemDFJK: Density-Fitted J/K Matrices <==

    J tasked:                   Yes
    K tasked:                   Yes
    wK tasked:                   No
    OpenMP threads:              24
    Memory [MiB]:            102802
    Algorithm:                 Core
    Schwarz Cutoff:           1E-12
    Mask sparsity (%):       0.0280
    Fitting Condition:        1E-10

   => Auxiliary Basis Set <=

  Basis Set: (AUG-CC-PV(Q+D)Z AUX)
    Blend: AUG-CC-PVQZ-JKFIT
    Number of shells: 80
    Number of basis function: 326
    Number of Cartesian functions: 445
    Spherical Harmonics?: true
    Max angular momentum: 5

  Cached 100.0% of DFT collocation blocks in 0.190 [GiB].

  Minimum eigenvalue in the overlap matrix is 3.0143615087E-04.
  Using Symmetric Orthogonalization.

  SCF Guess: Superposition of Atomic Densities via on-the-fly atomic UHF.

  ==> Iterations <==

                           Total Energy        Delta E     RMS |[F,P]|

   @DF-RKS iter SAD:  -559.41732482968530   -5.59417e+02   0.00000e+00 
   @DF-RKS iter   1:  -559.68476648374156   -2.67442e-01   3.02681e-03 DIIS
   @DF-RKS iter   2:  -559.68402127436491    7.45209e-04   3.02963e-03 DIIS
   @DF-RKS iter   3:  -559.70423609551585   -2.02148e-02   6.72369e-04 DIIS
   @DF-RKS iter   4:  -559.70530033975854   -1.06424e-03   8.50018e-05 DIIS
   @DF-RKS iter   5:  -559.70532179334248   -2.14536e-05   2.37593e-05 DIIS
   @DF-RKS iter   6:  -559.70532332844266   -1.53510e-06   2.32374e-06 DIIS
   @DF-RKS iter   7:  -559.70532335345797   -2.50153e-08   6.94019e-07 DIIS
   @DF-RKS iter   8:  -559.70532335503560   -1.57763e-09   1.25901e-07 DIIS
   @DF-RKS iter   9:  -559.70532335509017   -5.45697e-11   1.35551e-08 DIIS
   @DF-RKS iter  10:  -559.70532335509131   -1.13687e-12   1.46493e-09 DIIS
  Energy and wave function converged.


  ==> Post-Iterations <==

    Orbital Energies [Eh]
    ---------------------

    Doubly Occupied:                                                      

       1A1  -103.030208     2A1   -25.414715     3A1   -10.010256  
       4A1    -7.654791     1B2    -7.642736     1B1    -7.642736  
       5A1    -1.398612     6A1    -0.954939     7A1    -0.602161  
       2B1    -0.584233     2B2    -0.584233     3B1    -0.408652  
       3B2    -0.408652  

    Virtual:                                                              

       8A1    -0.069838     9A1     0.042442     4B1     0.067651  
       4B2     0.067651    10A1     0.073476    11A1     0.144762  
       5B1     0.166879     5B2     0.166879     1A2     0.189010  
      12A1     0.189010     6B1     0.256328     6B2     0.256328  
      13A1     0.279273    14A1     0.287509     7B2     0.386985  
       7B1     0.386985    15A1     0.396265     2A2     0.510565  
      16A1     0.510565     8B1     0.524810     8B2     0.524810  
      17A1     0.547152    18A1     0.586726     3A2     0.586726  
      19A1     0.658628     9B1     0.718671     9B2     0.718671  
      10B2     0.718709    10B1     0.718709    20A1     0.782767  
      11B1     0.823880    11B2     0.823880     4A2     0.850485  
      21A1     0.850486    22A1     0.921081    12B2     1.048845  
      12B1     1.048845    23A1     1.061007    24A1     1.315626  
      25A1     1.398558     5A2     1.398558    26A1     1.469394  
      13B1     1.470132    13B2     1.470132    14B1     1.604175  
      14B2     1.604175    15B1     1.630001    15B2     1.630001  
       6A2     1.646753    27A1     1.646755    16B1     1.680372  
      16B2     1.680372    28A1     1.720038     7A2     1.720040  
      17B2     1.872411    17B1     1.872411    29A1     1.888225  
      30A1     1.916810     8A2     1.916810    18B2     1.981946  
      18B1     1.981946    31A1     2.003231     9A2     2.009450  
      32A1     2.009452    19B1     2.054094    19B2     2.054094  
      33A1     2.268889    20B1     2.306620    20B2     2.306620  
      34A1     2.341779    10A2     2.437663    35A1     2.437664  
      36A1     2.612204    21B1     2.816585    21B2     2.816585  
      37A1     2.880716    22B1     3.362957    22B2     3.362957  
      38A1     3.460894    11A2     3.460904    39A1     3.493786  
      23B1     3.647691    23B2     3.647691    40A1     4.147589  
      24B1     4.148851    24B2     4.148851    41A1     4.258039  
      12A2     4.258039    25B2     4.401974    25B1     4.401974  
      13A2     4.438753    42A1     4.438755    26B1     4.442847  
      26B2     4.442847    43A1     4.451501    14A2     4.451530  
      44A1     4.495176    45A1     4.533416    15A2     4.533520  
      27B2     4.633265    27B1     4.633265    28B1     4.686613  
      28B2     4.686613    46A1     5.023555    47A1     5.107034  
      16A2     5.164649    48A1     5.164659    29B2     5.299904  
      29B1     5.299904    30B2     5.329392    30B1     5.329392  
      49A1     5.358052    17A2     5.521770    50A1     5.521796  
      18A2     5.594260    51A1     5.594278    31B2     5.698952  
      31B1     5.698952    52A1     6.042609    32B2     6.126758  
      32B1     6.126758    53A1     6.487378    33B1     6.500106  
      33B2     6.500106    54A1     7.857765    19A2    10.953680  
      55A1    10.953689    34B1    11.106212    34B2    11.106212  
      56A1    11.299910    35B1    12.711437    35B2    12.711437  
      57A1    13.292666    20A2    13.293170    36B1    13.320169  
      36B2    13.320169    58A1    13.489560    21A2    13.489605  
      37B1    13.690138    37B2    13.690138    59A1    13.698856  
      60A1    13.896796    38B2    15.422082    38B1    15.422082  
      61A1    15.535156    22A2    15.535322    39B1    15.668592  
      39B2    15.668592    62A1    15.808362    23A2    16.288495  
      63A1    16.288611    40B2    16.733382    40B1    16.733382  
      64A1    16.978725    65A1    24.164673    66A1    53.451876  

    Final Occupation by Irrep:
             A1    A2    B1    B2 
    DOCC [     7,    0,    3,    3 ]

  @DF-RKS Final Energy:  -559.70532335509131

   => Energetics <=

    Nuclear Repulsion Energy =             48.5273712429179866
    One-Electron Energy =                -870.6213595919947466
    Two-Electron Energy =                 280.8195067271551579
    DFT Exchange-Correlation Energy =     -18.4305128931696771
    Empirical Dispersion Energy =          -0.0003288400000000
    VV10 Nonlocal Energy =                  0.0000000000000000
    Total Energy =                       -559.7053233550911955

Computation Completed


Properties will be evaluated at   0.000000,   0.000000,   0.000000 [a0]

Properties computed using the SCF density matrix

  Nuclear Dipole Moment: [e a0]
     X:     0.0000      Y:     0.0000      Z:     0.4822

  Electronic Dipole Moment: [e a0]
     X:     0.0000      Y:     0.0000      Z:    -0.0513

  Dipole Moment: [e a0]
     X:     0.0000      Y:     0.0000      Z:     0.4308     Total:     0.4308

  Dipole Moment: [D]
     X:     0.0000      Y:     0.0000      Z:     1.0951     Total:     1.0951


*** tstop() called on bp1-compute00190.data.bp.acrc.priv at Mon Apr 19 15:34:45 2021
Module time:
	user time   =      40.77 seconds =       0.68 minutes
	system time =       2.28 seconds =       0.04 minutes
	total time  =          2 seconds =       0.03 minutes
Total time:
	user time   =      40.77 seconds =       0.68 minutes
	system time =       2.28 seconds =       0.04 minutes
	total time  =          2 seconds =       0.03 minutes

*** tstart() called on bp1-compute00190.data.bp.acrc.priv
*** at Mon Apr 19 15:34:45 2021

   => Loading Basis Set <=

    Name: (AUG-CC-PV(Q+D)Z AUX)
    Role: RIFIT
    Keyword: DF_BASIS_MP2
    atoms 1 entry CL         line   914 file /work/zw18965/.conda/envs/p4env/share/psi4/basis/aug-cc-pvqz-ri.gbs 
    atoms 2 entry F          line   406 file /work/zw18965/.conda/envs/p4env/share/psi4/basis/aug-cc-pvqz-ri.gbs 

	 --------------------------------------------------------
	                          DF-MP2                         
	      2nd-Order Density-Fitted Moller-Plesset Theory     
	              RMP2 Wavefunction,  24 Threads             
	                                                         
	        Rob Parrish, Justin Turney, Andy Simmonett,      
	           Ed Hohenstein, and C. David Sherrill          
	 --------------------------------------------------------

   => Auxiliary Basis Set <=

  Basis Set: (AUG-CC-PV(Q+D)Z AUX)
    Blend: AUG-CC-PVQZ-RI
    Number of shells: 80
    Number of basis function: 362
    Number of Cartesian functions: 505
    Spherical Harmonics?: true
    Max angular momentum: 5

	 --------------------------------------------------------
	                 NBF =   169, NAUX =   362
	 --------------------------------------------------------
	   CLASS    FOCC     OCC    AOCC    AVIR     VIR    FVIR
	   PAIRS       0      13      13     156     156       0
	 --------------------------------------------------------

	-----------------------------------------------------------
	 ==================> DF-MP2 Energies <==================== 
	-----------------------------------------------------------
	 Reference Energy          =    -559.7053233550913092 [Eh]
	 Singles Energy            =      -0.0000000000000000 [Eh]
	 Same-Spin Energy          =      -0.1976093834907603 [Eh]
	 Opposite-Spin Energy      =      -0.5772789906536239 [Eh]
	 Correlation Energy        =      -0.7748883741443842 [Eh]
	 Total Energy              =    -560.4802117292357480 [Eh]
	-----------------------------------------------------------
	 ================> DF-SCS-MP2 Energies <================== 
	-----------------------------------------------------------
	 SCS Same-Spin Scale       =       0.3333333333333333 [-]
	 SCS Opposite-Spin Scale   =       1.2000000000000000 [-]
	 SCS Same-Spin Energy      =      -0.0658697944969201 [Eh]
	 SCS Opposite-Spin Energy  =      -0.6927347887843486 [Eh]
	 SCS Correlation Energy    =      -0.7586045832812687 [Eh]
	 SCS Total Energy          =    -560.4639279383725352 [Eh]
	-----------------------------------------------------------



    B2PLYP-D3BJ Energy Summary
    --------------------------
    DFT Reference Energy                  =  -559.7053233550913092
    Scaled MP2 Correlation                =    -0.2092198610189837
    @Final double-hybrid DFT total energy =  -559.9145432161102462


*** tstop() called on bp1-compute00190.data.bp.acrc.priv at Mon Apr 19 15:34:46 2021
Module time:
	user time   =      10.95 seconds =       0.18 minutes
	system time =       0.38 seconds =       0.01 minutes
	total time  =          1 seconds =       0.02 minutes
Total time:
	user time   =      51.73 seconds =       0.86 minutes
	system time =       2.67 seconds =       0.04 minutes
	total time  =          3 seconds =       0.05 minutes

  //>>>>>>>>>>>>>>>>>>>>>>>>>>>>>>>>>>>//
  //    Loading displacement 2 of 3    //
  //<<<<<<<<<<<<<<<<<<<<<<<<<<<<<<<<<<<//

*** tstart() called on bp1-compute00190.data.bp.acrc.priv
*** at Mon Apr 19 15:34:46 2021

   => Loading Basis Set <=

    Name: AUG-CC-PV(Q+D)Z
    Role: ORBITAL
    Keyword: BASIS
    atoms 1 entry CL         line  1246 file /work/zw18965/.conda/envs/p4env/share/psi4/basis/aug-cc-pv_qpd_z.gbs 
    atoms 2 entry F          line   499 file /work/zw18965/.conda/envs/p4env/share/psi4/basis/aug-cc-pv_qpd_z.gbs 


         ---------------------------------------------------------
                                   SCF
               by Justin Turney, Rob Parrish, Andy Simmonett
                          and Daniel G. A. Smith
                              RKS Reference
                       24 Threads, 137329 MiB Core
         ---------------------------------------------------------

  ==> Geometry <==

    Molecular point group: c2v
    Full point group: C_inf_v

    Geometry (in Angstrom), charge = 0, multiplicity = 1:

       Center              X                  Y                   Z               Mass       
    ------------   -----------------  -----------------  -----------------  -----------------
         CL           0.000000000000     0.000000000000     0.587078558953    34.968852682000
         F            0.000000000000     0.000000000000    -1.080588903443    18.998403162730

  Running in c2v symmetry.

  Rotational constants: A = ************  B =      0.49239  C =      0.49239 [cm^-1]
  Rotational constants: A = ************  B =  14761.48811  C =  14761.48811 [MHz]
  Nuclear repulsion =   48.549315171131560

  Charge       = 0
  Multiplicity = 1
  Electrons    = 26
  Nalpha       = 13
  Nbeta        = 13

  ==> Algorithm <==

  SCF Algorithm Type is DF.
  DIIS enabled.
  MOM disabled.
  Fractional occupation disabled.
  Guess Type is SAD.
  Energy threshold   = 1.00e-08
  Density threshold  = 1.00e-08
  Integral threshold = 0.00e+00

  ==> Primary Basis <==

  Basis Set: AUG-CC-PV(Q+D)Z
    Blend: AUG-CC-PV(Q+D)Z
    Number of shells: 43
    Number of basis function: 169
    Number of Cartesian functions: 220
    Spherical Harmonics?: true
    Max angular momentum: 4

  ==> DFT Potential <==

   => Composite Functional: B2PLYP-D3BJ <= 

    B2PLYP Double Hybrid Exchange-Correlation Functional

    S. Grimme, J. Chem. Phys., 124, 034108, 2006


    Deriv               =              1
    GGA                 =           TRUE
    Meta                =          FALSE

    Exchange Hybrid     =           TRUE
    MP2 Hybrid          =           TRUE

   => Exchange Functionals <=

    0.4700     XC_GGA_X_B88

   => Exact (HF) Exchange <=

    0.5300               HF 

   => Correlation Functionals <=

    0.7300     XC_GGA_C_LYP

   => MP2 Correlation <=

    0.2700       MP2 

   => Molecular Quadrature <=

    Radial Scheme          =       TREUTLER
    Pruning Scheme         =           FLAT
    Nuclear Scheme         =       TREUTLER

    BS radius alpha        =              1
    Pruning alpha          =              1
    Radial Points          =             75
    Spherical Points       =            302
    Total Points           =          45099
    Total Blocks           =            423
    Max Points             =            255
    Max Functions          =            169

   => B2PLYP-D3(BJ): Empirical Dispersion <=

    Grimme's -D3 (BJ-damping) Dispersion Correction
    Grimme S.; Ehrlich S.; Goerigk L. (2011), J. Comput. Chem., 32: 1456
    Parametrisation from:    L. Goerigk, S. Grimme, Phys. Chem. Chem. Phys. 13, 6670-6688, 2011

        s6 =       0.640000
        s8 =       0.914700
        a1 =       0.306500
        a2 =       5.057000

   => Loading Basis Set <=

    Name: (AUG-CC-PV(Q+D)Z AUX)
    Role: JKFIT
    Keyword: DF_BASIS_SCF
    atoms 1 entry CL         line   904 file /work/zw18965/.conda/envs/p4env/share/psi4/basis/aug-cc-pvqz-jkfit.gbs 
    atoms 2 entry F          line   388 file /work/zw18965/.conda/envs/p4env/share/psi4/basis/aug-cc-pvqz-jkfit.gbs 

  ==> Pre-Iterations <==

   -------------------------------------------------------
    Irrep   Nso     Nmo     Nalpha   Nbeta   Ndocc  Nsocc
   -------------------------------------------------------
     A1        66      66       0       0       0       0
     A2        23      23       0       0       0       0
     B1        40      40       0       0       0       0
     B2        40      40       0       0       0       0
   -------------------------------------------------------
    Total     169     169      13      13      13       0
   -------------------------------------------------------

  ==> Integral Setup <==

  DFHelper Memory: AOs need 0.082 GiB; user supplied 100.393 GiB. Using in-core AOs.

  ==> MemDFJK: Density-Fitted J/K Matrices <==

    J tasked:                   Yes
    K tasked:                   Yes
    wK tasked:                   No
    OpenMP threads:              24
    Memory [MiB]:            102802
    Algorithm:                 Core
    Schwarz Cutoff:           1E-12
    Mask sparsity (%):       0.0280
    Fitting Condition:        1E-10

   => Auxiliary Basis Set <=

  Basis Set: (AUG-CC-PV(Q+D)Z AUX)
    Blend: AUG-CC-PVQZ-JKFIT
    Number of shells: 80
    Number of basis function: 326
    Number of Cartesian functions: 445
    Spherical Harmonics?: true
    Max angular momentum: 5

  Cached 100.0% of DFT collocation blocks in 0.190 [GiB].

  Minimum eigenvalue in the overlap matrix is 3.0098865276E-04.
  Using Symmetric Orthogonalization.

  SCF Guess: Superposition of Atomic Densities via on-the-fly atomic UHF.

  ==> Iterations <==

                           Total Energy        Delta E     RMS |[F,P]|

   @DF-RKS iter SAD:  -559.41831241193836   -5.59418e+02   0.00000e+00 
   @DF-RKS iter   1:  -559.68483157212165   -2.66519e-01   3.02621e-03 DIIS
   @DF-RKS iter   2:  -559.68416172802824    6.69844e-04   3.02378e-03 DIIS
   @DF-RKS iter   3:  -559.70428096783974   -2.01192e-02   6.72591e-04 DIIS
   @DF-RKS iter   4:  -559.70534559603652   -1.06463e-03   8.49173e-05 DIIS
   @DF-RKS iter   5:  -559.70536702171376   -2.14257e-05   2.37607e-05 DIIS
   @DF-RKS iter   6:  -559.70536855711180   -1.53540e-06   2.32714e-06 DIIS
   @DF-RKS iter   7:  -559.70536858218031   -2.50685e-08   6.94007e-07 DIIS
   @DF-RKS iter   8:  -559.70536858375976   -1.57945e-09   1.26818e-07 DIIS
   @DF-RKS iter   9:  -559.70536858381570   -5.59339e-11   1.38153e-08 DIIS
   @DF-RKS iter  10:  -559.70536858381547    2.27374e-13   1.53208e-09 DIIS
  Energy and wave function converged.


  ==> Post-Iterations <==

    Orbital Energies [Eh]
    ---------------------

    Doubly Occupied:                                                      

       1A1  -103.030147     2A1   -25.414740     3A1   -10.010203  
       4A1    -7.654738     1B1    -7.642683     1B2    -7.642683  
       5A1    -1.398864     6A1    -0.954894     7A1    -0.602325  
       2B2    -0.584387     2B1    -0.584387     3B2    -0.408562  
       3B1    -0.408562  

    Virtual:                                                              

       8A1    -0.069570     9A1     0.042439     4B2     0.067650  
       4B1     0.067650    10A1     0.073515    11A1     0.144777  
       5B2     0.166877     5B1     0.166877     1A2     0.189015  
      12A1     0.189015     6B2     0.256371     6B1     0.256371  
      13A1     0.279254    14A1     0.287569     7B1     0.386968  
       7B2     0.386968    15A1     0.396252     2A2     0.510566  
      16A1     0.510566     8B1     0.524873     8B2     0.524873  
      17A1     0.547186    18A1     0.586760     3A2     0.586760  
      19A1     0.658786     9B1     0.718629     9B2     0.718629  
      10B1     0.718718    10B2     0.718718    20A1     0.782893  
      11B1     0.823996    11B2     0.823996     4A2     0.850563  
      21A1     0.850564    22A1     0.920964    12B1     1.048739  
      12B2     1.048739    23A1     1.061039    24A1     1.315689  
      25A1     1.398592     5A2     1.398592    26A1     1.469375  
      13B1     1.470108    13B2     1.470108    14B2     1.604164  
      14B1     1.604164    15B1     1.630281    15B2     1.630281  
       6A2     1.646743    27A1     1.646744    16B1     1.680497  
      16B2     1.680497    28A1     1.720053     7A2     1.720055  
      17B2     1.872436    17B1     1.872436    29A1     1.888407  
      30A1     1.916944     8A2     1.916944    18B2     1.982150  
      18B1     1.982150    31A1     2.003396     9A2     2.009553  
      32A1     2.009555    19B1     2.054231    19B2     2.054231  
      33A1     2.269398    20B1     2.306898    20B2     2.306898  
      34A1     2.341621    10A2     2.438138    35A1     2.438140  
      36A1     2.613194    21B1     2.816162    21B2     2.816162  
      37A1     2.880659    22B1     3.363337    22B2     3.363337  
      38A1     3.460911    11A2     3.460921    39A1     3.493466  
      23B1     3.648579    23B2     3.648579    40A1     4.147518  
      24B1     4.148759    24B2     4.148759    41A1     4.257671  
      12A2     4.257671    25B2     4.401968    25B1     4.401968  
      13A2     4.438946    42A1     4.438948    26B2     4.442679  
      26B1     4.442679    43A1     4.451524    14A2     4.451553  
      44A1     4.495990    45A1     4.533348    15A2     4.533452  
      27B2     4.633631    27B1     4.633631    28B1     4.687113  
      28B2     4.687113    46A1     5.024856    47A1     5.107751  
      16A2     5.165703    48A1     5.165712    29B2     5.299932  
      29B1     5.299932    30B1     5.329417    30B2     5.329417  
      49A1     5.358813    17A2     5.521922    50A1     5.521947  
      18A2     5.594762    51A1     5.594780    31B1     5.699171  
      31B2     5.699171    52A1     6.041183    32B1     6.127754  
      32B2     6.127754    53A1     6.489792    33B1     6.501702  
      33B2     6.501702    54A1     7.859033    19A2    10.953752  
      55A1    10.953761    34B1    11.106420    34B2    11.106420  
      56A1    11.300626    35B1    12.712114    35B2    12.712114  
      57A1    13.292585    20A2    13.293085    36B2    13.320204  
      36B1    13.320204    58A1    13.489906    21A2    13.489951  
      37B1    13.690266    37B2    13.690266    59A1    13.698806  
      60A1    13.898893    38B1    15.422057    38B2    15.422057  
      61A1    15.535270    22A2    15.535436    39B1    15.668820  
      39B2    15.668820    62A1    15.809252    23A2    16.288585  
      63A1    16.288700    40B1    16.734129    40B2    16.734129  
      64A1    16.978898    65A1    24.168168    66A1    53.453407  

    Final Occupation by Irrep:
             A1    A2    B1    B2 
    DOCC [     7,    0,    3,    3 ]

  @DF-RKS Final Energy:  -559.70536858381547

   => Energetics <=

    Nuclear Repulsion Energy =             48.5493151711315605
    One-Electron Energy =                -870.6647322145657881
    Two-Electron Energy =                 280.8410455931554566
    DFT Exchange-Correlation Energy =     -18.4306682835365940
    Empirical Dispersion Energy =          -0.0003288500000000
    VV10 Nonlocal Energy =                  0.0000000000000000
    Total Energy =                       -559.7053685838153569

Computation Completed


Properties will be evaluated at   0.000000,   0.000000,   0.000000 [a0]

Properties computed using the SCF density matrix

  Nuclear Dipole Moment: [e a0]
     X:     0.0000      Y:     0.0000      Z:     0.4819

  Electronic Dipole Moment: [e a0]
     X:     0.0000      Y:     0.0000      Z:    -0.0520

  Dipole Moment: [e a0]
     X:     0.0000      Y:     0.0000      Z:     0.4299     Total:     0.4299

  Dipole Moment: [D]
     X:     0.0000      Y:     0.0000      Z:     1.0928     Total:     1.0928


*** tstop() called on bp1-compute00190.data.bp.acrc.priv at Mon Apr 19 15:34:47 2021
Module time:
	user time   =      40.78 seconds =       0.68 minutes
	system time =       1.35 seconds =       0.02 minutes
	total time  =          1 seconds =       0.02 minutes
Total time:
	user time   =      92.66 seconds =       1.54 minutes
	system time =       4.02 seconds =       0.07 minutes
	total time  =          4 seconds =       0.07 minutes

*** tstart() called on bp1-compute00190.data.bp.acrc.priv
*** at Mon Apr 19 15:34:47 2021

   => Loading Basis Set <=

    Name: (AUG-CC-PV(Q+D)Z AUX)
    Role: RIFIT
    Keyword: DF_BASIS_MP2
    atoms 1 entry CL         line   914 file /work/zw18965/.conda/envs/p4env/share/psi4/basis/aug-cc-pvqz-ri.gbs 
    atoms 2 entry F          line   406 file /work/zw18965/.conda/envs/p4env/share/psi4/basis/aug-cc-pvqz-ri.gbs 

	 --------------------------------------------------------
	                          DF-MP2                         
	      2nd-Order Density-Fitted Moller-Plesset Theory     
	              RMP2 Wavefunction,  24 Threads             
	                                                         
	        Rob Parrish, Justin Turney, Andy Simmonett,      
	           Ed Hohenstein, and C. David Sherrill          
	 --------------------------------------------------------

   => Auxiliary Basis Set <=

  Basis Set: (AUG-CC-PV(Q+D)Z AUX)
    Blend: AUG-CC-PVQZ-RI
    Number of shells: 80
    Number of basis function: 362
    Number of Cartesian functions: 505
    Spherical Harmonics?: true
    Max angular momentum: 5

	 --------------------------------------------------------
	                 NBF =   169, NAUX =   362
	 --------------------------------------------------------
	   CLASS    FOCC     OCC    AOCC    AVIR     VIR    FVIR
	   PAIRS       0      13      13     156     156       0
	 --------------------------------------------------------

	-----------------------------------------------------------
	 ==================> DF-MP2 Energies <==================== 
	-----------------------------------------------------------
	 Reference Energy          =    -559.7053685838154706 [Eh]
	 Singles Energy            =      -0.0000000000000000 [Eh]
	 Same-Spin Energy          =      -0.1976008204312766 [Eh]
	 Opposite-Spin Energy      =      -0.5772117647047866 [Eh]
	 Correlation Energy        =      -0.7748125851360632 [Eh]
	 Total Energy              =    -560.4801811689515034 [Eh]
	-----------------------------------------------------------
	 ================> DF-SCS-MP2 Energies <================== 
	-----------------------------------------------------------
	 SCS Same-Spin Scale       =       0.3333333333333333 [-]
	 SCS Opposite-Spin Scale   =       1.2000000000000000 [-]
	 SCS Same-Spin Energy      =      -0.0658669401437589 [Eh]
	 SCS Opposite-Spin Energy  =      -0.6926541176457439 [Eh]
	 SCS Correlation Energy    =      -0.7585210577895027 [Eh]
	 SCS Total Energy          =    -560.4638896416049647 [Eh]
	-----------------------------------------------------------



    B2PLYP-D3BJ Energy Summary
    --------------------------
    DFT Reference Energy                  =  -559.7053685838154706
    Scaled MP2 Correlation                =    -0.2091993979867371
    @Final double-hybrid DFT total energy =  -559.9145679818021790


*** tstop() called on bp1-compute00190.data.bp.acrc.priv at Mon Apr 19 15:34:48 2021
Module time:
	user time   =      10.81 seconds =       0.18 minutes
	system time =       0.39 seconds =       0.01 minutes
	total time  =          1 seconds =       0.02 minutes
Total time:
	user time   =     103.49 seconds =       1.72 minutes
	system time =       4.41 seconds =       0.07 minutes
	total time  =          5 seconds =       0.08 minutes

  //>>>>>>>>>>>>>>>>>>>>>>>>>>>>>>>>>>>//
  //    Loading displacement 3 of 3    //
  //<<<<<<<<<<<<<<<<<<<<<<<<<<<<<<<<<<<//

*** tstart() called on bp1-compute00190.data.bp.acrc.priv
*** at Mon Apr 19 15:34:48 2021

   => Loading Basis Set <=

    Name: AUG-CC-PV(Q+D)Z
    Role: ORBITAL
    Keyword: BASIS
    atoms 1 entry CL         line  1246 file /work/zw18965/.conda/envs/p4env/share/psi4/basis/aug-cc-pv_qpd_z.gbs 
    atoms 2 entry F          line   499 file /work/zw18965/.conda/envs/p4env/share/psi4/basis/aug-cc-pv_qpd_z.gbs 


         ---------------------------------------------------------
                                   SCF
               by Justin Turney, Rob Parrish, Andy Simmonett
                          and Daniel G. A. Smith
                              RKS Reference
                       24 Threads, 137329 MiB Core
         ---------------------------------------------------------

  ==> Geometry <==

    Molecular point group: c2v
    Full point group: C_inf_v

    Geometry (in Angstrom), charge = 0, multiplicity = 1:

       Center              X                  Y                   Z               Mass       
    ------------   -----------------  -----------------  -----------------  -----------------
         CL           0.000000000000     0.000000000000     0.587609509195    34.968852682000
         F            0.000000000000     0.000000000000    -1.081566181409    18.998403162730

  Running in c2v symmetry.

  Rotational constants: A = ************  B =      0.49150  C =      0.49150 [cm^-1]
  Rotational constants: A = ************  B =  14734.82389  C =  14734.82389 [MHz]
  Nuclear repulsion =   48.505447142725956

  Charge       = 0
  Multiplicity = 1
  Electrons    = 26
  Nalpha       = 13
  Nbeta        = 13

  ==> Algorithm <==

  SCF Algorithm Type is DF.
  DIIS enabled.
  MOM disabled.
  Fractional occupation disabled.
  Guess Type is SAD.
  Energy threshold   = 1.00e-08
  Density threshold  = 1.00e-08
  Integral threshold = 0.00e+00

  ==> Primary Basis <==

  Basis Set: AUG-CC-PV(Q+D)Z
    Blend: AUG-CC-PV(Q+D)Z
    Number of shells: 43
    Number of basis function: 169
    Number of Cartesian functions: 220
    Spherical Harmonics?: true
    Max angular momentum: 4

  ==> DFT Potential <==

   => Composite Functional: B2PLYP-D3BJ <= 

    B2PLYP Double Hybrid Exchange-Correlation Functional

    S. Grimme, J. Chem. Phys., 124, 034108, 2006


    Deriv               =              1
    GGA                 =           TRUE
    Meta                =          FALSE

    Exchange Hybrid     =           TRUE
    MP2 Hybrid          =           TRUE

   => Exchange Functionals <=

    0.4700     XC_GGA_X_B88

   => Exact (HF) Exchange <=

    0.5300               HF 

   => Correlation Functionals <=

    0.7300     XC_GGA_C_LYP

   => MP2 Correlation <=

    0.2700       MP2 

   => Molecular Quadrature <=

    Radial Scheme          =       TREUTLER
    Pruning Scheme         =           FLAT
    Nuclear Scheme         =       TREUTLER

    BS radius alpha        =              1
    Pruning alpha          =              1
    Radial Points          =             75
    Spherical Points       =            302
    Total Points           =          45099
    Total Blocks           =            423
    Max Points             =            255
    Max Functions          =            169

   => B2PLYP-D3(BJ): Empirical Dispersion <=

    Grimme's -D3 (BJ-damping) Dispersion Correction
    Grimme S.; Ehrlich S.; Goerigk L. (2011), J. Comput. Chem., 32: 1456
    Parametrisation from:    L. Goerigk, S. Grimme, Phys. Chem. Chem. Phys. 13, 6670-6688, 2011

        s6 =       0.640000
        s8 =       0.914700
        a1 =       0.306500
        a2 =       5.057000

   => Loading Basis Set <=

    Name: (AUG-CC-PV(Q+D)Z AUX)
    Role: JKFIT
    Keyword: DF_BASIS_SCF
    atoms 1 entry CL         line   904 file /work/zw18965/.conda/envs/p4env/share/psi4/basis/aug-cc-pvqz-jkfit.gbs 
    atoms 2 entry F          line   388 file /work/zw18965/.conda/envs/p4env/share/psi4/basis/aug-cc-pvqz-jkfit.gbs 

  ==> Pre-Iterations <==

   -------------------------------------------------------
    Irrep   Nso     Nmo     Nalpha   Nbeta   Ndocc  Nsocc
   -------------------------------------------------------
     A1        66      66       0       0       0       0
     A2        23      23       0       0       0       0
     B1        40      40       0       0       0       0
     B2        40      40       0       0       0       0
   -------------------------------------------------------
    Total     169     169      13      13      13       0
   -------------------------------------------------------

  ==> Integral Setup <==

  DFHelper Memory: AOs need 0.082 GiB; user supplied 100.393 GiB. Using in-core AOs.

  ==> MemDFJK: Density-Fitted J/K Matrices <==

    J tasked:                   Yes
    K tasked:                   Yes
    wK tasked:                   No
    OpenMP threads:              24
    Memory [MiB]:            102802
    Algorithm:                 Core
    Schwarz Cutoff:           1E-12
    Mask sparsity (%):       0.0280
    Fitting Condition:        1E-10

   => Auxiliary Basis Set <=

  Basis Set: (AUG-CC-PV(Q+D)Z AUX)
    Blend: AUG-CC-PVQZ-JKFIT
    Number of shells: 80
    Number of basis function: 326
    Number of Cartesian functions: 445
    Spherical Harmonics?: true
    Max angular momentum: 5

  Cached 100.0% of DFT collocation blocks in 0.190 [GiB].

  Minimum eigenvalue in the overlap matrix is 3.0188418051E-04.
  Using Symmetric Orthogonalization.

  SCF Guess: Superposition of Atomic Densities via on-the-fly atomic UHF.

  ==> Iterations <==

                           Total Energy        Delta E     RMS |[F,P]|

   @DF-RKS iter SAD:  -559.41635245071018   -5.59416e+02   0.00000e+00 
   @DF-RKS iter   1:  -559.68470107548148   -2.68349e-01   3.02738e-03 DIIS
   @DF-RKS iter   2:  -559.68388041614196    8.20659e-04   3.03546e-03 DIIS
   @DF-RKS iter   3:  -559.70419077349095   -2.03104e-02   6.72131e-04 DIIS
   @DF-RKS iter   4:  -559.70525458363841   -1.06381e-03   8.50859e-05 DIIS
   @DF-RKS iter   5:  -559.70527606524627   -2.14816e-05   2.37581e-05 DIIS
   @DF-RKS iter   6:  -559.70527760006723   -1.53482e-06   2.32028e-06 DIIS
   @DF-RKS iter   7:  -559.70527762502695   -2.49597e-08   6.94111e-07 DIIS
   @DF-RKS iter   8:  -559.70527762660356   -1.57661e-09   1.24927e-07 DIIS
   @DF-RKS iter   9:  -559.70527762665711   -5.35465e-11   1.32798e-08 DIIS
   @DF-RKS iter  10:  -559.70527762665802   -9.09495e-13   1.39607e-09 DIIS
  Energy and wave function converged.


  ==> Post-Iterations <==

    Orbital Energies [Eh]
    ---------------------

    Doubly Occupied:                                                      

       1A1  -103.030269     2A1   -25.414690     3A1   -10.010309  
       4A1    -7.654844     1B1    -7.642790     1B2    -7.642790  
       5A1    -1.398361     6A1    -0.954985     7A1    -0.601997  
       2B2    -0.584078     2B1    -0.584078     3B2    -0.408741  
       3B1    -0.408741  

    Virtual:                                                              

       8A1    -0.070106     9A1     0.042445     4B2     0.067651  
       4B1     0.067651    10A1     0.073438    11A1     0.144747  
       5B1     0.166882     5B2     0.166882     1A2     0.189005  
      12A1     0.189005     6B1     0.256285     6B2     0.256285  
      13A1     0.279292    14A1     0.287451     7B1     0.387002  
       7B2     0.387002    15A1     0.396279     2A2     0.510563  
      16A1     0.510563     8B1     0.524747     8B2     0.524747  
      17A1     0.547117    18A1     0.586692     3A2     0.586692  
      19A1     0.658470     9B2     0.718700     9B1     0.718700  
      10B1     0.718714    10B2     0.718714    20A1     0.782641  
      11B1     0.823764    11B2     0.823764     4A2     0.850407  
      21A1     0.850407    22A1     0.921197    12B1     1.048951  
      12B2     1.048951    23A1     1.060976    24A1     1.315565  
      25A1     1.398525     5A2     1.398525    26A1     1.469412  
      13B1     1.470157    13B2     1.470157    14B1     1.604185  
      14B2     1.604185    15B1     1.629720    15B2     1.629720  
       6A2     1.646764    27A1     1.646765    16B1     1.680246  
      16B2     1.680246    28A1     1.720024     7A2     1.720026  
      17B1     1.872387    17B2     1.872387    29A1     1.888043  
      30A1     1.916675     8A2     1.916676    18B1     1.981742  
      18B2     1.981742    31A1     2.003066     9A2     2.009347  
      32A1     2.009349    19B1     2.053957    19B2     2.053957  
      33A1     2.268376    20B1     2.306343    20B2     2.306343  
      34A1     2.341938    10A2     2.437187    35A1     2.437189  
      36A1     2.611216    21B1     2.817007    21B2     2.817007  
      37A1     2.880775    22B1     3.362577    22B2     3.362577  
      38A1     3.460877    11A2     3.460887    39A1     3.494110  
      23B1     3.646805    23B2     3.646805    40A1     4.147661  
      24B1     4.148945    24B2     4.148945    41A1     4.258408  
      12A2     4.258408    25B1     4.401978    25B2     4.401978  
      13A2     4.438560    42A1     4.438562    26B1     4.443014  
      26B2     4.443014    43A1     4.451478    14A2     4.451507  
      44A1     4.494360    45A1     4.533485    15A2     4.533589  
      27B1     4.632900    27B2     4.632900    28B1     4.686114  
      28B2     4.686114    46A1     5.022245    47A1     5.106326  
      16A2     5.163594    48A1     5.163604    29B1     5.299877  
      29B2     5.299877    30B1     5.329367    30B2     5.329367  
      49A1     5.357294    17A2     5.521620    50A1     5.521646  
      18A2     5.593759    51A1     5.593777    31B1     5.698733  
      31B2     5.698733    52A1     6.044034    32B1     6.125760  
      32B2     6.125760    53A1     6.484967    33B1     6.498513  
      33B2     6.498513    54A1     7.856489    19A2    10.953609  
      55A1    10.953617    34B1    11.106003    34B2    11.106003  
      56A1    11.299199    35B2    12.710763    35B1    12.710763  
      57A1    13.292748    20A2    13.293254    36B2    13.320134  
      36B1    13.320134    58A1    13.489213    21A2    13.489259  
      37B1    13.690009    37B2    13.690009    59A1    13.698904  
      60A1    13.894700    38B2    15.422106    38B1    15.422106  
      61A1    15.535043    22A2    15.535209    39B2    15.668366  
      39B1    15.668366    62A1    15.807475    23A2    16.288405  
      63A1    16.288522    40B1    16.732634    40B2    16.732634  
      64A1    16.978549    65A1    24.161192    66A1    53.450352  

    Final Occupation by Irrep:
             A1    A2    B1    B2 
    DOCC [     7,    0,    3,    3 ]

  @DF-RKS Final Energy:  -559.70527762665802

   => Energetics <=

    Nuclear Repulsion Energy =             48.5054471427259557
    One-Electron Energy =                -870.5780236978293942
    Two-Electron Energy =                 280.7979855143432246
    DFT Exchange-Correlation Energy =     -18.4303577558978766
    Empirical Dispersion Energy =          -0.0003288300000000
    VV10 Nonlocal Energy =                  0.0000000000000000
    Total Energy =                       -559.7052776266580167

Computation Completed


Properties will be evaluated at   0.000000,   0.000000,   0.000000 [a0]

Properties computed using the SCF density matrix

  Nuclear Dipole Moment: [e a0]
     X:     0.0000      Y:     0.0000      Z:     0.4824

  Electronic Dipole Moment: [e a0]
     X:     0.0000      Y:     0.0000      Z:    -0.0507

  Dipole Moment: [e a0]
     X:     0.0000      Y:     0.0000      Z:     0.4317     Total:     0.4317

  Dipole Moment: [D]
     X:     0.0000      Y:     0.0000      Z:     1.0973     Total:     1.0973


*** tstop() called on bp1-compute00190.data.bp.acrc.priv at Mon Apr 19 15:34:50 2021
Module time:
	user time   =      40.28 seconds =       0.67 minutes
	system time =       1.28 seconds =       0.02 minutes
	total time  =          2 seconds =       0.03 minutes
Total time:
	user time   =     143.91 seconds =       2.40 minutes
	system time =       5.69 seconds =       0.09 minutes
	total time  =          7 seconds =       0.12 minutes

*** tstart() called on bp1-compute00190.data.bp.acrc.priv
*** at Mon Apr 19 15:34:50 2021

   => Loading Basis Set <=

    Name: (AUG-CC-PV(Q+D)Z AUX)
    Role: RIFIT
    Keyword: DF_BASIS_MP2
    atoms 1 entry CL         line   914 file /work/zw18965/.conda/envs/p4env/share/psi4/basis/aug-cc-pvqz-ri.gbs 
    atoms 2 entry F          line   406 file /work/zw18965/.conda/envs/p4env/share/psi4/basis/aug-cc-pvqz-ri.gbs 

	 --------------------------------------------------------
	                          DF-MP2                         
	      2nd-Order Density-Fitted Moller-Plesset Theory     
	              RMP2 Wavefunction,  24 Threads             
	                                                         
	        Rob Parrish, Justin Turney, Andy Simmonett,      
	           Ed Hohenstein, and C. David Sherrill          
	 --------------------------------------------------------

   => Auxiliary Basis Set <=

  Basis Set: (AUG-CC-PV(Q+D)Z AUX)
    Blend: AUG-CC-PVQZ-RI
    Number of shells: 80
    Number of basis function: 362
    Number of Cartesian functions: 505
    Spherical Harmonics?: true
    Max angular momentum: 5

	 --------------------------------------------------------
	                 NBF =   169, NAUX =   362
	 --------------------------------------------------------
	   CLASS    FOCC     OCC    AOCC    AVIR     VIR    FVIR
	   PAIRS       0      13      13     156     156       0
	 --------------------------------------------------------

	-----------------------------------------------------------
	 ==================> DF-MP2 Energies <==================== 
	-----------------------------------------------------------
	 Reference Energy          =    -559.7052776266580167 [Eh]
	 Singles Energy            =      -0.0000000000000000 [Eh]
	 Same-Spin Energy          =      -0.1976179384883170 [Eh]
	 Opposite-Spin Energy      =      -0.5773462627187715 [Eh]
	 Correlation Energy        =      -0.7749642012070885 [Eh]
	 Total Energy              =    -560.4802418278651430 [Eh]
	-----------------------------------------------------------
	 ================> DF-SCS-MP2 Energies <================== 
	-----------------------------------------------------------
	 SCS Same-Spin Scale       =       0.3333333333333333 [-]
	 SCS Opposite-Spin Scale   =       1.2000000000000000 [-]
	 SCS Same-Spin Energy      =      -0.0658726461627723 [Eh]
	 SCS Opposite-Spin Energy  =      -0.6928155152625258 [Eh]
	 SCS Correlation Energy    =      -0.7586881614252982 [Eh]
	 SCS Total Energy          =    -560.4639657880833283 [Eh]
	-----------------------------------------------------------



    B2PLYP-D3BJ Energy Summary
    --------------------------
    DFT Reference Energy                  =  -559.7052776266580167
    Scaled MP2 Correlation                =    -0.2092403343259139
    @Final double-hybrid DFT total energy =  -559.9145179609839715


*** tstop() called on bp1-compute00190.data.bp.acrc.priv at Mon Apr 19 15:34:51 2021
Module time:
	user time   =      10.78 seconds =       0.18 minutes
	system time =       0.37 seconds =       0.01 minutes
	total time  =          1 seconds =       0.02 minutes
Total time:
	user time   =     154.70 seconds =       2.58 minutes
	system time =       6.06 seconds =       0.10 minutes
	total time  =          8 seconds =       0.13 minutes

         ----------------------------------------------------------
                                   FINDIF
                     R. A. King and Jonathon Misiewicz
         ---------------------------------------------------------

  Computing gradient from energies.
    Using 3-point formula.
    Energy without displacement: -559.9145432161
    Check energies below for precision!
    Forces are for mass-weighted, symmetry-adapted cartesians (in au).

     Coord      Energy(-1)        Energy(+1)            Force
        0   -559.9145679818   -559.9145179610      0.0050020818


-------------------------------------------------------------
  ## New Matrix (Symmetry 0) ##
  Irrep: 1 Size: 2 x 3

                 1                   2                   3

    1     0.00000000000000     0.00000000000000     0.01755031295528
    2     0.00000000000000     0.00000000000000    -0.01755031295528




			-----------------------------------------
			 OPTKING 2.0: for geometry optimizations 
			  - R.A. King,  Bethel University        
			-----------------------------------------

	Internal coordinates to be generated automatically.
	Detected frag 1 with atoms:  1 2
	---Fragment 1 Bond Connectivity---
	 1 : 2
	 2 : 1

	---Fragment 1 Geometry and Gradient---
	 CL          0.0000000000        0.0000000000        1.1099193658
	 F           0.0000000000        0.0000000000       -2.0429404756
	             0.0000000000        0.0000000000        0.0175503130
	             0.0000000000        0.0000000000       -0.0175503130

	Previous optimization step data not found.  Starting new optimization.

	---Fragment 1 Intrafragment Coordinates---
	 - Coordinate -           - BOHR/RAD -       - ANG/DEG -
	 R(1,2)           =         3.152860	       1.668422

	Current energy   :      -559.9145432161

	Generating empirical Hessian (Schlegel '84) for each fragment.
	Taking RFO optimization step.
	Going to follow RFO solution 1.
	Using RFO vector 1.
	Norm of target step-size    0.04382
	Projected energy change by RFO approximation:         0.0001906190

	Back-transformation to cartesian coordinates...
	Successfully converged to displaced geometry.

	--- Internal Coordinate Step in ANG or DEG, aJ/ANG or AJ/DEG ---
	 ---------------------------------------------------------------------------
	   Coordinate                Previous        Force       Change         New 
	   ----------                --------       ------       ------       ------
	    1 R(1,2)          =      1.668422    -0.144592    -0.023187     1.645234
	 ---------------------------------------------------------------------------
	Successfully symmetrized geometry.

  ==> Convergence Check <==

  Measures of convergence in internal coordinates in au.
  Criteria marked as inactive (o), active & met (*), and active & unmet ( ).
  --------------------------------------------------------------------------------------------- ~
   Step     Total Energy     Delta E     MAX Force     RMS Force      MAX Disp      RMS Disp    ~
  --------------------------------------------------------------------------------------------- ~
    Convergence Criteria    1.00e-06 *    3.00e-04 *             o    1.20e-03 *             o  ~
  --------------------------------------------------------------------------------------------- ~
      1    -559.91454322   -5.60e+02      1.76e-02      1.76e-02 o    4.38e-02      4.38e-02 o  ~
  ---------------------------------------------------------------------------------------------

	Writing optimization data to binary file.
	Structure for next step:
	Cartesian Geometry (in Angstrom)
	   CL     0.0000000000   0.0000000000   0.5757503287
	    F     0.0000000000   0.0000000000  -1.0694838351
			--------------------------
			 OPTKING Finished Execution 
			--------------------------

    Structure for next step:
    Molecular point group: c2v
    Full point group: C_inf_v

    Geometry (in Angstrom), charge = 0, multiplicity = 1:

    CL           0.000000000000     0.000000000000     0.579181238196
    F            0.000000000000     0.000000000000    -1.066052931984

gradient() will perform gradient computation by finite difference of analytic energies.

         ----------------------------------------------------------
                                   FINDIF
                     R. A. King and Jonathon Misiewicz
         ---------------------------------------------------------

  Using finite-differences of energies to determine gradients.
    Generating geometries for use with 3-point formula.
    Displacement size will be 5.00e-03.
    Number of atoms is 2.
    Number of symmetric SALCs is 1.
    Translations projected? 1. Rotations projected? 1.
    Number of geometries (including reference) is 3.

  //>>>>>>>>>>>>>>>>>>>>>>>>>>>>>>>>>>>//
  //    Loading displacement 1 of 3    //
  //<<<<<<<<<<<<<<<<<<<<<<<<<<<<<<<<<<<//

*** tstart() called on bp1-compute00190.data.bp.acrc.priv
*** at Mon Apr 19 15:34:51 2021

   => Loading Basis Set <=

    Name: AUG-CC-PV(Q+D)Z
    Role: ORBITAL
    Keyword: BASIS
    atoms 1 entry CL         line  1246 file /work/zw18965/.conda/envs/p4env/share/psi4/basis/aug-cc-pv_qpd_z.gbs 
    atoms 2 entry F          line   499 file /work/zw18965/.conda/envs/p4env/share/psi4/basis/aug-cc-pv_qpd_z.gbs 


         ---------------------------------------------------------
                                   SCF
               by Justin Turney, Rob Parrish, Andy Simmonett
                          and Daniel G. A. Smith
                              RKS Reference
                       24 Threads, 137329 MiB Core
         ---------------------------------------------------------

  ==> Geometry <==

    Molecular point group: c2v
    Full point group: C_inf_v

    Geometry (in Angstrom), charge = 0, multiplicity = 1:

       Center              X                  Y                   Z               Mass       
    ------------   -----------------  -----------------  -----------------  -----------------
         CL           0.000000000000     0.000000000000     0.579181238196    34.968852682000
         F            0.000000000000     0.000000000000    -1.066052931984    18.998403162730

  Running in c2v symmetry.

  Rotational constants: A = ************  B =      0.50591  C =      0.50591 [cm^-1]
  Rotational constants: A = ************  B =  15166.78778  C =  15166.78778 [MHz]
  Nuclear repulsion =   49.211300555247796

  Charge       = 0
  Multiplicity = 1
  Electrons    = 26
  Nalpha       = 13
  Nbeta        = 13

  ==> Algorithm <==

  SCF Algorithm Type is DF.
  DIIS enabled.
  MOM disabled.
  Fractional occupation disabled.
  Guess Type is READ.
  Energy threshold   = 1.00e-08
  Density threshold  = 1.00e-08
  Integral threshold = 0.00e+00

  ==> Primary Basis <==

  Basis Set: AUG-CC-PV(Q+D)Z
    Blend: AUG-CC-PV(Q+D)Z
    Number of shells: 43
    Number of basis function: 169
    Number of Cartesian functions: 220
    Spherical Harmonics?: true
    Max angular momentum: 4

  ==> DFT Potential <==

   => Composite Functional: B2PLYP-D3BJ <= 

    B2PLYP Double Hybrid Exchange-Correlation Functional

    S. Grimme, J. Chem. Phys., 124, 034108, 2006


    Deriv               =              1
    GGA                 =           TRUE
    Meta                =          FALSE

    Exchange Hybrid     =           TRUE
    MP2 Hybrid          =           TRUE

   => Exchange Functionals <=

    0.4700     XC_GGA_X_B88

   => Exact (HF) Exchange <=

    0.5300               HF 

   => Correlation Functionals <=

    0.7300     XC_GGA_C_LYP

   => MP2 Correlation <=

    0.2700       MP2 

   => Molecular Quadrature <=

    Radial Scheme          =       TREUTLER
    Pruning Scheme         =           FLAT
    Nuclear Scheme         =       TREUTLER

    BS radius alpha        =              1
    Pruning alpha          =              1
    Radial Points          =             75
    Spherical Points       =            302
    Total Points           =          45099
    Total Blocks           =            422
    Max Points             =            256
    Max Functions          =            169

   => B2PLYP-D3(BJ): Empirical Dispersion <=

    Grimme's -D3 (BJ-damping) Dispersion Correction
    Grimme S.; Ehrlich S.; Goerigk L. (2011), J. Comput. Chem., 32: 1456
    Parametrisation from:    L. Goerigk, S. Grimme, Phys. Chem. Chem. Phys. 13, 6670-6688, 2011

        s6 =       0.640000
        s8 =       0.914700
        a1 =       0.306500
        a2 =       5.057000

   => Loading Basis Set <=

    Name: (AUG-CC-PV(Q+D)Z AUX)
    Role: JKFIT
    Keyword: DF_BASIS_SCF
    atoms 1 entry CL         line   904 file /work/zw18965/.conda/envs/p4env/share/psi4/basis/aug-cc-pvqz-jkfit.gbs 
    atoms 2 entry F          line   388 file /work/zw18965/.conda/envs/p4env/share/psi4/basis/aug-cc-pvqz-jkfit.gbs 

   => Loading Basis Set <=

    Name: AUG-CC-PV(Q+D)Z
    Role: ORBITAL
    Keyword: BASIS
    atoms 1 entry CL         line  1246 file /work/zw18965/.conda/envs/p4env/share/psi4/basis/aug-cc-pv_qpd_z.gbs 
    atoms 2 entry F          line   499 file /work/zw18965/.conda/envs/p4env/share/psi4/basis/aug-cc-pv_qpd_z.gbs 

  Reading orbitals from file 180, no projection.

  ==> Pre-Iterations <==

   -------------------------------------------------------
    Irrep   Nso     Nmo     Nalpha   Nbeta   Ndocc  Nsocc
   -------------------------------------------------------
     A1        66      66       0       0       0       0
     A2        23      23       0       0       0       0
     B1        40      40       0       0       0       0
     B2        40      40       0       0       0       0
   -------------------------------------------------------
    Total     169     169      13      13      13       0
   -------------------------------------------------------

  ==> Integral Setup <==

  DFHelper Memory: AOs need 0.082 GiB; user supplied 100.392 GiB. Using in-core AOs.

  ==> MemDFJK: Density-Fitted J/K Matrices <==

    J tasked:                   Yes
    K tasked:                   Yes
    wK tasked:                   No
    OpenMP threads:              24
    Memory [MiB]:            102801
    Algorithm:                 Core
    Schwarz Cutoff:           1E-12
    Mask sparsity (%):       0.0280
    Fitting Condition:        1E-10

   => Auxiliary Basis Set <=

  Basis Set: (AUG-CC-PV(Q+D)Z AUX)
    Blend: AUG-CC-PVQZ-JKFIT
    Number of shells: 80
    Number of basis function: 326
    Number of Cartesian functions: 445
    Spherical Harmonics?: true
    Max angular momentum: 5

  Cached 100.0% of DFT collocation blocks in 0.191 [GiB].

  Minimum eigenvalue in the overlap matrix is 2.8791406628E-04.
  Using Symmetric Orthogonalization.

  SCF Guess: Orbitals guess was supplied from a previous computation.

  ==> Iterations <==

                           Total Energy        Delta E     RMS |[F,P]|

   @DF-RKS iter   0:  -559.71379404926745   -5.59714e+02   6.79118e-04 
   @DF-RKS iter   1:  -559.70644215169852    7.35190e-03   1.16415e-04 DIIS
   @DF-RKS iter   2:  -559.70646432683895   -2.21751e-05   6.96033e-05 DIIS
   @DF-RKS iter   3:  -559.70647499235349   -1.06655e-05   7.93116e-06 DIIS
   @DF-RKS iter   4:  -559.70647510310278   -1.10749e-07   5.33810e-06 DIIS
   @DF-RKS iter   5:  -559.70647518502119   -8.19184e-08   1.14236e-06 DIIS
   @DF-RKS iter   6:  -559.70647518904764   -4.02645e-09   1.94330e-07 DIIS
   @DF-RKS iter   7:  -559.70647518924272   -1.95087e-10   4.40756e-08 DIIS
   @DF-RKS iter   8:  -559.70647518925705   -1.43245e-11   1.40520e-08 DIIS
   @DF-RKS iter   9:  -559.70647518925659    4.54747e-13   1.06080e-09 DIIS
  Energy and wave function converged.


  ==> Post-Iterations <==

    Orbital Energies [Eh]
    ---------------------

    Doubly Occupied:                                                      

       1A1  -103.028309     2A1   -25.415509     3A1   -10.008601  
       4A1    -7.653143     1B1    -7.641081     1B2    -7.641081  
       5A1    -1.406644     6A1    -0.953510     7A1    -0.607212  
       2B2    -0.589140     2B1    -0.589140     3B1    -0.405845  
       3B2    -0.405845  

    Virtual:                                                              

       8A1    -0.061582     9A1     0.042354     4B2     0.067623  
       4B1     0.067623    10A1     0.074710    11A1     0.145240  
       5B2     0.166778     5B1     0.166778     1A2     0.189161  
      12A1     0.189161     6B1     0.257679     6B2     0.257679  
      13A1     0.278653    14A1     0.289410     7B2     0.386411  
       7B1     0.386411    15A1     0.395906    16A1     0.510588  
       2A2     0.510589     8B1     0.526812     8B2     0.526812  
      17A1     0.548164    18A1     0.587785     3A2     0.587785  
      19A1     0.663739     9B1     0.717378     9B2     0.717378  
      10B2     0.718992    10B1     0.718992    20A1     0.786615  
      11B1     0.827401    11B2     0.827401     4A2     0.852871  
      21A1     0.852871    22A1     0.917439    12B2     1.045411  
      12B1     1.045411    23A1     1.062074    24A1     1.317667  
      25A1     1.399585     5A2     1.399586    26A1     1.468750  
      13B2     1.469370    13B1     1.469370    14B1     1.603920  
      14B2     1.603920    15B2     1.638748    15B1     1.638748  
       6A2     1.646300    27A1     1.646301    16B1     1.684440  
      16B2     1.684440    28A1     1.720478     7A2     1.720480  
      17B2     1.873138    17B1     1.873138    29A1     1.893967  
      30A1     1.920980     8A2     1.920981    18B1     1.988266  
      18B2     1.988266    31A1     2.008143     9A2     2.012649  
      32A1     2.012650    19B2     2.058373    19B1     2.058373  
      33A1     2.282498    20B1     2.315258    20B2     2.315258  
      34A1     2.337991    10A2     2.452393    35A1     2.452395  
      36A1     2.643036    21B2     2.802775    21B1     2.802775  
      37A1     2.879804    22B1     3.374553    22B2     3.374553  
      38A1     3.461503    11A2     3.461513    39A1     3.485128  
      23B1     3.675755    23B2     3.675755    40A1     4.145679  
      24B1     4.146760    24B2     4.146760    41A1     4.246980  
      12A2     4.246981    25B2     4.401473    25B1     4.401473  
      26B1     4.437451    26B2     4.437451    13A2     4.444999  
      42A1     4.445000    43A1     4.452271    14A2     4.452296  
      44A1     4.519035    45A1     4.531207    15A2     4.531302  
      27B1     4.645294    27B2     4.645294    28B1     4.702040  
      28B2     4.702040    46A1     5.058682    47A1     5.134734  
      16A2     5.196674    48A1     5.196682    29B1     5.300779  
      29B2     5.300779    30B1     5.330048    30B2     5.330048  
      49A1     5.382059    17A2     5.527129    50A1     5.527149  
      18A2     5.610146    51A1     5.610163    31B1     5.705649  
      31B2     5.705649    52A1     5.999008    32B1     6.156387  
      32B2     6.156387    33B1     6.550611    33B2     6.550611  
      53A1     6.563141    54A1     7.893571    19A2    10.955928  
      55A1    10.955934    34B1    11.112178    34B2    11.112178  
      56A1    11.324054    35B1    12.733515    35B2    12.733515  
      57A1    13.290074    20A2    13.290476    36B1    13.321281  
      36B2    13.321281    58A1    13.500252    21A2    13.500287  
      37B1    13.693377    37B2    13.693377    59A1    13.696314  
      60A1    13.961417    38B1    15.421283    38B2    15.421283  
      61A1    15.538639    22A2    15.538810    39B1    15.676302  
      39B2    15.676302    62A1    15.837488    23A2    16.291452  
      63A1    16.291550    40B1    16.755762    40B2    16.755762  
      64A1    16.982482    65A1    24.279046    66A1    53.502171  

    Final Occupation by Irrep:
             A1    A2    B1    B2 
    DOCC [     7,    0,    3,    3 ]

  @DF-RKS Final Energy:  -559.70647518925659

   => Energetics <=

    Nuclear Repulsion Energy =             49.2113005552477958
    One-Electron Energy =                -871.9719870987180457
    Two-Electron Energy =                 281.4899487813920587
    DFT Exchange-Correlation Energy =     -18.4354084071783646
    Empirical Dispersion Energy =          -0.0003290200000000
    VV10 Nonlocal Energy =                  0.0000000000000000
    Total Energy =                       -559.7064751892564800

Computation Completed


Properties will be evaluated at   0.000000,   0.000000,   0.000000 [a0]

Properties computed using the SCF density matrix

  Nuclear Dipole Moment: [e a0]
     X:     0.0000      Y:     0.0000      Z:     0.4755

  Electronic Dipole Moment: [e a0]
     X:     0.0000      Y:     0.0000      Z:    -0.0726

  Dipole Moment: [e a0]
     X:     0.0000      Y:     0.0000      Z:     0.4029     Total:     0.4029

  Dipole Moment: [D]
     X:     0.0000      Y:     0.0000      Z:     1.0240     Total:     1.0240


*** tstop() called on bp1-compute00190.data.bp.acrc.priv at Mon Apr 19 15:34:52 2021
Module time:
	user time   =      25.55 seconds =       0.43 minutes
	system time =       0.93 seconds =       0.02 minutes
	total time  =          1 seconds =       0.02 minutes
Total time:
	user time   =     180.81 seconds =       3.01 minutes
	system time =       7.02 seconds =       0.12 minutes
	total time  =          9 seconds =       0.15 minutes

*** tstart() called on bp1-compute00190.data.bp.acrc.priv
*** at Mon Apr 19 15:34:52 2021

   => Loading Basis Set <=

    Name: (AUG-CC-PV(Q+D)Z AUX)
    Role: RIFIT
    Keyword: DF_BASIS_MP2
    atoms 1 entry CL         line   914 file /work/zw18965/.conda/envs/p4env/share/psi4/basis/aug-cc-pvqz-ri.gbs 
    atoms 2 entry F          line   406 file /work/zw18965/.conda/envs/p4env/share/psi4/basis/aug-cc-pvqz-ri.gbs 

	 --------------------------------------------------------
	                          DF-MP2                         
	      2nd-Order Density-Fitted Moller-Plesset Theory     
	              RMP2 Wavefunction,  24 Threads             
	                                                         
	        Rob Parrish, Justin Turney, Andy Simmonett,      
	           Ed Hohenstein, and C. David Sherrill          
	 --------------------------------------------------------

   => Auxiliary Basis Set <=

  Basis Set: (AUG-CC-PV(Q+D)Z AUX)
    Blend: AUG-CC-PVQZ-RI
    Number of shells: 80
    Number of basis function: 362
    Number of Cartesian functions: 505
    Spherical Harmonics?: true
    Max angular momentum: 5

	 --------------------------------------------------------
	                 NBF =   169, NAUX =   362
	 --------------------------------------------------------
	   CLASS    FOCC     OCC    AOCC    AVIR     VIR    FVIR
	   PAIRS       0      13      13     156     156       0
	 --------------------------------------------------------

	-----------------------------------------------------------
	 ==================> DF-MP2 Energies <==================== 
	-----------------------------------------------------------
	 Reference Energy          =    -559.7064751892565937 [Eh]
	 Singles Energy            =      -0.0000000000000000 [Eh]
	 Same-Spin Energy          =      -0.1973423920501142 [Eh]
	 Opposite-Spin Energy      =      -0.5752330790101207 [Eh]
	 Correlation Energy        =      -0.7725754710602348 [Eh]
	 Total Energy              =    -560.4790506603168296 [Eh]
	-----------------------------------------------------------
	 ================> DF-SCS-MP2 Energies <================== 
	-----------------------------------------------------------
	 SCS Same-Spin Scale       =       0.3333333333333333 [-]
	 SCS Opposite-Spin Scale   =       1.2000000000000000 [-]
	 SCS Same-Spin Energy      =      -0.0657807973500381 [Eh]
	 SCS Opposite-Spin Energy  =      -0.6902796948121448 [Eh]
	 SCS Correlation Energy    =      -0.7560604921621829 [Eh]
	 SCS Total Energy          =    -560.4625356814187853 [Eh]
	-----------------------------------------------------------



    B2PLYP-D3BJ Energy Summary
    --------------------------
    DFT Reference Energy                  =  -559.7064751892565937
    Scaled MP2 Correlation                =    -0.2085953771862634
    @Final double-hybrid DFT total energy =  -559.9150705664428642


*** tstop() called on bp1-compute00190.data.bp.acrc.priv at Mon Apr 19 15:34:52 2021
Module time:
	user time   =      10.86 seconds =       0.18 minutes
	system time =       0.37 seconds =       0.01 minutes
	total time  =          0 seconds =       0.00 minutes
Total time:
	user time   =     191.69 seconds =       3.19 minutes
	system time =       7.39 seconds =       0.12 minutes
	total time  =          9 seconds =       0.15 minutes

  //>>>>>>>>>>>>>>>>>>>>>>>>>>>>>>>>>>>//
  //    Loading displacement 2 of 3    //
  //<<<<<<<<<<<<<<<<<<<<<<<<<<<<<<<<<<<//

*** tstart() called on bp1-compute00190.data.bp.acrc.priv
*** at Mon Apr 19 15:34:52 2021

   => Loading Basis Set <=

    Name: AUG-CC-PV(Q+D)Z
    Role: ORBITAL
    Keyword: BASIS
    atoms 1 entry CL         line  1246 file /work/zw18965/.conda/envs/p4env/share/psi4/basis/aug-cc-pv_qpd_z.gbs 
    atoms 2 entry F          line   499 file /work/zw18965/.conda/envs/p4env/share/psi4/basis/aug-cc-pv_qpd_z.gbs 


         ---------------------------------------------------------
                                   SCF
               by Justin Turney, Rob Parrish, Andy Simmonett
                          and Daniel G. A. Smith
                              RKS Reference
                       24 Threads, 137329 MiB Core
         ---------------------------------------------------------

  ==> Geometry <==

    Molecular point group: c2v
    Full point group: C_inf_v

    Geometry (in Angstrom), charge = 0, multiplicity = 1:

       Center              X                  Y                   Z               Mass       
    ------------   -----------------  -----------------  -----------------  -----------------
         CL           0.000000000000     0.000000000000     0.578915763075    34.968852682000
         F            0.000000000000     0.000000000000    -1.065564293002    18.998403162730

  Running in c2v symmetry.

  Rotational constants: A = ************  B =      0.50637  C =      0.50637 [cm^-1]
  Rotational constants: A = ************  B =  15180.70113  C =  15180.70113 [MHz]
  Nuclear repulsion =   49.233867527514960

  Charge       = 0
  Multiplicity = 1
  Electrons    = 26
  Nalpha       = 13
  Nbeta        = 13

  ==> Algorithm <==

  SCF Algorithm Type is DF.
  DIIS enabled.
  MOM disabled.
  Fractional occupation disabled.
  Guess Type is READ.
  Energy threshold   = 1.00e-08
  Density threshold  = 1.00e-08
  Integral threshold = 0.00e+00

  ==> Primary Basis <==

  Basis Set: AUG-CC-PV(Q+D)Z
    Blend: AUG-CC-PV(Q+D)Z
    Number of shells: 43
    Number of basis function: 169
    Number of Cartesian functions: 220
    Spherical Harmonics?: true
    Max angular momentum: 4

  ==> DFT Potential <==

   => Composite Functional: B2PLYP-D3BJ <= 

    B2PLYP Double Hybrid Exchange-Correlation Functional

    S. Grimme, J. Chem. Phys., 124, 034108, 2006


    Deriv               =              1
    GGA                 =           TRUE
    Meta                =          FALSE

    Exchange Hybrid     =           TRUE
    MP2 Hybrid          =           TRUE

   => Exchange Functionals <=

    0.4700     XC_GGA_X_B88

   => Exact (HF) Exchange <=

    0.5300               HF 

   => Correlation Functionals <=

    0.7300     XC_GGA_C_LYP

   => MP2 Correlation <=

    0.2700       MP2 

   => Molecular Quadrature <=

    Radial Scheme          =       TREUTLER
    Pruning Scheme         =           FLAT
    Nuclear Scheme         =       TREUTLER

    BS radius alpha        =              1
    Pruning alpha          =              1
    Radial Points          =             75
    Spherical Points       =            302
    Total Points           =          45099
    Total Blocks           =            422
    Max Points             =            256
    Max Functions          =            169

   => B2PLYP-D3(BJ): Empirical Dispersion <=

    Grimme's -D3 (BJ-damping) Dispersion Correction
    Grimme S.; Ehrlich S.; Goerigk L. (2011), J. Comput. Chem., 32: 1456
    Parametrisation from:    L. Goerigk, S. Grimme, Phys. Chem. Chem. Phys. 13, 6670-6688, 2011

        s6 =       0.640000
        s8 =       0.914700
        a1 =       0.306500
        a2 =       5.057000

   => Loading Basis Set <=

    Name: (AUG-CC-PV(Q+D)Z AUX)
    Role: JKFIT
    Keyword: DF_BASIS_SCF
    atoms 1 entry CL         line   904 file /work/zw18965/.conda/envs/p4env/share/psi4/basis/aug-cc-pvqz-jkfit.gbs 
    atoms 2 entry F          line   388 file /work/zw18965/.conda/envs/p4env/share/psi4/basis/aug-cc-pvqz-jkfit.gbs 

   => Loading Basis Set <=

    Name: AUG-CC-PV(Q+D)Z
    Role: ORBITAL
    Keyword: BASIS
    atoms 1 entry CL         line  1246 file /work/zw18965/.conda/envs/p4env/share/psi4/basis/aug-cc-pv_qpd_z.gbs 
    atoms 2 entry F          line   499 file /work/zw18965/.conda/envs/p4env/share/psi4/basis/aug-cc-pv_qpd_z.gbs 

  Reading orbitals from file 180, no projection.

  ==> Pre-Iterations <==

   -------------------------------------------------------
    Irrep   Nso     Nmo     Nalpha   Nbeta   Ndocc  Nsocc
   -------------------------------------------------------
     A1        66      66       0       0       0       0
     A2        23      23       0       0       0       0
     B1        40      40       0       0       0       0
     B2        40      40       0       0       0       0
   -------------------------------------------------------
    Total     169     169      13      13      13       0
   -------------------------------------------------------

  ==> Integral Setup <==

  DFHelper Memory: AOs need 0.082 GiB; user supplied 100.392 GiB. Using in-core AOs.

  ==> MemDFJK: Density-Fitted J/K Matrices <==

    J tasked:                   Yes
    K tasked:                   Yes
    wK tasked:                   No
    OpenMP threads:              24
    Memory [MiB]:            102801
    Algorithm:                 Core
    Schwarz Cutoff:           1E-12
    Mask sparsity (%):       0.0280
    Fitting Condition:        1E-10

   => Auxiliary Basis Set <=

  Basis Set: (AUG-CC-PV(Q+D)Z AUX)
    Blend: AUG-CC-PVQZ-JKFIT
    Number of shells: 80
    Number of basis function: 326
    Number of Cartesian functions: 445
    Spherical Harmonics?: true
    Max angular momentum: 5

  Cached 100.0% of DFT collocation blocks in 0.191 [GiB].

  Minimum eigenvalue in the overlap matrix is 2.8748235563E-04.
  Using Symmetric Orthogonalization.

  SCF Guess: Orbitals guess was supplied from a previous computation.

  ==> Iterations <==

                           Total Energy        Delta E     RMS |[F,P]|

   @DF-RKS iter   0:  -559.70674393810839   -5.59707e+02   2.26367e-05 
   @DF-RKS iter   1:  -559.70650397821419    2.39960e-04   3.83798e-06 DIIS
   @DF-RKS iter   2:  -559.70650400212412   -2.39099e-08   2.30991e-06 DIIS
   @DF-RKS iter   3:  -559.70650401373462   -1.16105e-08   2.97145e-07 DIIS
   @DF-RKS iter   4:  -559.70650401389867   -1.64050e-10   1.78631e-07 DIIS
   @DF-RKS iter   5:  -559.70650401399325   -9.45874e-11   3.42701e-08 DIIS
   @DF-RKS iter   6:  -559.70650401399701   -3.75167e-12   6.53482e-09 DIIS
  Energy and wave function converged.


  ==> Post-Iterations <==

    Orbital Energies [Eh]
    ---------------------

    Doubly Occupied:                                                      

       1A1  -103.028246     2A1   -25.415536     3A1   -10.008547  
       4A1    -7.653089     1B1    -7.641026     1B2    -7.641026  
       5A1    -1.406915     6A1    -0.953462     7A1    -0.607376  
       2B1    -0.589305     2B2    -0.589305     3B1    -0.405752  
       3B2    -0.405752  

    Virtual:                                                              

       8A1    -0.061313     9A1     0.042351     4B1     0.067622  
       4B2     0.067622    10A1     0.074752    11A1     0.145256  
       5B2     0.166774     5B1     0.166774     1A2     0.189166  
      12A1     0.189166     6B1     0.257724     6B2     0.257724  
      13A1     0.278632    14A1     0.289475     7B1     0.386391  
       7B2     0.386391    15A1     0.395896    16A1     0.510589  
       2A2     0.510589     8B1     0.526880     8B2     0.526880  
      17A1     0.548195    18A1     0.587819     3A2     0.587820  
      19A1     0.663914     9B1     0.717336     9B2     0.717336  
      10B1     0.719002    10B2     0.719002    20A1     0.786740  
      11B2     0.827514    11B1     0.827514     4A2     0.852948  
      21A1     0.852948    22A1     0.917319    12B1     1.045294  
      12B2     1.045294    23A1     1.062111    24A1     1.317738  
      25A1     1.399619     5A2     1.399619    26A1     1.468727  
      13B1     1.469345    13B2     1.469345    14B2     1.603914  
      14B1     1.603914    15B2     1.639036    15B1     1.639036  
       6A2     1.646281    27A1     1.646282    16B2     1.684579  
      16B1     1.684579    28A1     1.720493     7A2     1.720494  
      17B2     1.873161    17B1     1.873161    29A1     1.894159  
      30A1     1.921117     8A2     1.921118    18B2     1.988473  
      18B1     1.988473    31A1     2.008297     9A2     2.012754  
      32A1     2.012755    19B1     2.058515    19B2     2.058515  
      33A1     2.282842    20B1     2.315543    20B2     2.315543  
      34A1     2.337937    10A2     2.452875    35A1     2.452877  
      36A1     2.644037    21B1     2.802299    21B2     2.802299  
      37A1     2.879811    22B1     3.374926    22B2     3.374926  
      38A1     3.461526    11A2     3.461536    39A1     3.484891  
      23B1     3.676692    23B2     3.676692    40A1     4.145627  
      24B2     4.146719    24B1     4.146719    41A1     4.246630  
      12A2     4.246631    25B2     4.401443    25B1     4.401443  
      26B1     4.437271    26B2     4.437271    13A2     4.445212  
      42A1     4.445214    43A1     4.452298    14A2     4.452323  
      44A1     4.519773    45A1     4.531131    15A2     4.531226  
      27B1     4.645711    27B2     4.645711    28B1     4.702544  
      28B2     4.702544    46A1     5.059619    47A1     5.135860  
      16A2     5.197700    48A1     5.197708    29B1     5.300808  
      29B2     5.300808    30B1     5.330067    30B2     5.330067  
      49A1     5.382862    17A2     5.527330    50A1     5.527350  
      18A2     5.610679    51A1     5.610695    31B1     5.705865  
      31B2     5.705865    52A1     5.997609    32B1     6.157315  
[...]

    0.2700       MP2 

   => Molecular Quadrature <=

    Radial Scheme          =       TREUTLER
    Pruning Scheme         =           FLAT
    Nuclear Scheme         =       TREUTLER

    BS radius alpha        =              1
    Pruning alpha          =              1
    Radial Points          =             75
    Spherical Points       =            302
    Total Points           =          45099
    Total Blocks           =            423
    Max Points             =            256
    Max Functions          =            169

   => B2PLYP-D3(BJ): Empirical Dispersion <=

    Grimme's -D3 (BJ-damping) Dispersion Correction
    Grimme S.; Ehrlich S.; Goerigk L. (2011), J. Comput. Chem., 32: 1456
    Parametrisation from:    L. Goerigk, S. Grimme, Phys. Chem. Chem. Phys. 13, 6670-6688, 2011

        s6 =       0.640000
        s8 =       0.914700
        a1 =       0.306500
        a2 =       5.057000

   => Loading Basis Set <=

    Name: (AUG-CC-PV(Q+D)Z AUX)
    Role: JKFIT
    Keyword: DF_BASIS_SCF
    atoms 1 entry CL         line   904 file /work/zw18965/.conda/envs/p4env/share/psi4/basis/aug-cc-pvqz-jkfit.gbs 
    atoms 2 entry F          line   388 file /work/zw18965/.conda/envs/p4env/share/psi4/basis/aug-cc-pvqz-jkfit.gbs 

  ==> Pre-Iterations <==

   -------------------------------------------------------
    Irrep   Nso     Nmo     Nalpha   Nbeta   Ndocc  Nsocc
   -------------------------------------------------------
     A1        66      66       0       0       0       0
     A2        23      23       0       0       0       0
     B1        40      40       0       0       0       0
     B2        40      40       0       0       0       0
   -------------------------------------------------------
    Total     169     169      13      13      13       0
   -------------------------------------------------------

  ==> Integral Setup <==

  DFHelper Memory: AOs need 0.082 GiB; user supplied 100.392 GiB. Using in-core AOs.

  ==> MemDFJK: Density-Fitted J/K Matrices <==

    J tasked:                   Yes
    K tasked:                   Yes
    wK tasked:                   No
    OpenMP threads:              24
    Memory [MiB]:            102800
    Algorithm:                 Core
    Schwarz Cutoff:           1E-12
    Mask sparsity (%):       0.0140
    Fitting Condition:        1E-10

   => Auxiliary Basis Set <=

  Basis Set: (AUG-CC-PV(Q+D)Z AUX)
    Blend: AUG-CC-PVQZ-JKFIT
    Number of shells: 80
    Number of basis function: 326
    Number of Cartesian functions: 445
    Spherical Harmonics?: true
    Max angular momentum: 5

  Cached 100.0% of DFT collocation blocks in 0.191 [GiB].

  Minimum eigenvalue in the overlap matrix is 2.8172812130E-04.
  Using Symmetric Orthogonalization.

  SCF Guess: Superposition of Atomic Densities via on-the-fly atomic UHF.

  ==> Iterations <==

                           Total Energy        Delta E     RMS |[F,P]|

   @DF-RKS iter SAD:  -559.46374291423808   -5.59464e+02   0.00000e+00 
   @DF-RKS iter   1:  -559.68705077665584   -2.23308e-01   3.00547e-03 DIIS
   @DF-RKS iter   2:  -559.68938246980315   -2.33169e-03   2.78167e-03 DIIS
   @DF-RKS iter   3:  -559.70574824841594   -1.63658e-02   6.77294e-04 DIIS
   @DF-RKS iter   4:  -559.70681318303980   -1.06493e-03   8.15861e-05 DIIS
   @DF-RKS iter   5:  -559.70683363154819   -2.04485e-05   2.38626e-05 DIIS
   @DF-RKS iter   6:  -559.70683519328645   -1.56174e-06   2.52139e-06 DIIS
   @DF-RKS iter   7:  -559.70683522279057   -2.95041e-08   7.20745e-07 DIIS
   @DF-RKS iter   8:  -559.70683522467505   -1.88447e-09   1.73192e-07 DIIS
   @DF-RKS iter   9:  -559.70683522480056   -1.25510e-10   2.29182e-08 DIIS
   @DF-RKS iter  10:  -559.70683522480522   -4.66116e-12   2.84893e-09 DIIS
   @DF-RKS iter  11:  -559.70683522480522    0.00000e+00   5.33521e-10 DIIS
   @DF-RKS iter  12:  -559.70683522480454    6.82121e-13   6.66056e-11 DIIS
  Energy and wave function converged.


  ==> Post-Iterations <==

    Orbital Energies [Eh]
    ---------------------

    Doubly Occupied:                                                      

       1A1  -103.027398     2A1   -25.415906     3A1   -10.007813  
       4A1    -7.652360     1B1    -7.640291     1B2    -7.640291  
       5A1    -1.410627     6A1    -0.952823     7A1    -0.609594  
       2B1    -0.591557     2B2    -0.591557     3B1    -0.404486  
       3B2    -0.404486  

    Virtual:                                                              

       8A1    -0.057702     9A1     0.042317     4B2     0.067609  
       4B1     0.067609    10A1     0.075335    11A1     0.145477  
       5B2     0.166716     5B1     0.166716     1A2     0.189230  
      12A1     0.189231     6B2     0.258333     6B1     0.258333  
      13A1     0.278343    14A1     0.290355     7B1     0.386113  
       7B2     0.386113    15A1     0.395776    16A1     0.510585  
       2A2     0.510585     8B1     0.527801     8B2     0.527801  
      17A1     0.548604    18A1     0.588288     3A2     0.588289  
      19A1     0.666317     9B1     0.716776     9B2     0.716776  
      10B2     0.719125    10B1     0.719125    20A1     0.788406  
      11B2     0.829017    11B1     0.829017     4A2     0.853980  
      21A1     0.853981    22A1     0.915692    12B1     1.043686  
      12B2     1.043686    23A1     1.062636    24A1     1.318726  
      25A1     1.400066     5A2     1.400067    26A1     1.468402  
      13B1     1.469009    13B2     1.469009    14B2     1.603842  
      14B1     1.603842    15B1     1.642933    15B2     1.642933  
       6A2     1.646002    27A1     1.646003    16B1     1.686498  
      16B2     1.686498    28A1     1.720685     7A2     1.720687  
      17B2     1.873469    17B1     1.873469    29A1     1.896771  
      30A1     1.922967     8A2     1.922968    18B1     1.991263  
      18B2     1.991263    31A1     2.010344     9A2     2.014172  
      32A1     2.014172    19B1     2.060435    19B2     2.060435  
      33A1     2.286579    20B2     2.319399    20B1     2.319399  
      34A1     2.337955    10A2     2.459382    35A1     2.459384  
      36A1     2.657352    21B1     2.795759    21B2     2.795759  
      37A1     2.880232    22B1     3.379924    22B2     3.379924  
      38A1     3.461857    11A2     3.461867    39A1     3.481998  
      23B2     3.689413    23B1     3.689413    40A1     4.144994  
      24B2     4.146339    24B1     4.146339    41A1     4.241992  
      12A2     4.241993    25B2     4.400923    25B1     4.400923  
      26B2     4.434854    26B1     4.434854    13A2     4.448136  
      42A1     4.448137    43A1     4.452677    14A2     4.452700  
      44A1     4.529466    45A1     4.530089    15A2     4.530180  
      27B1     4.651468    27B2     4.651468    28B2     4.709333  
      28B1     4.709333    46A1     5.070860    47A1     5.152416  
      16A2     5.211350    48A1     5.211357    29B1     5.301206  
      29B2     5.301206    30B2     5.330332    30B1     5.330332  
      49A1     5.393793    17A2     5.530219    50A1     5.530236  
      18A2     5.617945    51A1     5.617960    31B2     5.708767  
      31B1     5.708767    52A1     5.979003    32B1     6.169541  
      32B2     6.169541    33B2     6.575330    33B1     6.575330  
      53A1     6.599410    54A1     7.908329    19A2    10.957007  
      55A1    10.957012    34B2    11.114677    34B1    11.114677  
      56A1    11.336832    35B1    12.744807    35B2    12.744807  
      57A1    13.288794    20A2    13.289146    36B1    13.321822  
      36B2    13.321822    58A1    13.505283    21A2    13.505314  
      37B2    13.694401    37B1    13.694401    59A1    13.694450  
      60A1    13.991835    38B1    15.420873    38B2    15.420873  
      61A1    15.540273    22A2    15.540446    39B1    15.680453  
      39B2    15.680453    62A1    15.852440    23A2    16.292982  
      63A1    16.293071    40B1    16.765809    40B2    16.765809  
      64A1    16.983093    65A1    24.337985    66A1    53.528155  

    Final Occupation by Irrep:
             A1    A2    B1    B2 
    DOCC [     7,    0,    3,    3 ]

  @DF-RKS Final Energy:  -559.70683522480454

   => Energetics <=

    Nuclear Repulsion Energy =             49.5391750715365333
    One-Electron Energy =                -872.6186035548919335
    Two-Electron Energy =                 281.8107155524813265
    DFT Exchange-Correlation Energy =     -18.4377931939303537
    Empirical Dispersion Energy =          -0.0003291000000000
    VV10 Nonlocal Energy =                  0.0000000000000000
    Total Energy =                       -559.7068352248044221

Computation Completed


Properties will be evaluated at   0.000000,   0.000000,   0.000000 [a0]

Properties computed using the SCF density matrix

  Nuclear Dipole Moment: [e a0]
     X:     0.0000      Y:     0.0000      Z:     0.4723

  Electronic Dipole Moment: [e a0]
     X:     0.0000      Y:     0.0000      Z:    -0.0830

  Dipole Moment: [e a0]
     X:     0.0000      Y:     0.0000      Z:     0.3893     Total:     0.3893

  Dipole Moment: [D]
     X:     0.0000      Y:     0.0000      Z:     0.9896     Total:     0.9896


*** tstop() called on bp1-compute00190.data.bp.acrc.priv at Mon Apr 19 15:35:21 2021
Module time:
	user time   =      42.38 seconds =       0.71 minutes
	system time =       1.34 seconds =       0.02 minutes
	total time  =          2 seconds =       0.03 minutes
Total time:
	user time   =     770.70 seconds =      12.85 minutes
	system time =      28.07 seconds =       0.47 minutes
	total time  =         38 seconds =       0.63 minutes

*** tstart() called on bp1-compute00190.data.bp.acrc.priv
*** at Mon Apr 19 15:35:21 2021

   => Loading Basis Set <=

    Name: (AUG-CC-PV(Q+D)Z AUX)
    Role: RIFIT
    Keyword: DF_BASIS_MP2
    atoms 1 entry CL         line   914 file /work/zw18965/.conda/envs/p4env/share/psi4/basis/aug-cc-pvqz-ri.gbs 
    atoms 2 entry F          line   406 file /work/zw18965/.conda/envs/p4env/share/psi4/basis/aug-cc-pvqz-ri.gbs 

	 --------------------------------------------------------
	                          DF-MP2                         
	      2nd-Order Density-Fitted Moller-Plesset Theory     
	              RMP2 Wavefunction,  24 Threads             
	                                                         
	        Rob Parrish, Justin Turney, Andy Simmonett,      
	           Ed Hohenstein, and C. David Sherrill          
	 --------------------------------------------------------

   => Auxiliary Basis Set <=

  Basis Set: (AUG-CC-PV(Q+D)Z AUX)
    Blend: AUG-CC-PVQZ-RI
    Number of shells: 80
    Number of basis function: 362
    Number of Cartesian functions: 505
    Spherical Harmonics?: true
    Max angular momentum: 5

	 --------------------------------------------------------
	                 NBF =   169, NAUX =   362
	 --------------------------------------------------------
	   CLASS    FOCC     OCC    AOCC    AVIR     VIR    FVIR
	   PAIRS       0      13      13     156     156       0
	 --------------------------------------------------------

	-----------------------------------------------------------
	 ==================> DF-MP2 Energies <==================== 
	-----------------------------------------------------------
	 Reference Energy          =    -559.7068352248045358 [Eh]
	 Singles Energy            =      -0.0000000000000000 [Eh]
	 Same-Spin Energy          =      -0.1972143711996971 [Eh]
	 Opposite-Spin Energy      =      -0.5742874442810472 [Eh]
	 Correlation Energy        =      -0.7715018154807443 [Eh]
	 Total Energy              =    -560.4783370402852825 [Eh]
	-----------------------------------------------------------
	 ================> DF-SCS-MP2 Energies <================== 
	-----------------------------------------------------------
	 SCS Same-Spin Scale       =       0.3333333333333333 [-]
	 SCS Opposite-Spin Scale   =       1.2000000000000000 [-]
	 SCS Same-Spin Energy      =      -0.0657381237332324 [Eh]
	 SCS Opposite-Spin Energy  =      -0.6891449331372566 [Eh]
	 SCS Correlation Energy    =      -0.7548830568704890 [Eh]
	 SCS Total Energy          =    -560.4617182816750756 [Eh]
	-----------------------------------------------------------



    B2PLYP-D3BJ Energy Summary
    --------------------------
    DFT Reference Energy                  =  -559.7068352248045358
    Scaled MP2 Correlation                =    -0.2083054901798010
    @Final double-hybrid DFT total energy =  -559.9151407149843180


*** tstop() called on bp1-compute00190.data.bp.acrc.priv at Mon Apr 19 15:35:22 2021
Module time:
	user time   =      11.40 seconds =       0.19 minutes
	system time =       0.40 seconds =       0.01 minutes
	total time  =          1 seconds =       0.02 minutes
Total time:
	user time   =     782.11 seconds =      13.04 minutes
	system time =      28.47 seconds =       0.47 minutes
	total time  =         39 seconds =       0.65 minutes

         ----------------------------------------------------------
                                   FINDIF
                     R. A. King and Jonathon Misiewicz
         ---------------------------------------------------------

  Computing second-derivative from energies using projected, 
  symmetry-adapted, cartesian coordinates.

  3 energies passed in, including the reference geometry.
    Using 3-point formula.
    Energy without displacement: -559.9151411062
    Check energies below for precision!
    0: -1 :      -559.9151408951
    0: 1  :      -559.9151407150

-------------------------------------------------------------


  ==> Harmonic Vibrational Analysis <==

  non-mass-weighted Hessian:       Symmetric? True   Hermitian? True   Lin Dep Dim?  5 (0)
  projection of translations (True) and rotations (True) removed 5 degrees of freedom (5)
  total projector:                 Symmetric? True   Hermitian? True   Lin Dep Dim?  5 (5)
  mass-weighted Hessian:           Symmetric? True   Hermitian? True   Lin Dep Dim?  5 (0)
  pre-proj  low-frequency mode:    0.0000  [cm^-1]
  pre-proj  low-frequency mode:    0.0000  [cm^-1]
  pre-proj  low-frequency mode:    0.0000  [cm^-1]
  pre-proj  low-frequency mode:    0.0000  [cm^-1]
  pre-proj  low-frequency mode:    0.0000  [cm^-1]
  pre-proj  all modes:['0.0000' '0.0000' '0.0000' '0.0000' '0.0000' '797.8422']
  projected mass-weighted Hessian: Symmetric? True   Hermitian? True   Lin Dep Dim?  5 (5)
  post-proj low-frequency mode:    0.0000  [cm^-1] (TR)
  post-proj low-frequency mode:    0.0000  [cm^-1] (TR)
  post-proj low-frequency mode:    0.0000  [cm^-1] (TR)
  post-proj low-frequency mode:    0.0000  [cm^-1] (TR)
  post-proj low-frequency mode:    0.0000  [cm^-1] (TR)
  post-proj  all modes:['0.0000' '0.0000' '0.0000' '0.0000' '0.0000' '797.8422']

  Vibration                       6           
  Freq [cm^-1]                 797.8422       
  Irrep                           A1          
  Reduced mass [u]             22.6381        
  Force const [mDyne/A]         8.4903        
  Turning point v=0 [a0]        0.0816        
  RMS dev v=0 [a0 u^1/2]        0.2747        
  Char temp [K]               1147.9172       
  ----------------------------------------------------------------------------------
      1   CL               0.00  0.00 -0.48   
      2   F                0.00  0.00  0.88   

  ==> Thermochemistry Components <==

  Entropy, S
    Electronic S            0.000 [cal/(mol K)]        0.000 [J/(mol K)]       0.00000000 [mEh/K] (multiplicity = 1)
    Translational S        37.879 [cal/(mol K)]      158.488 [J/(mol K)]       0.06036475 [mEh/K] (mol. weight = 53.9673 [u], P = 101325.00 [Pa])
    Rotational S           13.912 [cal/(mol K)]       58.210 [J/(mol K)]       0.02217083 [mEh/K] (symmetry no. = 1)
    Vibrational S           0.209 [cal/(mol K)]        0.875 [J/(mol K)]       0.00033317 [mEh/K]
  Total S                  52.001 [cal/(mol K)]      217.572 [J/(mol K)]       0.08286875 [mEh/K]
  Correction S              0.000 [cal/(mol K)]        0.000 [J/(mol K)]       0.00000000 [mEh/K]

  Constant volume heat capacity, Cv
    Electronic Cv           0.000 [cal/(mol K)]        0.000 [J/(mol K)]       0.00000000 [mEh/K]
    Translational Cv        2.981 [cal/(mol K)]       12.472 [J/(mol K)]       0.00475022 [mEh/K]
    Rotational Cv           1.987 [cal/(mol K)]        8.314 [J/(mol K)]       0.00316681 [mEh/K]
    Vibrational Cv          0.654 [cal/(mol K)]        2.738 [J/(mol K)]       0.00104271 [mEh/K]
  Total Cv                  5.622 [cal/(mol K)]       23.524 [J/(mol K)]       0.00895973 [mEh/K]
  Correction Cv             0.000 [cal/(mol K)]        0.000 [J/(mol K)]       0.00000000 [mEh/K]

  Constant pressure heat capacity, Cp
    Electronic Cp           0.000 [cal/(mol K)]        0.000 [J/(mol K)]       0.00000000 [mEh/K]
    Translational Cp        4.968 [cal/(mol K)]       20.786 [J/(mol K)]       0.00791703 [mEh/K]
    Rotational Cp           1.987 [cal/(mol K)]        8.314 [J/(mol K)]       0.00316681 [mEh/K]
    Vibrational Cp          0.654 [cal/(mol K)]        2.738 [J/(mol K)]       0.00104271 [mEh/K]
  Total Cp                  7.610 [cal/(mol K)]       31.838 [J/(mol K)]       0.01212654 [mEh/K]
  Correction Cp             0.000 [cal/(mol K)]        0.000 [J/(mol K)]       0.00000000 [mEh/K]

  ==> Thermochemistry Energy Analysis <==

  Raw electronic energy, E0
  Total E0, Electronic energy at well bottom at 0 [K]                 -559.91514111 [Eh]

  Zero-point energy, ZPE_vib = Sum_i nu_i / 2
    Electronic ZPE          0.000 [kcal/mol]        0.000 [kJ/mol]       0.00000000 [Eh]
    Translational ZPE       0.000 [kcal/mol]        0.000 [kJ/mol]       0.00000000 [Eh]
    Rotational ZPE          0.000 [kcal/mol]        0.000 [kJ/mol]       0.00000000 [Eh]
    Vibrational ZPE         1.141 [kcal/mol]        4.772 [kJ/mol]       0.00181762 [Eh]         398.921 [cm^-1]
  Correction ZPE            1.141 [kcal/mol]        4.772 [kJ/mol]       0.00181762 [Eh]         398.921 [cm^-1]
  Total ZPE, Electronic energy at 0 [K]                               -559.91332349 [Eh]

  Thermal Energy, E (includes ZPE)
    Electronic E            0.000 [kcal/mol]        0.000 [kJ/mol]       0.00000000 [Eh]
    Translational E         0.889 [kcal/mol]        3.718 [kJ/mol]       0.00141628 [Eh]
    Rotational E            0.592 [kcal/mol]        2.479 [kJ/mol]       0.00094418 [Eh]
    Vibrational E           1.190 [kcal/mol]        4.980 [kJ/mol]       0.00189665 [Eh]
  Correction E              2.671 [kcal/mol]       11.177 [kJ/mol]       0.00425711 [Eh]
  Total E, Electronic energy at  298.15 [K]                           -559.91088400 [Eh]

  Enthalpy, H_trans = E_trans + k_B * T
    Electronic H            0.000 [kcal/mol]        0.000 [kJ/mol]       0.00000000 [Eh]
    Translational H         1.481 [kcal/mol]        6.197 [kJ/mol]       0.00236046 [Eh]
    Rotational H            0.592 [kcal/mol]        2.479 [kJ/mol]       0.00094418 [Eh]
    Vibrational H           1.190 [kcal/mol]        4.980 [kJ/mol]       0.00189665 [Eh]
  Correction H              3.264 [kcal/mol]       13.656 [kJ/mol]       0.00520129 [Eh]
  Total H, Enthalpy at  298.15 [K]                                    -559.90993981 [Eh]

  Gibbs free energy, G = H - T * S
    Electronic G            0.000 [kcal/mol]        0.000 [kJ/mol]       0.00000000 [Eh]
    Translational G        -9.813 [kcal/mol]      -41.056 [kJ/mol]      -0.01563729 [Eh]
    Rotational G           -3.555 [kcal/mol]      -14.876 [kJ/mol]      -0.00566605 [Eh]
    Vibrational G           1.128 [kcal/mol]        4.719 [kJ/mol]       0.00179731 [Eh]
  Correction G            -12.240 [kcal/mol]      -51.213 [kJ/mol]      -0.01950602 [Eh]
  Total G, Free enthalpy at  298.15 [K]                               -559.93464713 [Eh]

    Psi4 stopped on: Monday, 19 April 2021 03:35PM
    Psi4 wall time for execution: 0:00:41.22

*** Psi4 exiting successfully. Buy a developer a beer!
