
    -----------------------------------------------------------------------
          Psi4: An Open-Source Ab Initio Electronic Structure Package
                               Psi4 1.3.2 release

                         Git: Rev {HEAD} ecbda83 


    R. M. Parrish, L. A. Burns, D. G. A. Smith, A. C. Simmonett,
    A. E. DePrince III, E. G. Hohenstein, U. Bozkaya, A. Yu. Sokolov,
    R. Di Remigio, R. M. Richard, J. F. Gonthier, A. M. James,
    H. R. McAlexander, A. Kumar, M. Saitow, X. Wang, B. P. Pritchard,
    P. Verma, H. F. Schaefer III, K. Patkowski, R. A. King, E. F. Valeev,
    F. A. Evangelista, J. M. Turney, T. D. Crawford, and C. D. Sherrill,
    J. Chem. Theory Comput. 13(7) pp 3185--3197 (2017).
    (doi: 10.1021/acs.jctc.7b00174)


                         Additional Contributions by
    P. Kraus, H. Kruse, M. H. Lechner, M. C. Schieber, R. A. Shaw,
    A. Alenaizan, R. Galvelis, Z. L. Glick, S. Lehtola, and J. P. Misiewicz

    -----------------------------------------------------------------------


    Psi4 started on: Monday, 19 April 2021 03:34PM

    Process ID: 4903
    Host:       bp1-compute00191.data.bp.acrc.priv
    PSIDATADIR: /work/zw18965/.conda/envs/p4env/share/psi4
    Memory:     500.0 MiB
    Threads:    24
    
  ==> Input File <==

--------------------------------------------------------------------------
memory 144 GB

molecule {
0 1
O     0.562242499669   0.000000000000   0.000000000000
C    -0.562242499669   0.000000000000   0.000000000000}

set basis aug-cc-pV(Q+d)Z
 
optimize("B2PLYP-D3BJ")
frequencies("B2PLYP-D3BJ")--------------------------------------------------------------------------

  Memory set to 134.110 GiB by Python driver.
gradient() will perform gradient computation by finite difference of analytic energies.

         ----------------------------------------------------------
                                   FINDIF
                     R. A. King and Jonathon Misiewicz
         ---------------------------------------------------------

  Using finite-differences of energies to determine gradients.
    Generating geometries for use with 3-point formula.
    Displacement size will be 5.00e-03.
    Number of atoms is 2.
    Number of symmetric SALCs is 1.
    Translations projected? 1. Rotations projected? 1.
    Number of geometries (including reference) is 3.

  //>>>>>>>>>>>>>>>>>>>>>>>>>>>>>>>>>>>//
  //    Loading displacement 1 of 3    //
  //<<<<<<<<<<<<<<<<<<<<<<<<<<<<<<<<<<<//

*** tstart() called on bp1-compute00191.data.bp.acrc.priv
*** at Mon Apr 19 15:34:43 2021

   => Loading Basis Set <=

    Name: AUG-CC-PV(Q+D)Z
    Role: ORBITAL
    Keyword: BASIS
    atoms 1 entry O          line   439 file /work/zw18965/.conda/envs/p4env/share/psi4/basis/aug-cc-pv_qpd_z.gbs 
    atoms 2 entry C          line   319 file /work/zw18965/.conda/envs/p4env/share/psi4/basis/aug-cc-pv_qpd_z.gbs 


         ---------------------------------------------------------
                                   SCF
               by Justin Turney, Rob Parrish, Andy Simmonett
                          and Daniel G. A. Smith
                              RKS Reference
                       24 Threads, 137329 MiB Core
         ---------------------------------------------------------

  ==> Geometry <==

    Molecular point group: c2v
    Full point group: C_inf_v

    Geometry (in Angstrom), charge = 0, multiplicity = 1:

       Center              X                  Y                   Z               Mass       
    ------------   -----------------  -----------------  -----------------  -----------------
         O            0.000000000000     0.000000000000     0.482009685524    15.994914619570
         C            0.000000000000     0.000000000000    -0.642475313814    12.000000000000

  Running in c2v symmetry.

  Rotational constants: A = ************  B =      1.94449  C =      1.94449 [cm^-1]
  Rotational constants: A = ************  B =  58294.26646  C =  58294.26646 [MHz]
  Nuclear repulsion =   22.588568213105230

  Charge       = 0
  Multiplicity = 1
  Electrons    = 14
  Nalpha       = 7
  Nbeta        = 7

  ==> Algorithm <==

  SCF Algorithm Type is DF.
  DIIS enabled.
  MOM disabled.
  Fractional occupation disabled.
  Guess Type is SAD.
  Energy threshold   = 1.00e-08
  Density threshold  = 1.00e-08
  Integral threshold = 0.00e+00

  ==> Primary Basis <==

  Basis Set: AUG-CC-PV(Q+D)Z
    Blend: AUG-CC-PV(Q+D)Z
    Number of shells: 40
    Number of basis function: 160
    Number of Cartesian functions: 210
    Spherical Harmonics?: true
    Max angular momentum: 4

  ==> DFT Potential <==

   => Composite Functional: B2PLYP-D3BJ <= 

    B2PLYP Double Hybrid Exchange-Correlation Functional

    S. Grimme, J. Chem. Phys., 124, 034108, 2006


    Deriv               =              1
    GGA                 =           TRUE
    Meta                =          FALSE

    Exchange Hybrid     =           TRUE
    MP2 Hybrid          =           TRUE

   => Exchange Functionals <=

    0.4700     XC_GGA_X_B88

   => Exact (HF) Exchange <=

    0.5300               HF 

   => Correlation Functionals <=

    0.7300     XC_GGA_C_LYP

   => MP2 Correlation <=

    0.2700       MP2 

   => Molecular Quadrature <=

    Radial Scheme          =       TREUTLER
    Pruning Scheme         =           FLAT
    Nuclear Scheme         =       TREUTLER

    BS radius alpha        =              1
    Pruning alpha          =              1
    Radial Points          =             75
    Spherical Points       =            302
    Total Points           =          45300
    Total Blocks           =            419
    Max Points             =            256
    Max Functions          =            160

   => B2PLYP-D3(BJ): Empirical Dispersion <=

    Grimme's -D3 (BJ-damping) Dispersion Correction
    Grimme S.; Ehrlich S.; Goerigk L. (2011), J. Comput. Chem., 32: 1456
    Parametrisation from:    L. Goerigk, S. Grimme, Phys. Chem. Chem. Phys. 13, 6670-6688, 2011

        s6 =       0.640000
        s8 =       0.914700
        a1 =       0.306500
        a2 =       5.057000

   => Loading Basis Set <=

    Name: (AUG-CC-PV(Q+D)Z AUX)
    Role: JKFIT
    Keyword: DF_BASIS_SCF
    atoms 1 entry O          line   318 file /work/zw18965/.conda/envs/p4env/share/psi4/basis/aug-cc-pvqz-jkfit.gbs 
    atoms 2 entry C          line   178 file /work/zw18965/.conda/envs/p4env/share/psi4/basis/aug-cc-pvqz-jkfit.gbs 

  ==> Pre-Iterations <==

   -------------------------------------------------------
    Irrep   Nso     Nmo     Nalpha   Nbeta   Ndocc  Nsocc
   -------------------------------------------------------
     A1        62      62       0       0       0       0
     A2        22      22       0       0       0       0
     B1        38      38       0       0       0       0
     B2        38      38       0       0       0       0
   -------------------------------------------------------
    Total     160     160       7       7       7       0
   -------------------------------------------------------

  ==> Integral Setup <==

  DFHelper Memory: AOs need 0.066 GiB; user supplied 100.391 GiB. Using in-core AOs.

  ==> MemDFJK: Density-Fitted J/K Matrices <==

    J tasked:                   Yes
    K tasked:                   Yes
    wK tasked:                   No
    OpenMP threads:              24
    Memory [MiB]:            102800
    Algorithm:                 Core
    Schwarz Cutoff:           1E-12
    Mask sparsity (%):       0.0000
    Fitting Condition:        1E-10

   => Auxiliary Basis Set <=

  Basis Set: (AUG-CC-PV(Q+D)Z AUX)
    Blend: AUG-CC-PVQZ-JKFIT
    Number of shells: 68
    Number of basis function: 284
    Number of Cartesian functions: 396
    Spherical Harmonics?: true
    Max angular momentum: 5

  Cached 100.0% of DFT collocation blocks in 0.192 [GiB].

  Minimum eigenvalue in the overlap matrix is 9.7874285316E-05.
  Using Symmetric Orthogonalization.

  SCF Guess: Superposition of Atomic Densities via on-the-fly atomic UHF.

  ==> Iterations <==

                           Total Energy        Delta E     RMS |[F,P]|

   @DF-RKS iter SAD:  -112.49567964459068   -1.12496e+02   0.00000e+00 
   @DF-RKS iter   1:  -113.13394705492995   -6.38267e-01   4.32784e-03 DIIS
   @DF-RKS iter   2:  -113.10165709632886    3.22900e-02   5.56075e-03 DIIS
   @DF-RKS iter   3:  -113.17404075591345   -7.23837e-02   7.28789e-04 DIIS
   @DF-RKS iter   4:  -113.17558991206626   -1.54916e-03   5.64359e-05 DIIS
   @DF-RKS iter   5:  -113.17559839774987   -8.48568e-06   9.46172e-06 DIIS
   @DF-RKS iter   6:  -113.17559863403504   -2.36285e-07   7.47891e-07 DIIS
   @DF-RKS iter   7:  -113.17559863676361   -2.72857e-09   8.40424e-08 DIIS
   @DF-RKS iter   8:  -113.17559863680877   -4.51621e-11   1.88618e-08 DIIS
   @DF-RKS iter   9:  -113.17559863681009   -1.32161e-12   3.48128e-09 DIIS
  Energy and wave function converged.


  ==> Post-Iterations <==

    Orbital Energies [Eh]
    ---------------------

    Doubly Occupied:                                                      

       1A1   -19.834463     2A1   -10.739665     3A1    -1.319915  
       4A1    -0.676497     1B1    -0.550971     1B2    -0.550971  
       5A1    -0.456470  

    Virtual:                                                              

       2B2     0.021584     2B1     0.021584     6A1     0.036418  
       7A1     0.055056     3B1     0.071495     3B2     0.071495  
       8A1     0.128729     4B1     0.137188     4B2     0.137188  
       9A1     0.187681    10A1     0.188846     1A2     0.188846  
      11A1     0.260989     5B1     0.275304     5B2     0.275304  
       6B1     0.335170     6B2     0.335170    12A1     0.343719  
      13A1     0.445879     2A2     0.468031    14A1     0.468031  
       7B2     0.544098     7B1     0.544098    15A1     0.560779  
       8B2     0.679777     8B1     0.679777     3A2     0.684561  
      16A1     0.684561    17A1     0.700341     9B1     0.744312  
       9B2     0.744312    18A1     0.801905    10B1     0.803166  
      10B2     0.803166     4A2     0.820788    19A1     0.820788  
      20A1     0.827992    11B1     0.977619    11B2     0.977619  
      21A1     1.063744    12B2     1.341657    12B1     1.341657  
      22A1     1.361389     5A2     1.395841    23A1     1.395841  
      13B2     1.428424    13B1     1.428424    24A1     1.557836  
      25A1     1.653032     6A2     1.653033    26A1     1.666593  
      14B1     1.681961    14B2     1.681961    15B1     1.841938  
      15B2     1.841938     7A2     1.999267    27A1     1.999268  
      28A1     2.027489    29A1     2.050769     8A2     2.050769  
      16B2     2.124022    16B1     2.124022    30A1     2.181352  
      17B1     2.200949    17B2     2.200949     9A2     2.242641  
      31A1     2.242642    18B1     2.247573    18B2     2.247573  
      32A1     2.351922    19B1     2.423734    19B2     2.423734  
      20B1     2.681430    20B2     2.681430    33A1     2.816543  
      34A1     2.868441    10A2     2.868441    35A1     3.345850  
      36A1     3.558088    11A2     3.558092    21B1     3.582963  
      21B2     3.582963    37A1     3.791286    22B2     3.879289  
      22B1     3.879289    38A1     3.985644    12A2     3.985645  
      23B1     4.026977    23B2     4.026977    24B1     4.114494  
      24B2     4.114494    39A1     4.122814    13A2     4.173011  
      40A1     4.173011    41A1     4.346671    25B1     4.559206  
      25B2     4.559206    42A1     4.922028    26B1     4.943783  
      26B2     4.943783    14A2     4.946384    43A1     4.946384  
      44A1     5.711093    15A2     5.719930    45A1     5.719931  
      27B2     5.940927    27B1     5.940927    28B1     6.000741  
      28B2     6.000741    16A2     6.093861    46A1     6.093865  
      29B1     6.119148    29B2     6.119148    47A1     6.190705  
      30B2     6.233190    30B1     6.233190    17A2     6.371020  
      48A1     6.371020    49A1     7.017198    18A2     7.134861  
      50A1     7.134861    31B1     7.268493    31B2     7.268493  
      51A1     7.993961    52A1     8.248286    32B2     8.372450  
      32B1     8.372450    53A1    10.303380    19A2    10.303427  
      33B1    10.583442    33B2    10.583442    34B1    10.734284  
      34B2    10.734284    54A1    10.833287    20A2    10.833291  
      55A1    11.054104    35B1    11.079635    35B2    11.079635  
      36B1    11.508960    36B2    11.508960    56A1    11.699282  
      57A1    11.949306    21A2    11.949310    37B1    12.397460  
      37B2    12.397460    22A2    12.541059    58A1    12.541085  
      59A1    13.456798    38B2    13.872963    38B1    13.872963  
      60A1    14.158890    61A1    24.530263    62A1    42.403366  

    Final Occupation by Irrep:
             A1    A2    B1    B2 
    DOCC [     5,    0,    1,    1 ]

  @DF-RKS Final Energy:  -113.17559863681009

   => Energetics <=

    Nuclear Repulsion Energy =             22.5885682131052299
    One-Electron Energy =                -198.4772742322603563
    Two-Electron Energy =                  69.3663757731803656
    DFT Exchange-Correlation Energy =      -6.6529445508353149
    Empirical Dispersion Energy =          -0.0003238400000000
    VV10 Nonlocal Energy =                  0.0000000000000000
    Total Energy =                       -113.1755986368100793

Computation Completed


Properties will be evaluated at   0.000000,   0.000000,   0.000000 [a0]

Properties computed using the SCF density matrix

  Nuclear Dipole Moment: [e a0]
     X:     0.0000      Y:     0.0000      Z:     0.0023

  Electronic Dipole Moment: [e a0]
     X:     0.0000      Y:     0.0000      Z:    -0.0222

  Dipole Moment: [e a0]
     X:     0.0000      Y:     0.0000      Z:    -0.0199     Total:     0.0199

  Dipole Moment: [D]
     X:     0.0000      Y:     0.0000      Z:    -0.0505     Total:     0.0505


*** tstop() called on bp1-compute00191.data.bp.acrc.priv at Mon Apr 19 15:34:45 2021
Module time:
	user time   =      38.78 seconds =       0.65 minutes
	system time =       1.95 seconds =       0.03 minutes
	total time  =          2 seconds =       0.03 minutes
Total time:
	user time   =      38.78 seconds =       0.65 minutes
	system time =       1.95 seconds =       0.03 minutes
	total time  =          2 seconds =       0.03 minutes

*** tstart() called on bp1-compute00191.data.bp.acrc.priv
*** at Mon Apr 19 15:34:45 2021

   => Loading Basis Set <=

    Name: (AUG-CC-PV(Q+D)Z AUX)
    Role: RIFIT
    Keyword: DF_BASIS_MP2
    atoms 1 entry O          line   332 file /work/zw18965/.conda/envs/p4env/share/psi4/basis/aug-cc-pvqz-ri.gbs 
    atoms 2 entry C          line   184 file /work/zw18965/.conda/envs/p4env/share/psi4/basis/aug-cc-pvqz-ri.gbs 

	 --------------------------------------------------------
	                          DF-MP2                         
	      2nd-Order Density-Fitted Moller-Plesset Theory     
	              RMP2 Wavefunction,  24 Threads             
	                                                         
	        Rob Parrish, Justin Turney, Andy Simmonett,      
	           Ed Hohenstein, and C. David Sherrill          
	 --------------------------------------------------------

   => Auxiliary Basis Set <=

  Basis Set: (AUG-CC-PV(Q+D)Z AUX)
    Blend: AUG-CC-PVQZ-RI
    Number of shells: 72
    Number of basis function: 336
    Number of Cartesian functions: 474
    Spherical Harmonics?: true
    Max angular momentum: 5

	 --------------------------------------------------------
	                 NBF =   160, NAUX =   336
	 --------------------------------------------------------
	   CLASS    FOCC     OCC    AOCC    AVIR     VIR    FVIR
	   PAIRS       0       7       7     153     153       0
	 --------------------------------------------------------

	-----------------------------------------------------------
	 ==================> DF-MP2 Energies <==================== 
	-----------------------------------------------------------
	 Reference Energy          =    -113.1755986368100935 [Eh]
	 Singles Energy            =      -0.0000000000000000 [Eh]
	 Same-Spin Energy          =      -0.1259225018918201 [Eh]
	 Opposite-Spin Energy      =      -0.4024770057856956 [Eh]
	 Correlation Energy        =      -0.5283995076775156 [Eh]
	 Total Energy              =    -113.7039981444876133 [Eh]
	-----------------------------------------------------------
	 ================> DF-SCS-MP2 Energies <================== 
	-----------------------------------------------------------
	 SCS Same-Spin Scale       =       0.3333333333333333 [-]
	 SCS Opposite-Spin Scale   =       1.2000000000000000 [-]
	 SCS Same-Spin Energy      =      -0.0419741672972734 [Eh]
	 SCS Opposite-Spin Energy  =      -0.4829724069428347 [Eh]
	 SCS Correlation Energy    =      -0.5249465742401080 [Eh]
	 SCS Total Energy          =    -113.7005452110501977 [Eh]
	-----------------------------------------------------------



    B2PLYP-D3BJ Energy Summary
    --------------------------
    DFT Reference Energy                  =  -113.1755986368100935
    Scaled MP2 Correlation                =    -0.1426678670729292
    @Final double-hybrid DFT total energy =  -113.3182665038830237


*** tstop() called on bp1-compute00191.data.bp.acrc.priv at Mon Apr 19 15:34:45 2021
Module time:
	user time   =      10.84 seconds =       0.18 minutes
	system time =       0.38 seconds =       0.01 minutes
	total time  =          0 seconds =       0.00 minutes
Total time:
	user time   =      49.63 seconds =       0.83 minutes
	system time =       2.33 seconds =       0.04 minutes
	total time  =          2 seconds =       0.03 minutes

  //>>>>>>>>>>>>>>>>>>>>>>>>>>>>>>>>>>>//
  //    Loading displacement 2 of 3    //
  //<<<<<<<<<<<<<<<<<<<<<<<<<<<<<<<<<<<//

*** tstart() called on bp1-compute00191.data.bp.acrc.priv
*** at Mon Apr 19 15:34:45 2021

   => Loading Basis Set <=

    Name: AUG-CC-PV(Q+D)Z
    Role: ORBITAL
    Keyword: BASIS
    atoms 1 entry O          line   439 file /work/zw18965/.conda/envs/p4env/share/psi4/basis/aug-cc-pv_qpd_z.gbs 
    atoms 2 entry C          line   319 file /work/zw18965/.conda/envs/p4env/share/psi4/basis/aug-cc-pv_qpd_z.gbs 


         ---------------------------------------------------------
                                   SCF
               by Justin Turney, Rob Parrish, Andy Simmonett
                          and Daniel G. A. Smith
                              RKS Reference
                       24 Threads, 137329 MiB Core
         ---------------------------------------------------------

  ==> Geometry <==

    Molecular point group: c2v
    Full point group: C_inf_v

    Geometry (in Angstrom), charge = 0, multiplicity = 1:

       Center              X                  Y                   Z               Mass       
    ------------   -----------------  -----------------  -----------------  -----------------
         O            0.000000000000     0.000000000000     0.481576542601    15.994914619570
         C            0.000000000000     0.000000000000    -0.641897973474    12.000000000000

  Running in c2v symmetry.

  Rotational constants: A = ************  B =      1.94799  C =      1.94799 [cm^-1]
  Rotational constants: A = ************  B =  58399.17649  C =  58399.17649 [MHz]
  Nuclear repulsion =   22.608884980235793

  Charge       = 0
  Multiplicity = 1
  Electrons    = 14
  Nalpha       = 7
  Nbeta        = 7

  ==> Algorithm <==

  SCF Algorithm Type is DF.
  DIIS enabled.
  MOM disabled.
  Fractional occupation disabled.
  Guess Type is SAD.
  Energy threshold   = 1.00e-08
  Density threshold  = 1.00e-08
  Integral threshold = 0.00e+00

  ==> Primary Basis <==

  Basis Set: AUG-CC-PV(Q+D)Z
    Blend: AUG-CC-PV(Q+D)Z
    Number of shells: 40
    Number of basis function: 160
    Number of Cartesian functions: 210
    Spherical Harmonics?: true
    Max angular momentum: 4

  ==> DFT Potential <==

   => Composite Functional: B2PLYP-D3BJ <= 

    B2PLYP Double Hybrid Exchange-Correlation Functional

    S. Grimme, J. Chem. Phys., 124, 034108, 2006


    Deriv               =              1
    GGA                 =           TRUE
    Meta                =          FALSE

    Exchange Hybrid     =           TRUE
    MP2 Hybrid          =           TRUE

   => Exchange Functionals <=

    0.4700     XC_GGA_X_B88

   => Exact (HF) Exchange <=

    0.5300               HF 

   => Correlation Functionals <=

    0.7300     XC_GGA_C_LYP

   => MP2 Correlation <=

    0.2700       MP2 

   => Molecular Quadrature <=

    Radial Scheme          =       TREUTLER
    Pruning Scheme         =           FLAT
    Nuclear Scheme         =       TREUTLER

    BS radius alpha        =              1
    Pruning alpha          =              1
    Radial Points          =             75
    Spherical Points       =            302
    Total Points           =          45300
    Total Blocks           =            419
    Max Points             =            256
    Max Functions          =            160

   => B2PLYP-D3(BJ): Empirical Dispersion <=

    Grimme's -D3 (BJ-damping) Dispersion Correction
    Grimme S.; Ehrlich S.; Goerigk L. (2011), J. Comput. Chem., 32: 1456
    Parametrisation from:    L. Goerigk, S. Grimme, Phys. Chem. Chem. Phys. 13, 6670-6688, 2011

        s6 =       0.640000
        s8 =       0.914700
        a1 =       0.306500
        a2 =       5.057000

   => Loading Basis Set <=

    Name: (AUG-CC-PV(Q+D)Z AUX)
    Role: JKFIT
    Keyword: DF_BASIS_SCF
    atoms 1 entry O          line   318 file /work/zw18965/.conda/envs/p4env/share/psi4/basis/aug-cc-pvqz-jkfit.gbs 
    atoms 2 entry C          line   178 file /work/zw18965/.conda/envs/p4env/share/psi4/basis/aug-cc-pvqz-jkfit.gbs 

  ==> Pre-Iterations <==

   -------------------------------------------------------
    Irrep   Nso     Nmo     Nalpha   Nbeta   Ndocc  Nsocc
   -------------------------------------------------------
     A1        62      62       0       0       0       0
     A2        22      22       0       0       0       0
     B1        38      38       0       0       0       0
     B2        38      38       0       0       0       0
   -------------------------------------------------------
    Total     160     160       7       7       7       0
   -------------------------------------------------------

  ==> Integral Setup <==

  DFHelper Memory: AOs need 0.066 GiB; user supplied 100.391 GiB. Using in-core AOs.

  ==> MemDFJK: Density-Fitted J/K Matrices <==

    J tasked:                   Yes
    K tasked:                   Yes
    wK tasked:                   No
    OpenMP threads:              24
    Memory [MiB]:            102800
    Algorithm:                 Core
    Schwarz Cutoff:           1E-12
    Mask sparsity (%):       0.0000
    Fitting Condition:        1E-10

   => Auxiliary Basis Set <=

  Basis Set: (AUG-CC-PV(Q+D)Z AUX)
    Blend: AUG-CC-PVQZ-JKFIT
    Number of shells: 68
    Number of basis function: 284
    Number of Cartesian functions: 396
    Spherical Harmonics?: true
    Max angular momentum: 5

  Cached 100.0% of DFT collocation blocks in 0.192 [GiB].

  Minimum eigenvalue in the overlap matrix is 9.7678089990E-05.
  Using Symmetric Orthogonalization.

  SCF Guess: Superposition of Atomic Densities via on-the-fly atomic UHF.

  ==> Iterations <==

                           Total Energy        Delta E     RMS |[F,P]|

   @DF-RKS iter SAD:  -112.49743199113543   -1.12497e+02   0.00000e+00 
   @DF-RKS iter   1:  -113.13401097891413   -6.36579e-01   4.32863e-03 DIIS
   @DF-RKS iter   2:  -113.10220177467527    3.18092e-02   5.54440e-03 DIIS
   @DF-RKS iter   3:  -113.17409053555527   -7.18888e-02   7.30617e-04 DIIS
   @DF-RKS iter   4:  -113.17564567306654   -1.55514e-03   5.63809e-05 DIIS
   @DF-RKS iter   5:  -113.17565413420054   -8.46113e-06   9.44664e-06 DIIS
   @DF-RKS iter   6:  -113.17565436989165   -2.35691e-07   7.49038e-07 DIIS
   @DF-RKS iter   7:  -113.17565437262343   -2.73178e-09   8.34441e-08 DIIS
   @DF-RKS iter   8:  -113.17565437266866   -4.52332e-11   1.91615e-08 DIIS
   @DF-RKS iter   9:  -113.17565437266968   -1.02318e-12   3.51275e-09 DIIS
  Energy and wave function converged.


  ==> Post-Iterations <==

    Orbital Energies [Eh]
    ---------------------

    Doubly Occupied:                                                      

       1A1   -19.834413     2A1   -10.739256     3A1    -1.320534  
       4A1    -0.676535     1B2    -0.551361     1B1    -0.551361  
       5A1    -0.456365  

    Virtual:                                                              

       2B1     0.021825     2B2     0.021825     6A1     0.036411  
       7A1     0.055076     3B1     0.071623     3B2     0.071623  
       8A1     0.128737     4B1     0.137176     4B2     0.137176  
       9A1     0.187681    10A1     0.188849     1A2     0.188849  
      11A1     0.261004     5B1     0.275387     5B2     0.275387  
       6B1     0.335179     6B2     0.335179    12A1     0.343765  
      13A1     0.445877     2A2     0.467987    14A1     0.467987  
       7B1     0.544074     7B2     0.544074    15A1     0.561194  
       8B1     0.679789     8B2     0.679789     3A2     0.684592  
      16A1     0.684592    17A1     0.700413     9B1     0.744459  
       9B2     0.744459    18A1     0.802008    10B1     0.803126  
      10B2     0.803126     4A2     0.820854    19A1     0.820855  
      20A1     0.828513    11B1     0.977802    11B2     0.977802  
      21A1     1.064389    12B2     1.341751    12B1     1.341751  
      22A1     1.361765     5A2     1.395733    23A1     1.395733  
      13B2     1.428328    13B1     1.428328    24A1     1.557817  
      25A1     1.653134     6A2     1.653134    26A1     1.666371  
      14B1     1.682763    14B2     1.682763    15B1     1.841471  
      15B2     1.841471     7A2     1.999312    27A1     1.999313  
      28A1     2.028011    29A1     2.050970     8A2     2.050970  
      16B1     2.124085    16B2     2.124085    30A1     2.181461  
      17B1     2.201162    17B2     2.201162     9A2     2.242798  
      31A1     2.242799    18B2     2.247930    18B1     2.247930  
      32A1     2.352104    19B2     2.424024    19B1     2.424024  
      20B1     2.682289    20B2     2.682289    33A1     2.818021  
      34A1     2.869259    10A2     2.869259    35A1     3.345686  
      36A1     3.558303    11A2     3.558307    21B1     3.583309  
      21B2     3.583309    37A1     3.791771    22B1     3.879254  
      22B2     3.879254    38A1     3.985637    12A2     3.985638  
      23B1     4.027059    23B2     4.027059    24B2     4.115579  
      24B1     4.115579    39A1     4.123072    13A2     4.173472  
      40A1     4.173472    41A1     4.348475    25B1     4.558943  
      25B2     4.558943    42A1     4.920421    26B1     4.945394  
      26B2     4.945394    14A2     4.946947    43A1     4.946947  
      44A1     5.714956    15A2     5.720033    45A1     5.720033  
      27B2     5.941880    27B1     5.941880    28B2     6.001644  
      28B1     6.001644    16A2     6.094170    46A1     6.094174  
      29B1     6.119632    29B2     6.119632    47A1     6.190198  
      30B1     6.233331    30B2     6.233331    17A2     6.371510  
      48A1     6.371510    49A1     7.021245    18A2     7.138711  
      50A1     7.138711    31B1     7.270808    31B2     7.270808  
      51A1     7.997616    52A1     8.247620    32B1     8.376031  
      32B2     8.376031    53A1    10.303367    19A2    10.303414  
      33B1    10.584175    33B2    10.584175    34B1    10.734456  
      34B2    10.734456    54A1    10.834261    20A2    10.834265  
      55A1    11.054419    35B1    11.080203    35B2    11.080203  
      36B2    11.508997    36B1    11.508997    56A1    11.700984  
      57A1    11.950365    21A2    11.950368    37B1    12.399377  
      37B2    12.399377    22A2    12.541860    58A1    12.541886  
      59A1    13.462055    38B1    13.878608    38B2    13.878608  
      60A1    14.160530    61A1    24.542963    62A1    42.408332  

    Final Occupation by Irrep:
             A1    A2    B1    B2 
    DOCC [     5,    0,    1,    1 ]

  @DF-RKS Final Energy:  -113.17565437266968

   => Energetics <=

    Nuclear Repulsion Energy =             22.6088849802357927
    One-Electron Energy =                -198.5159128790877787
    Two-Electron Energy =                  69.3851616615104234
    DFT Exchange-Correlation Energy =      -6.6534642953280994
    Empirical Dispersion Energy =          -0.0003238400000000
    VV10 Nonlocal Energy =                  0.0000000000000000
    Total Energy =                       -113.1756543726696691

Computation Completed


Properties will be evaluated at   0.000000,   0.000000,   0.000000 [a0]

Properties computed using the SCF density matrix

  Nuclear Dipole Moment: [e a0]
     X:     0.0000      Y:     0.0000      Z:     0.0023

  Electronic Dipole Moment: [e a0]
     X:     0.0000      Y:     0.0000      Z:    -0.0205

  Dipole Moment: [e a0]
     X:     0.0000      Y:     0.0000      Z:    -0.0182     Total:     0.0182

  Dipole Moment: [D]
     X:     0.0000      Y:     0.0000      Z:    -0.0463     Total:     0.0463


*** tstop() called on bp1-compute00191.data.bp.acrc.priv at Mon Apr 19 15:34:47 2021
Module time:
	user time   =      38.85 seconds =       0.65 minutes
	system time =       1.30 seconds =       0.02 minutes
	total time  =          2 seconds =       0.03 minutes
Total time:
	user time   =      88.61 seconds =       1.48 minutes
	system time =       3.63 seconds =       0.06 minutes
	total time  =          4 seconds =       0.07 minutes

*** tstart() called on bp1-compute00191.data.bp.acrc.priv
*** at Mon Apr 19 15:34:47 2021

   => Loading Basis Set <=

    Name: (AUG-CC-PV(Q+D)Z AUX)
    Role: RIFIT
    Keyword: DF_BASIS_MP2
    atoms 1 entry O          line   332 file /work/zw18965/.conda/envs/p4env/share/psi4/basis/aug-cc-pvqz-ri.gbs 
    atoms 2 entry C          line   184 file /work/zw18965/.conda/envs/p4env/share/psi4/basis/aug-cc-pvqz-ri.gbs 

	 --------------------------------------------------------
	                          DF-MP2                         
	      2nd-Order Density-Fitted Moller-Plesset Theory     
	              RMP2 Wavefunction,  24 Threads             
	                                                         
	        Rob Parrish, Justin Turney, Andy Simmonett,      
	           Ed Hohenstein, and C. David Sherrill          
	 --------------------------------------------------------

   => Auxiliary Basis Set <=

  Basis Set: (AUG-CC-PV(Q+D)Z AUX)
    Blend: AUG-CC-PVQZ-RI
    Number of shells: 72
    Number of basis function: 336
    Number of Cartesian functions: 474
    Spherical Harmonics?: true
    Max angular momentum: 5

	 --------------------------------------------------------
	                 NBF =   160, NAUX =   336
	 --------------------------------------------------------
	   CLASS    FOCC     OCC    AOCC    AVIR     VIR    FVIR
	   PAIRS       0       7       7     153     153       0
	 --------------------------------------------------------

	-----------------------------------------------------------
	 ==================> DF-MP2 Energies <==================== 
	-----------------------------------------------------------
	 Reference Energy          =    -113.1756543726696833 [Eh]
	 Singles Energy            =      -0.0000000000000000 [Eh]
	 Same-Spin Energy          =      -0.1258397309095106 [Eh]
	 Opposite-Spin Energy      =      -0.4022847562667647 [Eh]
	 Correlation Energy        =      -0.5281244871762754 [Eh]
	 Total Energy              =    -113.7037788598459542 [Eh]
	-----------------------------------------------------------
	 ================> DF-SCS-MP2 Energies <================== 
	-----------------------------------------------------------
	 SCS Same-Spin Scale       =       0.3333333333333333 [-]
	 SCS Opposite-Spin Scale   =       1.2000000000000000 [-]
	 SCS Same-Spin Energy      =      -0.0419465769698369 [Eh]
	 SCS Opposite-Spin Energy  =      -0.4827417075201177 [Eh]
	 SCS Correlation Energy    =      -0.5246882844899545 [Eh]
	 SCS Total Energy          =    -113.7003426571596378 [Eh]
	-----------------------------------------------------------



    B2PLYP-D3BJ Energy Summary
    --------------------------
    DFT Reference Energy                  =  -113.1756543726696833
    Scaled MP2 Correlation                =    -0.1425936115375944
    @Final double-hybrid DFT total energy =  -113.3182479842072752


*** tstop() called on bp1-compute00191.data.bp.acrc.priv at Mon Apr 19 15:34:48 2021
Module time:
	user time   =      10.73 seconds =       0.18 minutes
	system time =       0.37 seconds =       0.01 minutes
	total time  =          1 seconds =       0.02 minutes
Total time:
	user time   =      99.35 seconds =       1.66 minutes
	system time =       4.00 seconds =       0.07 minutes
	total time  =          5 seconds =       0.08 minutes

  //>>>>>>>>>>>>>>>>>>>>>>>>>>>>>>>>>>>//
  //    Loading displacement 3 of 3    //
  //<<<<<<<<<<<<<<<<<<<<<<<<<<<<<<<<<<<//

*** tstart() called on bp1-compute00191.data.bp.acrc.priv
*** at Mon Apr 19 15:34:48 2021

   => Loading Basis Set <=

    Name: AUG-CC-PV(Q+D)Z
    Role: ORBITAL
    Keyword: BASIS
    atoms 1 entry O          line   439 file /work/zw18965/.conda/envs/p4env/share/psi4/basis/aug-cc-pv_qpd_z.gbs 
    atoms 2 entry C          line   319 file /work/zw18965/.conda/envs/p4env/share/psi4/basis/aug-cc-pv_qpd_z.gbs 


         ---------------------------------------------------------
                                   SCF
               by Justin Turney, Rob Parrish, Andy Simmonett
                          and Daniel G. A. Smith
                              RKS Reference
                       24 Threads, 137329 MiB Core
         ---------------------------------------------------------

  ==> Geometry <==

    Molecular point group: c2v
    Full point group: C_inf_v

    Geometry (in Angstrom), charge = 0, multiplicity = 1:

       Center              X                  Y                   Z               Mass       
    ------------   -----------------  -----------------  -----------------  -----------------
         O            0.000000000000     0.000000000000     0.482442828448    15.994914619570
         C            0.000000000000     0.000000000000    -0.643052654154    12.000000000000

  Running in c2v symmetry.

  Rotational constants: A = ************  B =      1.94100  C =      1.94100 [cm^-1]
  Rotational constants: A = ************  B =  58189.63888  C =  58189.63888 [MHz]
  Nuclear repulsion =   22.568287927246192

  Charge       = 0
  Multiplicity = 1
  Electrons    = 14
  Nalpha       = 7
  Nbeta        = 7

  ==> Algorithm <==

  SCF Algorithm Type is DF.
  DIIS enabled.
  MOM disabled.
  Fractional occupation disabled.
  Guess Type is SAD.
  Energy threshold   = 1.00e-08
  Density threshold  = 1.00e-08
  Integral threshold = 0.00e+00

  ==> Primary Basis <==

  Basis Set: AUG-CC-PV(Q+D)Z
    Blend: AUG-CC-PV(Q+D)Z
    Number of shells: 40
    Number of basis function: 160
    Number of Cartesian functions: 210
    Spherical Harmonics?: true
    Max angular momentum: 4

  ==> DFT Potential <==

   => Composite Functional: B2PLYP-D3BJ <= 

    B2PLYP Double Hybrid Exchange-Correlation Functional

    S. Grimme, J. Chem. Phys., 124, 034108, 2006


    Deriv               =              1
    GGA                 =           TRUE
    Meta                =          FALSE

    Exchange Hybrid     =           TRUE
    MP2 Hybrid          =           TRUE

   => Exchange Functionals <=

    0.4700     XC_GGA_X_B88

   => Exact (HF) Exchange <=

    0.5300               HF 

   => Correlation Functionals <=

    0.7300     XC_GGA_C_LYP

   => MP2 Correlation <=

    0.2700       MP2 

   => Molecular Quadrature <=

    Radial Scheme          =       TREUTLER
    Pruning Scheme         =           FLAT
    Nuclear Scheme         =       TREUTLER

    BS radius alpha        =              1
    Pruning alpha          =              1
    Radial Points          =             75
    Spherical Points       =            302
    Total Points           =          45300
    Total Blocks           =            420
    Max Points             =            256
    Max Functions          =            160

   => B2PLYP-D3(BJ): Empirical Dispersion <=

    Grimme's -D3 (BJ-damping) Dispersion Correction
    Grimme S.; Ehrlich S.; Goerigk L. (2011), J. Comput. Chem., 32: 1456
    Parametrisation from:    L. Goerigk, S. Grimme, Phys. Chem. Chem. Phys. 13, 6670-6688, 2011

        s6 =       0.640000
        s8 =       0.914700
        a1 =       0.306500
        a2 =       5.057000

   => Loading Basis Set <=

    Name: (AUG-CC-PV(Q+D)Z AUX)
    Role: JKFIT
    Keyword: DF_BASIS_SCF
    atoms 1 entry O          line   318 file /work/zw18965/.conda/envs/p4env/share/psi4/basis/aug-cc-pvqz-jkfit.gbs 
    atoms 2 entry C          line   178 file /work/zw18965/.conda/envs/p4env/share/psi4/basis/aug-cc-pvqz-jkfit.gbs 

  ==> Pre-Iterations <==

   -------------------------------------------------------
    Irrep   Nso     Nmo     Nalpha   Nbeta   Ndocc  Nsocc
   -------------------------------------------------------
     A1        62      62       0       0       0       0
     A2        22      22       0       0       0       0
     B1        38      38       0       0       0       0
     B2        38      38       0       0       0       0
   -------------------------------------------------------
    Total     160     160       7       7       7       0
   -------------------------------------------------------

  ==> Integral Setup <==

  DFHelper Memory: AOs need 0.066 GiB; user supplied 100.391 GiB. Using in-core AOs.

  ==> MemDFJK: Density-Fitted J/K Matrices <==

    J tasked:                   Yes
    K tasked:                   Yes
    wK tasked:                   No
    OpenMP threads:              24
    Memory [MiB]:            102800
    Algorithm:                 Core
    Schwarz Cutoff:           1E-12
    Mask sparsity (%):       0.0000
    Fitting Condition:        1E-10

   => Auxiliary Basis Set <=

  Basis Set: (AUG-CC-PV(Q+D)Z AUX)
    Blend: AUG-CC-PVQZ-JKFIT
    Number of shells: 68
    Number of basis function: 284
    Number of Cartesian functions: 396
    Spherical Harmonics?: true
    Max angular momentum: 5

  Cached 100.0% of DFT collocation blocks in 0.192 [GiB].

  Minimum eigenvalue in the overlap matrix is 9.8070791037E-05.
  Using Symmetric Orthogonalization.

  SCF Guess: Superposition of Atomic Densities via on-the-fly atomic UHF.

  ==> Iterations <==

                           Total Energy        Delta E     RMS |[F,P]|

   @DF-RKS iter SAD:  -112.49392818916554   -1.12494e+02   0.00000e+00 
   @DF-RKS iter   1:  -113.13387704633101   -6.39949e-01   4.32711e-03 DIIS
   @DF-RKS iter   2:  -113.10110262504361    3.27744e-02   5.57723e-03 DIIS
   @DF-RKS iter   3:  -113.17398628577600   -7.28837e-02   7.26962e-04 DIIS
   @DF-RKS iter   4:  -113.17552946909991   -1.54318e-03   5.64927e-05 DIIS
   @DF-RKS iter   5:  -113.17553798004892   -8.51095e-06   9.47681e-06 DIIS
   @DF-RKS iter   6:  -113.17553821693019   -2.36881e-07   7.46746e-07 DIIS
   @DF-RKS iter   7:  -113.17553821965595   -2.72576e-09   8.46981e-08 DIIS
   @DF-RKS iter   8:  -113.17553821970101   -4.50626e-11   1.85535e-08 DIIS
   @DF-RKS iter   9:  -113.17553821970212   -1.10845e-12   3.44696e-09 DIIS
  Energy and wave function converged.


  ==> Post-Iterations <==

    Orbital Energies [Eh]
    ---------------------

    Doubly Occupied:                                                      

       1A1   -19.834513     2A1   -10.740075     3A1    -1.319296  
       4A1    -0.676458     1B1    -0.550582     1B2    -0.550582  
       5A1    -0.456574  

    Virtual:                                                              

       2B1     0.021342     2B2     0.021342     6A1     0.036425  
       7A1     0.055037     3B2     0.071369     3B1     0.071369  
       8A1     0.128721     4B2     0.137199     4B1     0.137199  
       9A1     0.187681    10A1     0.188842     1A2     0.188842  
      11A1     0.260975     5B2     0.275220     5B1     0.275220  
       6B2     0.335162     6B1     0.335162    12A1     0.343673  
      13A1     0.445881     2A2     0.468074    14A1     0.468074  
       7B2     0.544122     7B1     0.544122    15A1     0.560361  
       8B2     0.679765     8B1     0.679765     3A2     0.684530  
      16A1     0.684530    17A1     0.700269     9B2     0.744166  
       9B1     0.744166    18A1     0.801801    10B2     0.803206  
      10B1     0.803206     4A2     0.820721    19A1     0.820721  
      20A1     0.827471    11B2     0.977437    11B1     0.977437  
      21A1     1.063105    12B2     1.341564    12B1     1.341564  
      22A1     1.361014     5A2     1.395949    23A1     1.395949  
      13B1     1.428520    13B2     1.428520    24A1     1.557854  
      25A1     1.652930     6A2     1.652930    26A1     1.666816  
      14B2     1.681161    14B1     1.681161    15B1     1.842406  
      15B2     1.842406     7A2     1.999223    27A1     1.999223  
      28A1     2.026967    29A1     2.050569     8A2     2.050569  
      16B1     2.123958    16B2     2.123958    30A1     2.181244  
      17B2     2.200736    17B1     2.200736     9A2     2.242484  
      31A1     2.242485    18B2     2.247217    18B1     2.247217  
      32A1     2.351744    19B2     2.423443    19B1     2.423443  
      20B1     2.680574    20B2     2.680574    33A1     2.815064  
      34A1     2.867622    10A2     2.867622    35A1     3.346009  
      36A1     3.557874    11A2     3.557878    21B1     3.582612  
      21B2     3.582612    37A1     3.790800    22B2     3.879324  
      22B1     3.879324    38A1     3.985652    12A2     3.985653  
      23B1     4.026893    23B2     4.026893    24B2     4.113410  
      24B1     4.113410    39A1     4.122555    13A2     4.172550  
      40A1     4.172550    41A1     4.344876    25B2     4.559482  
      25B1     4.559482    42A1     4.923639    26B1     4.942171  
      26B2     4.942171    14A2     4.945817    43A1     4.945817  
      44A1     5.707230    15A2     5.719828    45A1     5.719828  
      27B1     5.939975    27B2     5.939975    28B2     5.999832  
      28B1     5.999832    16A2     6.093550    46A1     6.093554  
      29B2     6.118668    29B1     6.118668    47A1     6.191208  
      30B1     6.233049    30B2     6.233049    17A2     6.370534  
      48A1     6.370535    49A1     7.013149    18A2     7.131018  
      50A1     7.131018    31B1     7.266183    31B2     7.266183  
      51A1     7.990301    52A1     8.248971    32B2     8.368869  
      32B1     8.368869    53A1    10.303393    19A2    10.303441  
      33B2    10.582712    33B1    10.582712    34B2    10.734108  
      34B1    10.734108    54A1    10.832318    20A2    10.832321  
      55A1    11.053785    35B2    11.079063    35B1    11.079063  
      36B2    11.508923    36B1    11.508923    56A1    11.697576  
      57A1    11.948248    21A2    11.948251    37B2    12.395563  
      37B1    12.395563    22A2    12.540262    58A1    12.540289  
      59A1    13.451525    38B2    13.867323    38B1    13.867323  
      60A1    14.157286    61A1    24.517552    62A1    42.398410  

    Final Occupation by Irrep:
             A1    A2    B1    B2 
    DOCC [     5,    0,    1,    1 ]

  @DF-RKS Final Energy:  -113.17553821970212

   => Energetics <=

    Nuclear Repulsion Energy =             22.5682879272461925
    One-Electron Energy =                -198.4386970742019685
    Two-Electron Energy =                  69.3476208344896889
    DFT Exchange-Correlation Energy =      -6.6524260672360249
    Empirical Dispersion Energy =          -0.0003238400000000
    VV10 Nonlocal Energy =                  0.0000000000000000
    Total Energy =                       -113.1755382197021049

Computation Completed


Properties will be evaluated at   0.000000,   0.000000,   0.000000 [a0]

Properties computed using the SCF density matrix

  Nuclear Dipole Moment: [e a0]
     X:     0.0000      Y:     0.0000      Z:     0.0023

  Electronic Dipole Moment: [e a0]
     X:     0.0000      Y:     0.0000      Z:    -0.0238

  Dipole Moment: [e a0]
     X:     0.0000      Y:     0.0000      Z:    -0.0215     Total:     0.0215

  Dipole Moment: [D]
     X:     0.0000      Y:     0.0000      Z:    -0.0547     Total:     0.0547


*** tstop() called on bp1-compute00191.data.bp.acrc.priv at Mon Apr 19 15:34:49 2021
Module time:
	user time   =      38.28 seconds =       0.64 minutes
	system time =       1.48 seconds =       0.02 minutes
	total time  =          1 seconds =       0.02 minutes
Total time:
	user time   =     137.76 seconds =       2.30 minutes
	system time =       5.48 seconds =       0.09 minutes
	total time  =          6 seconds =       0.10 minutes

*** tstart() called on bp1-compute00191.data.bp.acrc.priv
*** at Mon Apr 19 15:34:49 2021

   => Loading Basis Set <=

    Name: (AUG-CC-PV(Q+D)Z AUX)
    Role: RIFIT
    Keyword: DF_BASIS_MP2
    atoms 1 entry O          line   332 file /work/zw18965/.conda/envs/p4env/share/psi4/basis/aug-cc-pvqz-ri.gbs 
    atoms 2 entry C          line   184 file /work/zw18965/.conda/envs/p4env/share/psi4/basis/aug-cc-pvqz-ri.gbs 

	 --------------------------------------------------------
	                          DF-MP2                         
	      2nd-Order Density-Fitted Moller-Plesset Theory     
	              RMP2 Wavefunction,  24 Threads             
	                                                         
	        Rob Parrish, Justin Turney, Andy Simmonett,      
	           Ed Hohenstein, and C. David Sherrill          
	 --------------------------------------------------------

   => Auxiliary Basis Set <=

  Basis Set: (AUG-CC-PV(Q+D)Z AUX)
    Blend: AUG-CC-PVQZ-RI
    Number of shells: 72
    Number of basis function: 336
    Number of Cartesian functions: 474
    Spherical Harmonics?: true
    Max angular momentum: 5

	 --------------------------------------------------------
	                 NBF =   160, NAUX =   336
	 --------------------------------------------------------
	   CLASS    FOCC     OCC    AOCC    AVIR     VIR    FVIR
	   PAIRS       0       7       7     153     153       0
	 --------------------------------------------------------

	-----------------------------------------------------------
	 ==================> DF-MP2 Energies <==================== 
	-----------------------------------------------------------
	 Reference Energy          =    -113.1755382197021191 [Eh]
	 Singles Energy            =      -0.0000000000000000 [Eh]
	 Same-Spin Energy          =      -0.1260054554499874 [Eh]
	 Opposite-Spin Energy      =      -0.4026695427242646 [Eh]
	 Correlation Energy        =      -0.5286749981742520 [Eh]
	 Total Energy              =    -113.7042132178763723 [Eh]
	-----------------------------------------------------------
	 ================> DF-SCS-MP2 Energies <================== 
	-----------------------------------------------------------
	 SCS Same-Spin Scale       =       0.3333333333333333 [-]
	 SCS Opposite-Spin Scale   =       1.2000000000000000 [-]
	 SCS Same-Spin Energy      =      -0.0420018184833291 [Eh]
	 SCS Opposite-Spin Energy  =      -0.4832034512691175 [Eh]
	 SCS Correlation Energy    =      -0.5252052697524466 [Eh]
	 SCS Total Energy          =    -113.7007434894545668 [Eh]
	-----------------------------------------------------------



    B2PLYP-D3BJ Energy Summary
    --------------------------
    DFT Reference Energy                  =  -113.1755382197021191
    Scaled MP2 Correlation                =    -0.1427422495070481
    @Final double-hybrid DFT total energy =  -113.3182804692091707


*** tstop() called on bp1-compute00191.data.bp.acrc.priv at Mon Apr 19 15:34:50 2021
Module time:
	user time   =      10.71 seconds =       0.18 minutes
	system time =       0.38 seconds =       0.01 minutes
	total time  =          1 seconds =       0.02 minutes
Total time:
	user time   =     148.48 seconds =       2.47 minutes
	system time =       5.86 seconds =       0.10 minutes
	total time  =          7 seconds =       0.12 minutes

         ----------------------------------------------------------
                                   FINDIF
                     R. A. King and Jonathon Misiewicz
         ---------------------------------------------------------

  Computing gradient from energies.
    Using 3-point formula.
    Energy without displacement: -113.3182665039
    Check energies below for precision!
    Forces are for mass-weighted, symmetry-adapted cartesians (in au).

     Coord      Energy(-1)        Energy(+1)            Force
        0   -113.3182479842   -113.3182804692     -0.0032485002


-------------------------------------------------------------
  ## New Matrix (Symmetry 0) ##
  Irrep: 1 Size: 2 x 3

                 1                   2                   3

    1     0.00000000000000     0.00000000000000    -0.00850599080501
    2     0.00000000000000     0.00000000000000     0.00850599080501




			-----------------------------------------
			 OPTKING 2.0: for geometry optimizations 
			  - R.A. King,  Bethel University        
			-----------------------------------------

	Internal coordinates to be generated automatically.
	Detected frag 1 with atoms:  1 2
	---Fragment 1 Bond Connectivity---
	 1 : 2
	 2 : 1

	---Fragment 1 Geometry and Gradient---
	 O           0.0000000000        0.0000000000        0.9108662955
	 C           0.0000000000        0.0000000000       -1.2141023855
	             0.0000000000        0.0000000000       -0.0085059908
	             0.0000000000        0.0000000000        0.0085059908

	Previous optimization step data not found.  Starting new optimization.

	---Fragment 1 Intrafragment Coordinates---
	 - Coordinate -           - BOHR/RAD -       - ANG/DEG -
	 R(1,2)           =         2.124969	       1.124485

	Current energy   :      -113.3182665039

	Generating empirical Hessian (Schlegel '84) for each fragment.
	Taking RFO optimization step.
	Going to follow RFO solution 1.
	Using RFO vector 1.
	Norm of target step-size    0.00552
	Projected energy change by RFO approximation:        -0.0000317087

	Back-transformation to cartesian coordinates...
	Successfully converged to displaced geometry.

	--- Internal Coordinate Step in ANG or DEG, aJ/ANG or AJ/DEG ---
	 ---------------------------------------------------------------------------
	   Coordinate                Previous        Force       Change         New 
	   ----------                --------       ------       ------       ------
	    1 R(1,2)          =      1.124485     0.070078     0.002920     1.127405
	 ---------------------------------------------------------------------------
	Successfully symmetrized geometry.

  ==> Convergence Check <==

  Measures of convergence in internal coordinates in au.
  Criteria marked as inactive (o), active & met (*), and active & unmet ( ).
  --------------------------------------------------------------------------------------------- ~
   Step     Total Energy     Delta E     MAX Force     RMS Force      MAX Disp      RMS Disp    ~
  --------------------------------------------------------------------------------------------- ~
    Convergence Criteria    1.00e-06 *    3.00e-04 *             o    1.20e-03 *             o  ~
  --------------------------------------------------------------------------------------------- ~
      1    -113.31826650   -1.13e+02      8.51e-03      8.51e-03 o    5.52e-03      5.52e-03 o  ~
  ---------------------------------------------------------------------------------------------

	Writing optimization data to binary file.
	Structure for next step:
	Cartesian Geometry (in Angstrom)
	    O     0.0000000000   0.0000000000   0.4834694875
	    C     0.0000000000   0.0000000000  -0.6439351152
			--------------------------
			 OPTKING Finished Execution 
			--------------------------

    Structure for next step:
    Molecular point group: c2v
    Full point group: C_inf_v

    Geometry (in Angstrom), charge = 0, multiplicity = 1:

    O            0.000000000000     0.000000000000     0.483261173291
    C            0.000000000000     0.000000000000    -0.644143433812

gradient() will perform gradient computation by finite difference of analytic energies.

         ----------------------------------------------------------
                                   FINDIF
                     R. A. King and Jonathon Misiewicz
         ---------------------------------------------------------

  Using finite-differences of energies to determine gradients.
    Generating geometries for use with 3-point formula.
    Displacement size will be 5.00e-03.
    Number of atoms is 2.
    Number of symmetric SALCs is 1.
    Translations projected? 1. Rotations projected? 1.
    Number of geometries (including reference) is 3.

  //>>>>>>>>>>>>>>>>>>>>>>>>>>>>>>>>>>>//
  //    Loading displacement 1 of 3    //
  //<<<<<<<<<<<<<<<<<<<<<<<<<<<<<<<<<<<//

*** tstart() called on bp1-compute00191.data.bp.acrc.priv
*** at Mon Apr 19 15:34:50 2021

   => Loading Basis Set <=

    Name: AUG-CC-PV(Q+D)Z
    Role: ORBITAL
    Keyword: BASIS
    atoms 1 entry O          line   439 file /work/zw18965/.conda/envs/p4env/share/psi4/basis/aug-cc-pv_qpd_z.gbs 
    atoms 2 entry C          line   319 file /work/zw18965/.conda/envs/p4env/share/psi4/basis/aug-cc-pv_qpd_z.gbs 


         ---------------------------------------------------------
                                   SCF
               by Justin Turney, Rob Parrish, Andy Simmonett
                          and Daniel G. A. Smith
                              RKS Reference
                       24 Threads, 137329 MiB Core
         ---------------------------------------------------------

  ==> Geometry <==

    Molecular point group: c2v
    Full point group: C_inf_v

    Geometry (in Angstrom), charge = 0, multiplicity = 1:

       Center              X                  Y                   Z               Mass       
    ------------   -----------------  -----------------  -----------------  -----------------
         O            0.000000000000     0.000000000000     0.483261173291    15.994914619570
         C            0.000000000000     0.000000000000    -0.644143433812    12.000000000000

  Running in c2v symmetry.

  Rotational constants: A = ************  B =      1.93443  C =      1.93443 [cm^-1]
  Rotational constants: A = ************  B =  57992.73139  C =  57992.73139 [MHz]
  Nuclear repulsion =   22.530071238077202

  Charge       = 0
  Multiplicity = 1
  Electrons    = 14
  Nalpha       = 7
  Nbeta        = 7

  ==> Algorithm <==

  SCF Algorithm Type is DF.
  DIIS enabled.
  MOM disabled.
  Fractional occupation disabled.
  Guess Type is READ.
  Energy threshold   = 1.00e-08
  Density threshold  = 1.00e-08
  Integral threshold = 0.00e+00

  ==> Primary Basis <==

  Basis Set: AUG-CC-PV(Q+D)Z
    Blend: AUG-CC-PV(Q+D)Z
    Number of shells: 40
    Number of basis function: 160
    Number of Cartesian functions: 210
    Spherical Harmonics?: true
    Max angular momentum: 4

  ==> DFT Potential <==

   => Composite Functional: B2PLYP-D3BJ <= 

    B2PLYP Double Hybrid Exchange-Correlation Functional

    S. Grimme, J. Chem. Phys., 124, 034108, 2006


    Deriv               =              1
    GGA                 =           TRUE
    Meta                =          FALSE

    Exchange Hybrid     =           TRUE
    MP2 Hybrid          =           TRUE

   => Exchange Functionals <=

    0.4700     XC_GGA_X_B88

   => Exact (HF) Exchange <=

    0.5300               HF 

   => Correlation Functionals <=

    0.7300     XC_GGA_C_LYP

   => MP2 Correlation <=

    0.2700       MP2 

   => Molecular Quadrature <=

    Radial Scheme          =       TREUTLER
    Pruning Scheme         =           FLAT
    Nuclear Scheme         =       TREUTLER

    BS radius alpha        =              1
    Pruning alpha          =              1
    Radial Points          =             75
    Spherical Points       =            302
    Total Points           =          45300
    Total Blocks           =            421
    Max Points             =            256
    Max Functions          =            160

   => B2PLYP-D3(BJ): Empirical Dispersion <=

    Grimme's -D3 (BJ-damping) Dispersion Correction
    Grimme S.; Ehrlich S.; Goerigk L. (2011), J. Comput. Chem., 32: 1456
    Parametrisation from:    L. Goerigk, S. Grimme, Phys. Chem. Chem. Phys. 13, 6670-6688, 2011

        s6 =       0.640000
        s8 =       0.914700
        a1 =       0.306500
        a2 =       5.057000

   => Loading Basis Set <=

    Name: (AUG-CC-PV(Q+D)Z AUX)
    Role: JKFIT
    Keyword: DF_BASIS_SCF
    atoms 1 entry O          line   318 file /work/zw18965/.conda/envs/p4env/share/psi4/basis/aug-cc-pvqz-jkfit.gbs 
    atoms 2 entry C          line   178 file /work/zw18965/.conda/envs/p4env/share/psi4/basis/aug-cc-pvqz-jkfit.gbs 

   => Loading Basis Set <=

    Name: AUG-CC-PV(Q+D)Z
    Role: ORBITAL
    Keyword: BASIS
    atoms 1 entry O          line   439 file /work/zw18965/.conda/envs/p4env/share/psi4/basis/aug-cc-pv_qpd_z.gbs 
    atoms 2 entry C          line   319 file /work/zw18965/.conda/envs/p4env/share/psi4/basis/aug-cc-pv_qpd_z.gbs 

  Reading orbitals from file 180, no projection.

  ==> Pre-Iterations <==

   -------------------------------------------------------
    Irrep   Nso     Nmo     Nalpha   Nbeta   Ndocc  Nsocc
   -------------------------------------------------------
     A1        62      62       0       0       0       0
     A2        22      22       0       0       0       0
     B1        38      38       0       0       0       0
     B2        38      38       0       0       0       0
   -------------------------------------------------------
    Total     160     160       7       7       7       0
   -------------------------------------------------------

  ==> Integral Setup <==

  DFHelper Memory: AOs need 0.066 GiB; user supplied 100.391 GiB. Using in-core AOs.

  ==> MemDFJK: Density-Fitted J/K Matrices <==

    J tasked:                   Yes
    K tasked:                   Yes
    wK tasked:                   No
    OpenMP threads:              24
    Memory [MiB]:            102800
    Algorithm:                 Core
    Schwarz Cutoff:           1E-12
    Mask sparsity (%):       0.0000
    Fitting Condition:        1E-10

   => Auxiliary Basis Set <=

  Basis Set: (AUG-CC-PV(Q+D)Z AUX)
    Blend: AUG-CC-PVQZ-JKFIT
    Number of shells: 68
    Number of basis function: 284
    Number of Cartesian functions: 396
    Spherical Harmonics?: true
    Max angular momentum: 5

  Cached 100.0% of DFT collocation blocks in 0.192 [GiB].

  Minimum eigenvalue in the overlap matrix is 9.8442910529E-05.
  Using Symmetric Orthogonalization.

  SCF Guess: Orbitals guess was supplied from a previous computation.

  ==> Iterations <==

                           Total Energy        Delta E     RMS |[F,P]|

   @DF-RKS iter   0:  -113.17367724883195   -1.13174e+02   1.55740e-04 
   @DF-RKS iter   1:  -113.17541070216507   -1.73345e-03   1.54673e-05 DIIS
   @DF-RKS iter   2:  -113.17541026624502    4.35920e-07   2.16317e-05 DIIS
   @DF-RKS iter   3:  -113.17541140676578   -1.14052e-06   1.64800e-06 DIIS
   @DF-RKS iter   4:  -113.17541141194958   -5.18381e-09   2.04837e-07 DIIS
   @DF-RKS iter   5:  -113.17541141213106   -1.81473e-10   9.00710e-08 DIIS
   @DF-RKS iter   6:  -113.17541141215499   -2.39311e-11   1.49840e-08 DIIS
   @DF-RKS iter   7:  -113.17541141215548   -4.97380e-13   2.29085e-09 DIIS
  Energy and wave function converged.


  ==> Post-Iterations <==

    Orbital Energies [Eh]
    ---------------------

    Doubly Occupied:                                                      

       1A1   -19.834605     2A1   -10.740847     3A1    -1.318128  
       4A1    -0.676386     1B1    -0.549848     1B2    -0.549848  
       5A1    -0.456771  

    Virtual:                                                              

       2B2     0.020882     2B1     0.020882     6A1     0.036438  
       7A1     0.055000     3B2     0.071134     3B1     0.071134  
       8A1     0.128707     4B2     0.137221     4B1     0.137221  
       9A1     0.187681    10A1     0.188835     1A2     0.188835  
      11A1     0.260947     5B2     0.275064     5B1     0.275064  
       6B2     0.335146     6B1     0.335146    12A1     0.343585  
      13A1     0.445885     2A2     0.468156    14A1     0.468156  
       7B2     0.544167     7B1     0.544167    15A1     0.559562  
       8B1     0.679741     8B2     0.679741     3A2     0.684470  
      16A1     0.684470    17A1     0.700132     9B2     0.743889  
       9B1     0.743889    18A1     0.801597    10B2     0.803281  
      10B1     0.803281     4A2     0.820596    19A1     0.820596  
      20A1     0.826491    11B2     0.977094    11B1     0.977094  
      21A1     1.061915    12B2     1.341387    12B1     1.341387  
      22A1     1.360311     5A2     1.396154    23A1     1.396154  
      13B2     1.428700    13B1     1.428700    24A1     1.557883  
      25A1     1.652734     6A2     1.652734    26A1     1.667244  
      14B2     1.679651    14B1     1.679651    15B2     1.843294  
      15B1     1.843294     7A2     1.999137    27A1     1.999138  
      28A1     2.025982    29A1     2.050191     8A2     2.050191  
      16B2     2.123838    16B1     2.123838    30A1     2.181042  
      17B2     2.200332    17B1     2.200332     9A2     2.242187  
      31A1     2.242187    18B2     2.246544    18B1     2.246544  
      32A1     2.351419    19B2     2.422889    19B1     2.422889  
      20B1     2.678965    20B2     2.678965    33A1     2.812270  
      34A1     2.866074    10A2     2.866075    35A1     3.346295  
      36A1     3.557473    11A2     3.557476    21B2     3.581939  
      21B1     3.581939    37A1     3.789879    22B2     3.879389  
      22B1     3.879389    38A1     3.985671    12A2     3.985671  
      23B1     4.026731    23B2     4.026731    24B2     4.111367  
      24B1     4.111367    39A1     4.122068    13A2     4.171680  
      40A1     4.171680    41A1     4.341505    25B2     4.560038  
      25B1     4.560038    42A1     4.926691    26B1     4.939120  
      26B2     4.939120    14A2     4.944734    43A1     4.944735  
      44A1     5.699932    15A2     5.719634    45A1     5.719634  
      27B1     5.938185    27B2     5.938185    28B2     5.998104  
      28B1     5.998104    16A2     6.092958    46A1     6.092962  
      29B2     6.117775    29B1     6.117775    47A1     6.192148  
      30B1     6.232786    30B2     6.232786    17A2     6.369629  
      48A1     6.369630    49A1     7.005499    18A2     7.123776  
      50A1     7.123777    31B2     7.261828    31B1     7.261828  
      51A1     7.983374    52A1     8.250318    32B2     8.362104  
      32B1     8.362104    53A1    10.303420    19A2    10.303469  
      33B2    10.581340    33B1    10.581340    34B2    10.733764  
      34B1    10.733764    54A1    10.830498    20A2    10.830501  
      55A1    11.053171    35B2    11.077970    35B1    11.077970  
      36B1    11.508855    36B2    11.508855    56A1    11.694340  
      57A1    11.946249    21A2    11.946252    37B2    12.392039  
      37B1    12.392039    22A2    12.538772    58A1    12.538799  
      59A1    13.441520    38B2    13.856685    38B1    13.856685  
      60A1    14.154353    61A1    24.493511    62A1    42.389077  

    Final Occupation by Irrep:
             A1    A2    B1    B2 
    DOCC [     5,    0,    1,    1 ]

  @DF-RKS Final Energy:  -113.17541141215548

   => Energetics <=

    Nuclear Repulsion Energy =             22.5300712380772019
    One-Electron Energy =                -198.3659802904973333
    Two-Electron Energy =                  69.3122714191545413
    DFT Exchange-Correlation Energy =      -6.6514499388898827
    Empirical Dispersion Energy =          -0.0003238400000000
    VV10 Nonlocal Energy =                  0.0000000000000000
    Total Energy =                       -113.1754114121554693

Computation Completed


Properties will be evaluated at   0.000000,   0.000000,   0.000000 [a0]

Properties computed using the SCF density matrix

  Nuclear Dipole Moment: [e a0]
     X:     0.0000      Y:     0.0000      Z:     0.0023

  Electronic Dipole Moment: [e a0]
     X:     0.0000      Y:     0.0000      Z:    -0.0270

  Dipole Moment: [e a0]
     X:     0.0000      Y:     0.0000      Z:    -0.0246     Total:     0.0246

  Dipole Moment: [D]
     X:     0.0000      Y:     0.0000      Z:    -0.0626     Total:     0.0626


*** tstop() called on bp1-compute00191.data.bp.acrc.priv at Mon Apr 19 15:34:51 2021
Module time:
	user time   =      23.95 seconds =       0.40 minutes
	system time =       0.94 seconds =       0.02 minutes
	total time  =          1 seconds =       0.02 minutes
Total time:
	user time   =     173.08 seconds =       2.88 minutes
	system time =       6.82 seconds =       0.11 minutes
	total time  =          8 seconds =       0.13 minutes

*** tstart() called on bp1-compute00191.data.bp.acrc.priv
*** at Mon Apr 19 15:34:51 2021

   => Loading Basis Set <=

    Name: (AUG-CC-PV(Q+D)Z AUX)
    Role: RIFIT
    Keyword: DF_BASIS_MP2
    atoms 1 entry O          line   332 file /work/zw18965/.conda/envs/p4env/share/psi4/basis/aug-cc-pvqz-ri.gbs 
    atoms 2 entry C          line   184 file /work/zw18965/.conda/envs/p4env/share/psi4/basis/aug-cc-pvqz-ri.gbs 

	 --------------------------------------------------------
	                          DF-MP2                         
	      2nd-Order Density-Fitted Moller-Plesset Theory     
	              RMP2 Wavefunction,  24 Threads             
	                                                         
	        Rob Parrish, Justin Turney, Andy Simmonett,      
	           Ed Hohenstein, and C. David Sherrill          
	 --------------------------------------------------------

   => Auxiliary Basis Set <=

  Basis Set: (AUG-CC-PV(Q+D)Z AUX)
    Blend: AUG-CC-PVQZ-RI
    Number of shells: 72
    Number of basis function: 336
    Number of Cartesian functions: 474
    Spherical Harmonics?: true
    Max angular momentum: 5

	 --------------------------------------------------------
	                 NBF =   160, NAUX =   336
	 --------------------------------------------------------
	   CLASS    FOCC     OCC    AOCC    AVIR     VIR    FVIR
	   PAIRS       0       7       7     153     153       0
	 --------------------------------------------------------

	-----------------------------------------------------------
	 ==================> DF-MP2 Energies <==================== 
	-----------------------------------------------------------
	 Reference Energy          =    -113.1754114121554835 [Eh]
	 Singles Energy            =      -0.0000000000000000 [Eh]
	 Same-Spin Energy          =      -0.1261626796550141 [Eh]
	 Opposite-Spin Energy      =      -0.4030340910636494 [Eh]
	 Correlation Energy        =      -0.5291967707186636 [Eh]
	 Total Energy              =    -113.7046081828741535 [Eh]
	-----------------------------------------------------------
	 ================> DF-SCS-MP2 Energies <================== 
	-----------------------------------------------------------
	 SCS Same-Spin Scale       =       0.3333333333333333 [-]
	 SCS Opposite-Spin Scale   =       1.2000000000000000 [-]
	 SCS Same-Spin Energy      =      -0.0420542265516714 [Eh]
	 SCS Opposite-Spin Energy  =      -0.4836409092763793 [Eh]
	 SCS Correlation Energy    =      -0.5256951358280506 [Eh]
	 SCS Total Energy          =    -113.7011065479835281 [Eh]
	-----------------------------------------------------------



    B2PLYP-D3BJ Energy Summary
    --------------------------
    DFT Reference Energy                  =  -113.1754114121554835
    Scaled MP2 Correlation                =    -0.1428831280940392
    @Final double-hybrid DFT total energy =  -113.3182945402495250


*** tstop() called on bp1-compute00191.data.bp.acrc.priv at Mon Apr 19 15:34:52 2021
Module time:
	user time   =      10.74 seconds =       0.18 minutes
	system time =       0.37 seconds =       0.01 minutes
	total time  =          1 seconds =       0.02 minutes
Total time:
	user time   =     183.83 seconds =       3.06 minutes
	system time =       7.19 seconds =       0.12 minutes
	total time  =          9 seconds =       0.15 minutes

  //>>>>>>>>>>>>>>>>>>>>>>>>>>>>>>>>>>>//
  //    Loading displacement 2 of 3    //
  //<<<<<<<<<<<<<<<<<<<<<<<<<<<<<<<<<<<//

*** tstart() called on bp1-compute00191.data.bp.acrc.priv
*** at Mon Apr 19 15:34:52 2021

   => Loading Basis Set <=

    Name: AUG-CC-PV(Q+D)Z
    Role: ORBITAL
    Keyword: BASIS
    atoms 1 entry O          line   439 file /work/zw18965/.conda/envs/p4env/share/psi4/basis/aug-cc-pv_qpd_z.gbs 
    atoms 2 entry C          line   319 file /work/zw18965/.conda/envs/p4env/share/psi4/basis/aug-cc-pv_qpd_z.gbs 


         ---------------------------------------------------------
                                   SCF
               by Justin Turney, Rob Parrish, Andy Simmonett
                          and Daniel G. A. Smith
                              RKS Reference
                       24 Threads, 137329 MiB Core
         ---------------------------------------------------------

  ==> Geometry <==

    Molecular point group: c2v
    Full point group: C_inf_v

    Geometry (in Angstrom), charge = 0, multiplicity = 1:

       Center              X                  Y                   Z               Mass       
    ------------   -----------------  -----------------  -----------------  -----------------
         O            0.000000000000     0.000000000000     0.482828030367    15.994914619570
         C            0.000000000000     0.000000000000    -0.643566093472    12.000000000000

  Running in c2v symmetry.

  Rotational constants: A = ************  B =      1.93790  C =      1.93790 [cm^-1]
  Rotational constants: A = ************  B =  58096.82811  C =  58096.82811 [MHz]
  Nuclear repulsion =   22.550282866870500

  Charge       = 0
  Multiplicity = 1
  Electrons    = 14
  Nalpha       = 7
  Nbeta        = 7

  ==> Algorithm <==

  SCF Algorithm Type is DF.
  DIIS enabled.
  MOM disabled.
  Fractional occupation disabled.
  Guess Type is READ.
  Energy threshold   = 1.00e-08
  Density threshold  = 1.00e-08
  Integral threshold = 0.00e+00

  ==> Primary Basis <==

  Basis Set: AUG-CC-PV(Q+D)Z
    Blend: AUG-CC-PV(Q+D)Z
    Number of shells: 40
    Number of basis function: 160
    Number of Cartesian functions: 210
    Spherical Harmonics?: true
    Max angular momentum: 4

  ==> DFT Potential <==

   => Composite Functional: B2PLYP-D3BJ <= 

    B2PLYP Double Hybrid Exchange-Correlation Functional

    S. Grimme, J. Chem. Phys., 124, 034108, 2006


    Deriv               =              1
    GGA                 =           TRUE
    Meta                =          FALSE

    Exchange Hybrid     =           TRUE
    MP2 Hybrid          =           TRUE

   => Exchange Functionals <=

    0.4700     XC_GGA_X_B88

   => Exact (HF) Exchange <=

    0.5300               HF 

   => Correlation Functionals <=

    0.7300     XC_GGA_C_LYP

   => MP2 Correlation <=

    0.2700       MP2 

   => Molecular Quadrature <=

    Radial Scheme          =       TREUTLER
    Pruning Scheme         =           FLAT
    Nuclear Scheme         =       TREUTLER

    BS radius alpha        =              1
    Pruning alpha          =              1
    Radial Points          =             75
    Spherical Points       =            302
    Total Points           =          45300
    Total Blocks           =            420
    Max Points             =            256
    Max Functions          =            160

   => B2PLYP-D3(BJ): Empirical Dispersion <=

    Grimme's -D3 (BJ-damping) Dispersion Correction
    Grimme S.; Ehrlich S.; Goerigk L. (2011), J. Comput. Chem., 32: 1456
    Parametrisation from:    L. Goerigk, S. Grimme, Phys. Chem. Chem. Phys. 13, 6670-6688, 2011

        s6 =       0.640000
        s8 =       0.914700
        a1 =       0.306500
        a2 =       5.057000

   => Loading Basis Set <=

    Name: (AUG-CC-PV(Q+D)Z AUX)
    Role: JKFIT
    Keyword: DF_BASIS_SCF
    atoms 1 entry O          line   318 file /work/zw18965/.conda/envs/p4env/share/psi4/basis/aug-cc-pvqz-jkfit.gbs 
    atoms 2 entry C          line   178 file /work/zw18965/.conda/envs/p4env/share/psi4/basis/aug-cc-pvqz-jkfit.gbs 

   => Loading Basis Set <=

    Name: AUG-CC-PV(Q+D)Z
    Role: ORBITAL
    Keyword: BASIS
    atoms 1 entry O          line   439 file /work/zw18965/.conda/envs/p4env/share/psi4/basis/aug-cc-pv_qpd_z.gbs 
    atoms 2 entry C          line   319 file /work/zw18965/.conda/envs/p4env/share/psi4/basis/aug-cc-pv_qpd_z.gbs 

  Reading orbitals from file 180, no projection.

  ==> Pre-Iterations <==

   -------------------------------------------------------
    Irrep   Nso     Nmo     Nalpha   Nbeta   Ndocc  Nsocc
   -------------------------------------------------------
     A1        62      62       0       0       0       0
     A2        22      22       0       0       0       0
     B1        38      38       0       0       0       0
     B2        38      38       0       0       0       0
   -------------------------------------------------------
    Total     160     160       7       7       7       0
   -------------------------------------------------------

  ==> Integral Setup <==

  DFHelper Memory: AOs need 0.066 GiB; user supplied 100.391 GiB. Using in-core AOs.

  ==> MemDFJK: Density-Fitted J/K Matrices <==

    J tasked:                   Yes
    K tasked:                   Yes
    wK tasked:                   No
    OpenMP threads:              24
    Memory [MiB]:            102800
    Algorithm:                 Core
    Schwarz Cutoff:           1E-12
    Mask sparsity (%):       0.0000
    Fitting Condition:        1E-10

   => Auxiliary Basis Set <=

  Basis Set: (AUG-CC-PV(Q+D)Z AUX)
    Blend: AUG-CC-PVQZ-JKFIT
    Number of shells: 68
    Number of basis function: 284
    Number of Cartesian functions: 396
    Spherical Harmonics?: true
    Max angular momentum: 5

  Cached 100.0% of DFT collocation blocks in 0.192 [GiB].

  Minimum eigenvalue in the overlap matrix is 9.8245810315E-05.
  Using Symmetric Orthogonalization.

  SCF Guess: Orbitals guess was supplied from a previous computation.

  ==> Iterations <==

                           Total Energy        Delta E     RMS |[F,P]|

   @DF-RKS iter   0:  -113.17609640329231   -1.13176e+02   5.37109e-05 
   @DF-RKS iter   1:  -113.17548049938192    6.15904e-04   5.32567e-06 DIIS
   @DF-RKS iter   2:  -113.17548044855958    5.08223e-08   7.43133e-06 DIIS
   @DF-RKS iter   3:  -113.17548058304573   -1.34486e-07   5.69024e-07 DIIS
   @DF-RKS iter   4:  -113.17548058366413   -6.18400e-10   7.13757e-08 DIIS
   @DF-RKS iter   5:  -113.17548058368605   -2.19273e-11   3.13488e-08 DIIS
   @DF-RKS iter   6:  -113.17548058368882   -2.77112e-12   5.19212e-09 DIIS
  Energy and wave function converged.


  ==> Post-Iterations <==

    Orbital Energies [Eh]
    ---------------------

    Doubly Occupied:                                                      

       1A1   -19.834556     2A1   -10.740438     3A1    -1.318746  
       4A1    -0.676424     1B2    -0.550236     1B1    -0.550236  
       5A1    -0.456667  

    Virtual:                                                              

       2B2     0.021126     2B1     0.021126     6A1     0.036431  
       7A1     0.055020     3B1     0.071257     3B2     0.071257  
       8A1     0.128714     4B1     0.137209     4B2     0.137209  
       9A1     0.187681    10A1     0.188839     1A2     0.188839  
      11A1     0.260962     5B1     0.275147     5B2     0.275147  
       6B1     0.335154     6B2     0.335154    12A1     0.343632  
      13A1     0.445883     2A2     0.468113    14A1     0.468113  
       7B1     0.544144     7B2     0.544144    15A1     0.559986  
       8B2     0.679754     8B1     0.679754     3A2     0.684502  
      16A1     0.684502    17A1     0.700204     9B1     0.744036  
       9B2     0.744036    18A1     0.801706    10B1     0.803241  
      10B2     0.803241     4A2     0.820662    19A1     0.820662  
      20A1     0.827009    11B2     0.977275    11B1     0.977275  
      21A1     1.062542    12B2     1.341481    12B1     1.341481  
      22A1     1.360683     5A2     1.396046    23A1     1.396046  
      13B2     1.428605    13B1     1.428605    24A1     1.557868  
      25A1     1.652838     6A2     1.652838    26A1     1.667017  
      14B2     1.680450    14B1     1.680450    15B2     1.842823  
      15B1     1.842823     7A2     1.999182    27A1     1.999183  
      28A1     2.026503    29A1     2.050391     8A2     2.050391  
      16B2     2.123902    16B1     2.123902    30A1     2.181148  
      17B1     2.200546    17B2     2.200546     9A2     2.242344  
      31A1     2.242345    18B1     2.246900    18B2     2.246900  
      32A1     2.351589    19B2     2.423183    19B1     2.423183  
      20B2     2.679815    20B1     2.679815    33A1     2.813749  
      34A1     2.866894    10A2     2.866894    35A1     3.346146  
      36A1     3.557685    11A2     3.557689    21B2     3.582297  
      21B1     3.582297    37A1     3.790367    22B2     3.879355  
      22B1     3.879355    38A1     3.985660    12A2     3.985661  
      23B2     4.026818    23B1     4.026818    24B1     4.112447  
      24B2     4.112447    39A1     4.122326    13A2     4.172141  
      40A1     4.172141    41A1     4.343285    25B2     4.559738  
      25B1     4.559738    42A1     4.925074    26B2     4.940735  
      26B1     4.940735    14A2     4.945309    43A1     4.945309  
      44A1     5.703795    15A2     5.719736    45A1     5.719737  
      27B2     5.939132    27B1     5.939132    28B2     5.999021  
      28B1     5.999021    16A2     6.093272    46A1     6.093276  
      29B2     6.118245    29B1     6.118245    47A1     6.191652  
      30B2     6.232925    30B1     6.232925    17A2     6.370106  
      48A1     6.370107    49A1     7.009549    18A2     7.127606  
      50A1     7.127606    31B2     7.264131    31B1     7.264131  
      51A1     7.987042    52A1     8.249597    32B2     8.365684  
      32B1     8.365684    53A1    10.303405    19A2    10.303454  
      33B1    10.582065    33B2    10.582065    34B2    10.733948  
      34B1    10.733948    54A1    10.831459    20A2    10.831462  
      55A1    11.053498    35B2    11.078550    35B1    11.078550  
      36B1    11.508891    36B2    11.508891    56A1    11.696055  
      57A1    11.947307    21A2    11.947310    37B2    12.393895  
      37B1    12.393895    22A2    12.539559    58A1    12.539586  
      59A1    13.446822    38B2    13.862313    38B1    13.862313  
      60A1    14.155890    61A1    24.506240    62A1    42.394012  

    Final Occupation by Irrep:
             A1    A2    B1    B2 
    DOCC [     5,    0,    1,    1 ]

  @DF-RKS Final Energy:  -113.17548058368882

   => Energetics <=

    Nuclear Repulsion Energy =             22.5502828668705000
    One-Electron Energy =                -198.4044400360720601
    Two-Electron Energy =                  69.3309663740727160
    DFT Exchange-Correlation Energy =      -6.6519659485599805
    Empirical Dispersion Energy =          -0.0003238400000000
    VV10 Nonlocal Energy =                  0.0000000000000000
    Total Energy =                       -113.1754805836888096

Computation Completed


[...]

    Exchange Hybrid     =           TRUE
    MP2 Hybrid          =           TRUE

   => Exchange Functionals <=

    0.4700     XC_GGA_X_B88

   => Exact (HF) Exchange <=

    0.5300               HF 

   => Correlation Functionals <=

    0.7300     XC_GGA_C_LYP

   => MP2 Correlation <=

    0.2700       MP2 

   => Molecular Quadrature <=

    Radial Scheme          =       TREUTLER
    Pruning Scheme         =           FLAT
    Nuclear Scheme         =       TREUTLER

    BS radius alpha        =              1
    Pruning alpha          =              1
    Radial Points          =             75
    Spherical Points       =            302
    Total Points           =          45300
    Total Blocks           =            420
    Max Points             =            256
    Max Functions          =            160

   => B2PLYP-D3(BJ): Empirical Dispersion <=

    Grimme's -D3 (BJ-damping) Dispersion Correction
    Grimme S.; Ehrlich S.; Goerigk L. (2011), J. Comput. Chem., 32: 1456
    Parametrisation from:    L. Goerigk, S. Grimme, Phys. Chem. Chem. Phys. 13, 6670-6688, 2011

        s6 =       0.640000
        s8 =       0.914700
        a1 =       0.306500
        a2 =       5.057000

   => Loading Basis Set <=

    Name: (AUG-CC-PV(Q+D)Z AUX)
    Role: JKFIT
    Keyword: DF_BASIS_SCF
    atoms 1 entry O          line   318 file /work/zw18965/.conda/envs/p4env/share/psi4/basis/aug-cc-pvqz-jkfit.gbs 
    atoms 2 entry C          line   178 file /work/zw18965/.conda/envs/p4env/share/psi4/basis/aug-cc-pvqz-jkfit.gbs 

  ==> Pre-Iterations <==

   -------------------------------------------------------
    Irrep   Nso     Nmo     Nalpha   Nbeta   Ndocc  Nsocc
   -------------------------------------------------------
     A1        62      62       0       0       0       0
     A2        22      22       0       0       0       0
     B1        38      38       0       0       0       0
     B2        38      38       0       0       0       0
   -------------------------------------------------------
    Total     160     160       7       7       7       0
   -------------------------------------------------------

  ==> Integral Setup <==

  DFHelper Memory: AOs need 0.066 GiB; user supplied 100.391 GiB. Using in-core AOs.

  ==> MemDFJK: Density-Fitted J/K Matrices <==

    J tasked:                   Yes
    K tasked:                   Yes
    wK tasked:                   No
    OpenMP threads:              24
    Memory [MiB]:            102800
    Algorithm:                 Core
    Schwarz Cutoff:           1E-12
    Mask sparsity (%):       0.0000
    Fitting Condition:        1E-10

   => Auxiliary Basis Set <=

  Basis Set: (AUG-CC-PV(Q+D)Z AUX)
    Blend: AUG-CC-PVQZ-JKFIT
    Number of shells: 68
    Number of basis function: 284
    Number of Cartesian functions: 396
    Spherical Harmonics?: true
    Max angular momentum: 5

  Cached 100.0% of DFT collocation blocks in 0.192 [GiB].

  Minimum eigenvalue in the overlap matrix is 9.8781611845E-05.
  Using Symmetric Orthogonalization.

  SCF Guess: Superposition of Atomic Densities via on-the-fly atomic UHF.

  ==> Iterations <==

                           Total Energy        Delta E     RMS |[F,P]|

   @DF-RKS iter SAD:  -112.48762365386288   -1.12488e+02   0.00000e+00 
   @DF-RKS iter   1:  -113.13357478967015   -6.45951e-01   4.32505e-03 DIIS
   @DF-RKS iter   2:  -113.09902288218586    3.45519e-02   5.63760e-03 DIIS
   @DF-RKS iter   3:  -113.17375156270838   -7.47287e-02   7.20394e-04 DIIS
   @DF-RKS iter   4:  -113.17527330128627   -1.52174e-03   5.67129e-05 DIIS
   @DF-RKS iter   5:  -113.17528190931304   -8.60803e-06   9.53128e-06 DIIS
   @DF-RKS iter   6:  -113.17528214835967   -2.39047e-07   7.42660e-07 DIIS
   @DF-RKS iter   7:  -113.17528215107600   -2.71633e-09   8.75572e-08 DIIS
   @DF-RKS iter   8:  -113.17528215112169   -4.56879e-11   1.73708e-08 DIIS
   @DF-RKS iter   9:  -113.17528215112269   -9.94760e-13   3.29782e-09 DIIS
   @DF-RKS iter  10:  -113.17528215112269    0.00000e+00   2.25020e-10 DIIS
   @DF-RKS iter  11:  -113.17528215112260    8.52651e-14   3.10438e-11 DIIS
  Energy and wave function converged.


  ==> Post-Iterations <==

    Orbital Energies [Eh]
    ---------------------

    Doubly Occupied:                                                      

       1A1   -19.834687     2A1   -10.741546     3A1    -1.317069  
       4A1    -0.676321     1B1    -0.549184     1B2    -0.549184  
       5A1    -0.456948  

    Virtual:                                                              

       2B2     0.020461     2B1     0.020461     6A1     0.036450  
       7A1     0.054966     3B1     0.070924     3B2     0.070924  
       8A1     0.128693     4B1     0.137241     4B2     0.137241  
       9A1     0.187680    10A1     0.188829     1A2     0.188829  
      11A1     0.260922     5B1     0.274923     5B2     0.274923  
       6B1     0.335133     6B2     0.335133    12A1     0.343506  
      13A1     0.445888     2A2     0.468230    14A1     0.468230  
       7B1     0.544208     7B2     0.544208    15A1     0.558827  
       8B2     0.679720     8B1     0.679720     3A2     0.684416  
      16A1     0.684416    17A1     0.700007     9B1     0.743638  
       9B2     0.743638    18A1     0.801404    10B2     0.803349  
      10B1     0.803349     4A2     0.820483    19A1     0.820483  
      20A1     0.825604    11B2     0.976785    11B1     0.976785  
      21A1     1.060854    12B2     1.341226    12B1     1.341226  
      22A1     1.359678     5A2     1.396341    23A1     1.396341  
      13B1     1.428862    13B2     1.428862    24A1     1.557904  
      25A1     1.652553     6A2     1.652554    26A1     1.667638  
      14B2     1.678283    14B1     1.678283    15B2     1.844104  
      15B1     1.844104     7A2     1.999060    27A1     1.999060  
      28A1     2.025087    29A1     2.049850     8A2     2.049851  
      16B1     2.123729    16B2     2.123729    30A1     2.180861  
      17B1     2.199964    17B2     2.199964     9A2     2.241916  
      31A1     2.241917    18B1     2.245934    18B2     2.245934  
      32A1     2.351136    19B1     2.422382    19B2     2.422382  
      20B2     2.677512    20B1     2.677512    33A1     2.809734  
      34A1     2.864669    10A2     2.864669    35A1     3.346539  
      36A1     3.557111    11A2     3.557115    21B2     3.581317  
      21B1     3.581317    37A1     3.789039    22B1     3.879446  
      22B2     3.879446    38A1     3.985691    12A2     3.985692  
      23B2     4.026578    23B1     4.026578    24B1     4.109518  
      24B2     4.109518    39A1     4.121627    13A2     4.170892  
      40A1     4.170892    41A1     4.338470    25B2     4.560582  
      25B1     4.560582    42A1     4.929470    26B2     4.936345  
      26B1     4.936345    14A2     4.943739    43A1     4.943740  
      44A1     5.693309    15A2     5.719458    45A1     5.719459  
      27B2     5.936568    27B1     5.936568    28B2     5.996522  
      28B1     5.996522    16A2     6.092415    46A1     6.092420  
      29B2     6.116979    29B1     6.116979    47A1     6.192989  
      30B1     6.232549    30B2     6.232549    17A2     6.368822  
      48A1     6.368823    49A1     6.998554    18A2     7.117226  
      50A1     7.117226    31B2     7.257888    31B1     7.257888  
      51A1     7.977077    52A1     8.251591    32B2     8.355965  
      32B1     8.355965    53A1    10.303445    19A2    10.303496  
      33B1    10.580104    33B2    10.580104    34B2    10.733440  
      34B1    10.733440    54A1    10.828860    20A2    10.828863  
      55A1    11.052601    35B2    11.076966    35B1    11.076966  
      36B1    11.508796    36B2    11.508796    56A1    11.691391  
      57A1    11.944435    21A2    11.944439    37B2    12.388906  
      37B1    12.388906    22A2    12.537433    58A1    12.537461  
      59A1    13.432394    38B2    13.847049    38B1    13.847049  
      60A1    14.151797    61A1    24.471665    62A1    42.380642  

    Final Occupation by Irrep:
             A1    A2    B1    B2 
    DOCC [     5,    0,    1,    1 ]

  @DF-RKS Final Energy:  -113.17528215112260

   => Energetics <=

    Nuclear Repulsion Energy =             22.4954996134419218
    One-Electron Energy =                -198.3001748426661663
    Two-Electron Energy =                  69.2802848204423896
    DFT Exchange-Correlation Energy =      -6.6505679023407520
    Empirical Dispersion Energy =          -0.0003238400000000
    VV10 Nonlocal Energy =                  0.0000000000000000
    Total Energy =                       -113.1752821511226017

Computation Completed


Properties will be evaluated at   0.000000,   0.000000,   0.000000 [a0]

Properties computed using the SCF density matrix

  Nuclear Dipole Moment: [e a0]
     X:     0.0000      Y:     0.0000      Z:     0.0023

  Electronic Dipole Moment: [e a0]
     X:     0.0000      Y:     0.0000      Z:    -0.0298

  Dipole Moment: [e a0]
     X:     0.0000      Y:     0.0000      Z:    -0.0275     Total:     0.0275

  Dipole Moment: [D]
     X:     0.0000      Y:     0.0000      Z:    -0.0698     Total:     0.0698


*** tstop() called on bp1-compute00191.data.bp.acrc.priv at Mon Apr 19 15:35:14 2021
Module time:
	user time   =      40.32 seconds =       0.67 minutes
	system time =       1.38 seconds =       0.02 minutes
	total time  =          2 seconds =       0.03 minutes
Total time:
	user time   =     646.81 seconds =      10.78 minutes
	system time =      23.24 seconds =       0.39 minutes
	total time  =         31 seconds =       0.52 minutes

*** tstart() called on bp1-compute00191.data.bp.acrc.priv
*** at Mon Apr 19 15:35:14 2021

   => Loading Basis Set <=

    Name: (AUG-CC-PV(Q+D)Z AUX)
    Role: RIFIT
    Keyword: DF_BASIS_MP2
    atoms 1 entry O          line   332 file /work/zw18965/.conda/envs/p4env/share/psi4/basis/aug-cc-pvqz-ri.gbs 
    atoms 2 entry C          line   184 file /work/zw18965/.conda/envs/p4env/share/psi4/basis/aug-cc-pvqz-ri.gbs 

	 --------------------------------------------------------
	                          DF-MP2                         
	      2nd-Order Density-Fitted Moller-Plesset Theory     
	              RMP2 Wavefunction,  24 Threads             
	                                                         
	        Rob Parrish, Justin Turney, Andy Simmonett,      
	           Ed Hohenstein, and C. David Sherrill          
	 --------------------------------------------------------

   => Auxiliary Basis Set <=

  Basis Set: (AUG-CC-PV(Q+D)Z AUX)
    Blend: AUG-CC-PVQZ-RI
    Number of shells: 72
    Number of basis function: 336
    Number of Cartesian functions: 474
    Spherical Harmonics?: true
    Max angular momentum: 5

	 --------------------------------------------------------
	                 NBF =   160, NAUX =   336
	 --------------------------------------------------------
	   CLASS    FOCC     OCC    AOCC    AVIR     VIR    FVIR
	   PAIRS       0       7       7     153     153       0
	 --------------------------------------------------------

	-----------------------------------------------------------
	 ==================> DF-MP2 Energies <==================== 
	-----------------------------------------------------------
	 Reference Energy          =    -113.1752821511226017 [Eh]
	 Singles Energy            =      -0.0000000000000000 [Eh]
	 Same-Spin Energy          =      -0.1263059331088291 [Eh]
	 Opposite-Spin Energy      =      -0.4033658259799194 [Eh]
	 Correlation Energy        =      -0.5296717590887485 [Eh]
	 Total Energy              =    -113.7049539102113442 [Eh]
	-----------------------------------------------------------
	 ================> DF-SCS-MP2 Energies <================== 
	-----------------------------------------------------------
	 SCS Same-Spin Scale       =       0.3333333333333333 [-]
	 SCS Opposite-Spin Scale   =       1.2000000000000000 [-]
	 SCS Same-Spin Energy      =      -0.0421019777029430 [Eh]
	 SCS Opposite-Spin Energy  =      -0.4840389911759033 [Eh]
	 SCS Correlation Energy    =      -0.5261409688788463 [Eh]
	 SCS Total Energy          =    -113.7014231200014507 [Eh]
	-----------------------------------------------------------



    B2PLYP-D3BJ Energy Summary
    --------------------------
    DFT Reference Energy                  =  -113.1752821511226017
    Scaled MP2 Correlation                =    -0.1430113749539621
    @Final double-hybrid DFT total energy =  -113.3182935260765589


*** tstop() called on bp1-compute00191.data.bp.acrc.priv at Mon Apr 19 15:35:14 2021
Module time:
	user time   =      10.69 seconds =       0.18 minutes
	system time =       0.38 seconds =       0.01 minutes
	total time  =          0 seconds =       0.00 minutes
Total time:
	user time   =     657.51 seconds =      10.96 minutes
	system time =      23.62 seconds =       0.39 minutes
	total time  =         31 seconds =       0.52 minutes

         ----------------------------------------------------------
                                   FINDIF
                     R. A. King and Jonathon Misiewicz
         ---------------------------------------------------------

  Computing second-derivative from energies using projected, 
  symmetry-adapted, cartesian coordinates.

  3 energies passed in, including the reference geometry.
    Using 3-point formula.
    Energy without displacement: -113.3182957017
    Check energies below for precision!
    0: -1 :      -113.3182934411
    0: 1  :      -113.3182935261

-------------------------------------------------------------


  ==> Harmonic Vibrational Analysis <==

  non-mass-weighted Hessian:       Symmetric? True   Hermitian? True   Lin Dep Dim?  5 (0)
  projection of translations (True) and rotations (True) removed 5 degrees of freedom (5)
  total projector:                 Symmetric? True   Hermitian? True   Lin Dep Dim?  5 (5)
  mass-weighted Hessian:           Symmetric? True   Hermitian? True   Lin Dep Dim?  5 (0)
  pre-proj  low-frequency mode:    0.0000i [cm^-1]
  pre-proj  low-frequency mode:    0.0000  [cm^-1]
  pre-proj  low-frequency mode:    0.0000  [cm^-1]
  pre-proj  low-frequency mode:    0.0000  [cm^-1]
  pre-proj  low-frequency mode:    0.0000  [cm^-1]
  pre-proj  all modes:['0.0000i' '0.0000' '0.0000' '0.0000' '0.0000' '2165.4000']
  projected mass-weighted Hessian: Symmetric? True   Hermitian? True   Lin Dep Dim?  5 (5)
  post-proj low-frequency mode:    0.0000i [cm^-1] (TR)
  post-proj low-frequency mode:    0.0000  [cm^-1] (TR)
  post-proj low-frequency mode:    0.0000  [cm^-1] (TR)
  post-proj low-frequency mode:    0.0000  [cm^-1] (TR)
  post-proj low-frequency mode:    0.0000  [cm^-1] (TR)
  post-proj  all modes:['0.0000i' '0.0000' '0.0000' '0.0000' '0.0000' '2165.4000']

  Vibration                       6           
  Freq [cm^-1]                2165.4000       
  Irrep                           A1          
  Reduced mass [u]             13.4388        
  Force const [mDyne/A]        37.1266        
  Turning point v=0 [a0]        0.0643        
  RMS dev v=0 [a0 u^1/2]        0.1667        
  Char temp [K]               3115.5285       
  ----------------------------------------------------------------------------------
      1   O                0.00  0.00 -0.60   
      2   C                0.00  0.00  0.80   

  ==> Thermochemistry Components <==

  Entropy, S
    Electronic S            0.000 [cal/(mol K)]        0.000 [J/(mol K)]       0.00000000 [mEh/K] (multiplicity = 1)
    Translational S        35.923 [cal/(mol K)]      150.302 [J/(mol K)]       0.05724692 [mEh/K] (mol. weight = 27.9949 [u], P = 101325.00 [Pa])
    Rotational S           11.278 [cal/(mol K)]       47.187 [J/(mol K)]       0.01797251 [mEh/K] (symmetry no. = 1)
    Vibrational S           0.001 [cal/(mol K)]        0.003 [J/(mol K)]       0.00000105 [mEh/K]
  Total S                  47.202 [cal/(mol K)]      197.491 [J/(mol K)]       0.07522048 [mEh/K]
  Correction S              0.000 [cal/(mol K)]        0.000 [J/(mol K)]       0.00000000 [mEh/K]

  Constant volume heat capacity, Cv
    Electronic Cv           0.000 [cal/(mol K)]        0.000 [J/(mol K)]       0.00000000 [mEh/K]
    Translational Cv        2.981 [cal/(mol K)]       12.472 [J/(mol K)]       0.00475022 [mEh/K]
    Rotational Cv           1.987 [cal/(mol K)]        8.314 [J/(mol K)]       0.00316681 [mEh/K]
    Vibrational Cv          0.006 [cal/(mol K)]        0.026 [J/(mol K)]       0.00001002 [mEh/K]
  Total Cv                  4.974 [cal/(mol K)]       20.812 [J/(mol K)]       0.00792704 [mEh/K]
  Correction Cv             0.000 [cal/(mol K)]        0.000 [J/(mol K)]       0.00000000 [mEh/K]

  Constant pressure heat capacity, Cp
    Electronic Cp           0.000 [cal/(mol K)]        0.000 [J/(mol K)]       0.00000000 [mEh/K]
    Translational Cp        4.968 [cal/(mol K)]       20.786 [J/(mol K)]       0.00791703 [mEh/K]
    Rotational Cp           1.987 [cal/(mol K)]        8.314 [J/(mol K)]       0.00316681 [mEh/K]
    Vibrational Cp          0.006 [cal/(mol K)]        0.026 [J/(mol K)]       0.00001002 [mEh/K]
  Total Cp                  6.961 [cal/(mol K)]       29.127 [J/(mol K)]       0.01109385 [mEh/K]
  Correction Cp             0.000 [cal/(mol K)]        0.000 [J/(mol K)]       0.00000000 [mEh/K]

  ==> Thermochemistry Energy Analysis <==

  Raw electronic energy, E0
  Total E0, Electronic energy at well bottom at 0 [K]                 -113.31829570 [Eh]

  Zero-point energy, ZPE_vib = Sum_i nu_i / 2
    Electronic ZPE          0.000 [kcal/mol]        0.000 [kJ/mol]       0.00000000 [Eh]
    Translational ZPE       0.000 [kcal/mol]        0.000 [kJ/mol]       0.00000000 [Eh]
    Rotational ZPE          0.000 [kcal/mol]        0.000 [kJ/mol]       0.00000000 [Eh]
    Vibrational ZPE         3.096 [kcal/mol]       12.952 [kJ/mol]       0.00493314 [Eh]        1082.700 [cm^-1]
  Correction ZPE            3.096 [kcal/mol]       12.952 [kJ/mol]       0.00493314 [Eh]        1082.700 [cm^-1]
  Total ZPE, Electronic energy at 0 [K]                               -113.31336256 [Eh]

  Thermal Energy, E (includes ZPE)
    Electronic E            0.000 [kcal/mol]        0.000 [kJ/mol]       0.00000000 [Eh]
    Translational E         0.889 [kcal/mol]        3.718 [kJ/mol]       0.00141628 [Eh]
    Rotational E            0.592 [kcal/mol]        2.479 [kJ/mol]       0.00094418 [Eh]
    Vibrational E           3.096 [kcal/mol]       12.953 [kJ/mol]       0.00493343 [Eh]
  Correction E              4.577 [kcal/mol]       19.150 [kJ/mol]       0.00729389 [Eh]
  Total E, Electronic energy at  298.15 [K]                           -113.31100181 [Eh]

  Enthalpy, H_trans = E_trans + k_B * T
    Electronic H            0.000 [kcal/mol]        0.000 [kJ/mol]       0.00000000 [Eh]
    Translational H         1.481 [kcal/mol]        6.197 [kJ/mol]       0.00236046 [Eh]
    Rotational H            0.592 [kcal/mol]        2.479 [kJ/mol]       0.00094418 [Eh]
    Vibrational H           3.096 [kcal/mol]       12.953 [kJ/mol]       0.00493343 [Eh]
  Correction H              5.169 [kcal/mol]       21.629 [kJ/mol]       0.00823808 [Eh]
  Total H, Enthalpy at  298.15 [K]                                    -113.31005763 [Eh]

  Gibbs free energy, G = H - T * S
    Electronic G            0.000 [kcal/mol]        0.000 [kJ/mol]       0.00000000 [Eh]
    Translational G        -9.229 [kcal/mol]      -38.615 [kJ/mol]      -0.01470771 [Eh]
    Rotational G           -2.770 [kcal/mol]      -11.590 [kJ/mol]      -0.00441432 [Eh]
    Vibrational G           3.096 [kcal/mol]       12.952 [kJ/mol]       0.00493312 [Eh]
  Correction G             -8.904 [kcal/mol]      -37.253 [kJ/mol]      -0.01418891 [Eh]
  Total G, Free enthalpy at  298.15 [K]                               -113.33248461 [Eh]

    Psi4 stopped on: Monday, 19 April 2021 03:35PM
    Psi4 wall time for execution: 0:00:33.67

*** Psi4 exiting successfully. Buy a developer a beer!
