
    -----------------------------------------------------------------------
          Psi4: An Open-Source Ab Initio Electronic Structure Package
                               Psi4 1.3.2 release

                         Git: Rev {HEAD} ecbda83 


    R. M. Parrish, L. A. Burns, D. G. A. Smith, A. C. Simmonett,
    A. E. DePrince III, E. G. Hohenstein, U. Bozkaya, A. Yu. Sokolov,
    R. Di Remigio, R. M. Richard, J. F. Gonthier, A. M. James,
    H. R. McAlexander, A. Kumar, M. Saitow, X. Wang, B. P. Pritchard,
    P. Verma, H. F. Schaefer III, K. Patkowski, R. A. King, E. F. Valeev,
    F. A. Evangelista, J. M. Turney, T. D. Crawford, and C. D. Sherrill,
    J. Chem. Theory Comput. 13(7) pp 3185--3197 (2017).
    (doi: 10.1021/acs.jctc.7b00174)


                         Additional Contributions by
    P. Kraus, H. Kruse, M. H. Lechner, M. C. Schieber, R. A. Shaw,
    A. Alenaizan, R. Galvelis, Z. L. Glick, S. Lehtola, and J. P. Misiewicz

    -----------------------------------------------------------------------


    Psi4 started on: Monday, 19 April 2021 03:35PM

    Process ID: 5094
    Host:       bp1-compute00191.data.bp.acrc.priv
    PSIDATADIR: /work/zw18965/.conda/envs/p4env/share/psi4
    Memory:     500.0 MiB
    Threads:    24
    
  ==> Input File <==

--------------------------------------------------------------------------
memory 144 GB

molecule {
0 1
C     0.000000000000   0.000000000000   0.011304024282
S     0.000000000000   0.000000000000   1.528395973555}

set basis aug-cc-pV(Q+d)Z
 
optimize("B2PLYP-D3BJ")
frequencies("B2PLYP-D3BJ")--------------------------------------------------------------------------

  Memory set to 134.110 GiB by Python driver.
gradient() will perform gradient computation by finite difference of analytic energies.

         ----------------------------------------------------------
                                   FINDIF
                     R. A. King and Jonathon Misiewicz
         ---------------------------------------------------------

  Using finite-differences of energies to determine gradients.
    Generating geometries for use with 3-point formula.
    Displacement size will be 5.00e-03.
    Number of atoms is 2.
    Number of symmetric SALCs is 1.
    Translations projected? 1. Rotations projected? 1.
    Number of geometries (including reference) is 3.

  //>>>>>>>>>>>>>>>>>>>>>>>>>>>>>>>>>>>//
  //    Loading displacement 1 of 3    //
  //<<<<<<<<<<<<<<<<<<<<<<<<<<<<<<<<<<<//

*** tstart() called on bp1-compute00191.data.bp.acrc.priv
*** at Mon Apr 19 15:35:18 2021

   => Loading Basis Set <=

    Name: AUG-CC-PV(Q+D)Z
    Role: ORBITAL
    Keyword: BASIS
    atoms 1 entry C          line   319 file /work/zw18965/.conda/envs/p4env/share/psi4/basis/aug-cc-pv_qpd_z.gbs 
    atoms 2 entry S          line  1148 file /work/zw18965/.conda/envs/p4env/share/psi4/basis/aug-cc-pv_qpd_z.gbs 


         ---------------------------------------------------------
                                   SCF
               by Justin Turney, Rob Parrish, Andy Simmonett
                          and Daniel G. A. Smith
                              RKS Reference
                       24 Threads, 137329 MiB Core
         ---------------------------------------------------------

  ==> Geometry <==

    Molecular point group: c2v
    Full point group: C_inf_v

    Geometry (in Angstrom), charge = 0, multiplicity = 1:

       Center              X                  Y                   Z               Mass       
    ------------   -----------------  -----------------  -----------------  -----------------
         C            0.000000000000     0.000000000000    -1.103076804999    12.000000000000
         S            0.000000000000     0.000000000000     0.414015144274    31.972071174400

  Running in c2v symmetry.

  Rotational constants: A = ************  B =      0.83946  C =      0.83946 [cm^-1]
  Rotational constants: A = ************  B =  25166.23786  C =  25166.23786 [MHz]
  Nuclear repulsion =   33.485783276790940

  Charge       = 0
  Multiplicity = 1
  Electrons    = 22
  Nalpha       = 11
  Nbeta        = 11

  ==> Algorithm <==

  SCF Algorithm Type is DF.
  DIIS enabled.
  MOM disabled.
  Fractional occupation disabled.
  Guess Type is SAD.
  Energy threshold   = 1.00e-08
  Density threshold  = 1.00e-08
  Integral threshold = 0.00e+00

  ==> Primary Basis <==

  Basis Set: AUG-CC-PV(Q+D)Z
    Blend: AUG-CC-PV(Q+D)Z
    Number of shells: 43
    Number of basis function: 169
    Number of Cartesian functions: 220
    Spherical Harmonics?: true
    Max angular momentum: 4

  ==> DFT Potential <==

   => Composite Functional: B2PLYP-D3BJ <= 

    B2PLYP Double Hybrid Exchange-Correlation Functional

    S. Grimme, J. Chem. Phys., 124, 034108, 2006


    Deriv               =              1
    GGA                 =           TRUE
    Meta                =          FALSE

    Exchange Hybrid     =           TRUE
    MP2 Hybrid          =           TRUE

   => Exchange Functionals <=

    0.4700     XC_GGA_X_B88

   => Exact (HF) Exchange <=

    0.5300               HF 

   => Correlation Functionals <=

    0.7300     XC_GGA_C_LYP

   => MP2 Correlation <=

    0.2700       MP2 

   => Molecular Quadrature <=

    Radial Scheme          =       TREUTLER
    Pruning Scheme         =           FLAT
    Nuclear Scheme         =       TREUTLER

    BS radius alpha        =              1
    Pruning alpha          =              1
    Radial Points          =             75
    Spherical Points       =            302
    Total Points           =          45300
    Total Blocks           =            426
    Max Points             =            254
    Max Functions          =            169

   => B2PLYP-D3(BJ): Empirical Dispersion <=

    Grimme's -D3 (BJ-damping) Dispersion Correction
    Grimme S.; Ehrlich S.; Goerigk L. (2011), J. Comput. Chem., 32: 1456
    Parametrisation from:    L. Goerigk, S. Grimme, Phys. Chem. Chem. Phys. 13, 6670-6688, 2011

        s6 =       0.640000
        s8 =       0.914700
        a1 =       0.306500
        a2 =       5.057000

   => Loading Basis Set <=

    Name: (AUG-CC-PV(Q+D)Z AUX)
    Role: JKFIT
    Keyword: DF_BASIS_SCF
    atoms 1 entry C          line   178 file /work/zw18965/.conda/envs/p4env/share/psi4/basis/aug-cc-pvqz-jkfit.gbs 
    atoms 2 entry S          line   810 file /work/zw18965/.conda/envs/p4env/share/psi4/basis/aug-cc-pvqz-jkfit.gbs 

  ==> Pre-Iterations <==

   -------------------------------------------------------
    Irrep   Nso     Nmo     Nalpha   Nbeta   Ndocc  Nsocc
   -------------------------------------------------------
     A1        66      66       0       0       0       0
     A2        23      23       0       0       0       0
     B1        40      40       0       0       0       0
     B2        40      40       0       0       0       0
   -------------------------------------------------------
    Total     169     169      11      11      11       0
   -------------------------------------------------------

  ==> Integral Setup <==

  DFHelper Memory: AOs need 0.082 GiB; user supplied 100.379 GiB. Using in-core AOs.

  ==> MemDFJK: Density-Fitted J/K Matrices <==

    J tasked:                   Yes
    K tasked:                   Yes
    wK tasked:                   No
    OpenMP threads:              24
    Memory [MiB]:            102788
    Algorithm:                 Core
    Schwarz Cutoff:           1E-12
    Mask sparsity (%):       0.0000
    Fitting Condition:        1E-10

   => Auxiliary Basis Set <=

  Basis Set: (AUG-CC-PV(Q+D)Z AUX)
    Blend: AUG-CC-PVQZ-JKFIT
    Number of shells: 80
    Number of basis function: 326
    Number of Cartesian functions: 445
    Spherical Harmonics?: true
    Max angular momentum: 5

  Cached 100.0% of DFT collocation blocks in 0.203 [GiB].

  Minimum eigenvalue in the overlap matrix is 3.5489969368E-05.
  Using Symmetric Orthogonalization.

  SCF Guess: Superposition of Atomic Densities via on-the-fly atomic UHF.

  ==> Iterations <==

                           Total Energy        Delta E     RMS |[F,P]|

   @DF-RKS iter SAD:  -435.51673887169034   -4.35517e+02   0.00000e+00 
   @DF-RKS iter   1:  -435.91316622769153   -3.96427e-01   4.40873e-03 DIIS
   @DF-RKS iter   2:  -435.83824679009098    7.49194e-02   5.70196e-03 DIIS
   @DF-RKS iter   3:  -435.99175561453700   -1.53509e-01   7.33994e-04 DIIS
   @DF-RKS iter   4:  -435.99377080048873   -2.01519e-03   1.54846e-04 DIIS
   @DF-RKS iter   5:  -435.99388046524479   -1.09665e-04   4.22526e-05 DIIS
   @DF-RKS iter   6:  -435.99388761169354   -7.14645e-06   1.91883e-05 DIIS
   @DF-RKS iter   7:  -435.99388963800629   -2.02631e-06   1.33162e-06 DIIS
   @DF-RKS iter   8:  -435.99388965233607   -1.43298e-08   3.19529e-07 DIIS
   @DF-RKS iter   9:  -435.99388965288244   -5.46379e-10   1.94418e-08 DIIS
   @DF-RKS iter  10:  -435.99388965288517   -2.72848e-12   3.51544e-09 DIIS
  Energy and wave function converged.


  ==> Post-Iterations <==

    Orbital Energies [Eh]
    ---------------------

    Doubly Occupied:                                                      

       1A1   -90.224194     2A1   -10.720893     3A1    -8.417108  
       1B2    -6.261265     1B1    -6.261265     4A1    -6.260889  
       5A1    -0.954782     6A1    -0.596466     2B2    -0.406911  
       2B1    -0.406911     7A1    -0.379515  

    Virtual:                                                              

       3B2    -0.032682     3B1    -0.032682     8A1     0.026156  
       9A1     0.049045     4B1     0.054312     4B2     0.054312  
      10A1     0.069316     5B2     0.085454     5B1     0.085454  
      11A1     0.128402    12A1     0.140817     1A2     0.140817  
      13A1     0.174922     6B2     0.225069     6B1     0.225069  
      14A1     0.244187     2A2     0.249277    15A1     0.249277  
       7B1     0.258392     7B2     0.258392    16A1     0.288018  
       8B2     0.326494     8B1     0.326494    17A1     0.393484  
      18A1     0.412242     3A2     0.412242    19A1     0.443130  
      20A1     0.466059     9B2     0.475263     9B1     0.475263  
      10B1     0.476494    10B2     0.476494    11B2     0.504049  
      11B1     0.504049    21A1     0.548202     4A2     0.548202  
      22A1     0.616827    12B2     0.668431    12B1     0.668431  
      23A1     0.744421     5A2     0.755063    24A1     0.755063  
      13B2     0.765351    13B1     0.765351    14B1     0.845509  
      14B2     0.845509    25A1     0.903584     6A2     0.965412  
      26A1     0.965412    27A1     0.973752    28A1     1.025755  
      15B1     1.092501    15B2     1.092501    29A1     1.152944  
       7A2     1.152944    16B2     1.258420    16B1     1.258420  
      30A1     1.279168     8A2     1.342883    31A1     1.342883  
      17B2     1.345110    17B1     1.345110    18B2     1.367115  
      18B1     1.367115    32A1     1.440036     9A2     1.440036  
      19B2     1.465753    19B1     1.465753    20B2     1.472013  
      20B1     1.472013    33A1     1.516983    34A1     1.646190  
      21B2     1.702752    21B1     1.702752    35A1     1.747068  
      10A2     1.747068    36A1     1.940098    37A1     2.065958  
      38A1     2.071991    11A2     2.071996    12A2     2.127440  
      39A1     2.127440    22B1     2.147469    22B2     2.147469  
      40A1     2.163697    23B2     2.194357    23B1     2.194357  
      24B1     2.308189    24B2     2.308189    13A2     2.369435  
      41A1     2.369435    25B1     2.394521    25B2     2.394521  
      42A1     2.397458    43A1     2.612665    26B2     2.688376  
      26B1     2.688376    14A2     2.775902    44A1     2.775904  
      27B1     2.860542    27B2     2.860542    45A1     2.883709  
      15A2     3.045041    46A1     3.045042    28B2     3.272277  
      28B1     3.272277    47A1     3.358974    29B2     3.458187  
      29B1     3.458187    48A1     3.525740    16A2     3.525742  
      17A2     3.627843    49A1     3.627851    30B2     3.691377  
      30B1     3.691377    31B2     3.816226    31B1     3.816226  
      50A1     3.828012    51A1     4.011821    52A1     4.038030  
      18A2     4.038031    53A1     4.348768    32B2     4.441542  
      32B1     4.441542    33B2     5.661268    33B1     5.661268  
      54A1     5.764996    19A2     5.765041    34B1     5.923778  
      34B2     5.923778    35B1     5.952352    35B2     5.952352  
      55A1     6.071822    20A2     6.071824    36B1     6.128262  
      36B2     6.128262    56A1     6.138351    37B2     6.289273  
      37B1     6.289273    57A1     6.354637    21A2     6.354638  
      58A1     6.413659    59A1     6.587818    22A2     6.587819  
      60A1     6.666966    38B1     6.908340    38B2     6.908340  
      61A1     7.326327    39B1     7.450261    39B2     7.450261  
      62A1     8.678920    63A1     8.964108    23A2     8.964130  
      40B2     9.224331    40B1     9.224331    64A1     9.819243  
      65A1    20.364457    66A1    21.491416  

    Final Occupation by Irrep:
             A1    A2    B1    B2 
    DOCC [     7,    0,    2,    2 ]

  @DF-RKS Final Energy:  -435.99388965288517

   => Energetics <=

    Nuclear Repulsion Energy =             33.4857832767909400
    One-Electron Energy =                -666.6131815672305265
    Two-Electron Energy =                 211.9106407970298278
    DFT Exchange-Correlation Energy =     -14.7762223594754225
    Empirical Dispersion Energy =          -0.0009098000000000
    VV10 Nonlocal Energy =                  0.0000000000000000
    Total Energy =                       -435.9938896528851728

Computation Completed


Properties will be evaluated at   0.000000,   0.000000,   0.000000 [a0]

Properties computed using the SCF density matrix

  Nuclear Dipole Moment: [e a0]
     X:     0.0000      Y:     0.0000      Z:     0.0109

  Electronic Dipole Moment: [e a0]
     X:     0.0000      Y:     0.0000      Z:     0.7465

  Dipole Moment: [e a0]
     X:     0.0000      Y:     0.0000      Z:     0.7575     Total:     0.7575

  Dipole Moment: [D]
     X:     0.0000      Y:     0.0000      Z:     1.9253     Total:     1.9253


*** tstop() called on bp1-compute00191.data.bp.acrc.priv at Mon Apr 19 15:35:20 2021
Module time:
	user time   =      40.37 seconds =       0.67 minutes
	system time =       1.63 seconds =       0.03 minutes
	total time  =          2 seconds =       0.03 minutes
Total time:
	user time   =      40.37 seconds =       0.67 minutes
	system time =       1.63 seconds =       0.03 minutes
	total time  =          2 seconds =       0.03 minutes

*** tstart() called on bp1-compute00191.data.bp.acrc.priv
*** at Mon Apr 19 15:35:20 2021

   => Loading Basis Set <=

    Name: (AUG-CC-PV(Q+D)Z AUX)
    Role: RIFIT
    Keyword: DF_BASIS_MP2
    atoms 1 entry C          line   184 file /work/zw18965/.conda/envs/p4env/share/psi4/basis/aug-cc-pvqz-ri.gbs 
    atoms 2 entry S          line   824 file /work/zw18965/.conda/envs/p4env/share/psi4/basis/aug-cc-pvqz-ri.gbs 

	 --------------------------------------------------------
	                          DF-MP2                         
	      2nd-Order Density-Fitted Moller-Plesset Theory     
	              RMP2 Wavefunction,  24 Threads             
	                                                         
	        Rob Parrish, Justin Turney, Andy Simmonett,      
	           Ed Hohenstein, and C. David Sherrill          
	 --------------------------------------------------------

   => Auxiliary Basis Set <=

  Basis Set: (AUG-CC-PV(Q+D)Z AUX)
    Blend: AUG-CC-PVQZ-RI
    Number of shells: 80
    Number of basis function: 362
    Number of Cartesian functions: 505
    Spherical Harmonics?: true
    Max angular momentum: 5

	 --------------------------------------------------------
	                 NBF =   169, NAUX =   362
	 --------------------------------------------------------
	   CLASS    FOCC     OCC    AOCC    AVIR     VIR    FVIR
	   PAIRS       0      11      11     158     158       0
	 --------------------------------------------------------

	-----------------------------------------------------------
	 ==================> DF-MP2 Energies <==================== 
	-----------------------------------------------------------
	 Reference Energy          =    -435.9938896528851728 [Eh]
	 Singles Energy            =      -0.0000000000000000 [Eh]
	 Same-Spin Energy          =      -0.1473230363348059 [Eh]
	 Opposite-Spin Energy      =      -0.4322192124377688 [Eh]
	 Correlation Energy        =      -0.5795422487725748 [Eh]
	 Total Energy              =    -436.5734319016577274 [Eh]
	-----------------------------------------------------------
	 ================> DF-SCS-MP2 Energies <================== 
	-----------------------------------------------------------
	 SCS Same-Spin Scale       =       0.3333333333333333 [-]
	 SCS Opposite-Spin Scale   =       1.2000000000000000 [-]
	 SCS Same-Spin Energy      =      -0.0491076787782686 [Eh]
	 SCS Opposite-Spin Energy  =      -0.5186630549253225 [Eh]
	 SCS Correlation Energy    =      -0.5677707337035911 [Eh]
	 SCS Total Energy          =    -436.5616603865887555 [Eh]
	-----------------------------------------------------------



    B2PLYP-D3BJ Energy Summary
    --------------------------
    DFT Reference Energy                  =  -435.9938896528851728
    Scaled MP2 Correlation                =    -0.1564764071685952
    @Final double-hybrid DFT total energy =  -436.1503660600537842


*** tstop() called on bp1-compute00191.data.bp.acrc.priv at Mon Apr 19 15:35:21 2021
Module time:
	user time   =      11.54 seconds =       0.19 minutes
	system time =       0.41 seconds =       0.01 minutes
	total time  =          1 seconds =       0.02 minutes
Total time:
	user time   =      51.92 seconds =       0.87 minutes
	system time =       2.05 seconds =       0.03 minutes
	total time  =          3 seconds =       0.05 minutes

  //>>>>>>>>>>>>>>>>>>>>>>>>>>>>>>>>>>>//
  //    Loading displacement 2 of 3    //
  //<<<<<<<<<<<<<<<<<<<<<<<<<<<<<<<<<<<//

*** tstart() called on bp1-compute00191.data.bp.acrc.priv
*** at Mon Apr 19 15:35:21 2021

   => Loading Basis Set <=

    Name: AUG-CC-PV(Q+D)Z
    Role: ORBITAL
    Keyword: BASIS
    atoms 1 entry C          line   319 file /work/zw18965/.conda/envs/p4env/share/psi4/basis/aug-cc-pv_qpd_z.gbs 
    atoms 2 entry S          line  1148 file /work/zw18965/.conda/envs/p4env/share/psi4/basis/aug-cc-pv_qpd_z.gbs 


         ---------------------------------------------------------
                                   SCF
               by Justin Turney, Rob Parrish, Andy Simmonett
                          and Daniel G. A. Smith
                              RKS Reference
                       24 Threads, 137329 MiB Core
         ---------------------------------------------------------

  ==> Geometry <==

    Molecular point group: c2v
    Full point group: C_inf_v

    Geometry (in Angstrom), charge = 0, multiplicity = 1:

       Center              X                  Y                   Z               Mass       
    ------------   -----------------  -----------------  -----------------  -----------------
         C            0.000000000000     0.000000000000    -1.103728099541    12.000000000000
         S            0.000000000000     0.000000000000     0.414259593076    31.972071174400

  Running in c2v symmetry.

  Rotational constants: A = ************  B =      0.83846  C =      0.83846 [cm^-1]
  Rotational constants: A = ************  B =  25136.54613  C =  25136.54613 [MHz]
  Nuclear repulsion =   33.466023783595226

  Charge       = 0
  Multiplicity = 1
  Electrons    = 22
  Nalpha       = 11
  Nbeta        = 11

  ==> Algorithm <==

  SCF Algorithm Type is DF.
  DIIS enabled.
  MOM disabled.
  Fractional occupation disabled.
  Guess Type is SAD.
  Energy threshold   = 1.00e-08
  Density threshold  = 1.00e-08
  Integral threshold = 0.00e+00

  ==> Primary Basis <==

  Basis Set: AUG-CC-PV(Q+D)Z
    Blend: AUG-CC-PV(Q+D)Z
    Number of shells: 43
    Number of basis function: 169
    Number of Cartesian functions: 220
    Spherical Harmonics?: true
    Max angular momentum: 4

  ==> DFT Potential <==

   => Composite Functional: B2PLYP-D3BJ <= 

    B2PLYP Double Hybrid Exchange-Correlation Functional

    S. Grimme, J. Chem. Phys., 124, 034108, 2006


    Deriv               =              1
    GGA                 =           TRUE
    Meta                =          FALSE

    Exchange Hybrid     =           TRUE
    MP2 Hybrid          =           TRUE

   => Exchange Functionals <=

    0.4700     XC_GGA_X_B88

   => Exact (HF) Exchange <=

    0.5300               HF 

   => Correlation Functionals <=

    0.7300     XC_GGA_C_LYP

   => MP2 Correlation <=

    0.2700       MP2 

   => Molecular Quadrature <=

    Radial Scheme          =       TREUTLER
    Pruning Scheme         =           FLAT
    Nuclear Scheme         =       TREUTLER

    BS radius alpha        =              1
    Pruning alpha          =              1
    Radial Points          =             75
    Spherical Points       =            302
    Total Points           =          45300
    Total Blocks           =            426
    Max Points             =            254
    Max Functions          =            169

   => B2PLYP-D3(BJ): Empirical Dispersion <=

    Grimme's -D3 (BJ-damping) Dispersion Correction
    Grimme S.; Ehrlich S.; Goerigk L. (2011), J. Comput. Chem., 32: 1456
    Parametrisation from:    L. Goerigk, S. Grimme, Phys. Chem. Chem. Phys. 13, 6670-6688, 2011

        s6 =       0.640000
        s8 =       0.914700
        a1 =       0.306500
        a2 =       5.057000

   => Loading Basis Set <=

    Name: (AUG-CC-PV(Q+D)Z AUX)
    Role: JKFIT
    Keyword: DF_BASIS_SCF
    atoms 1 entry C          line   178 file /work/zw18965/.conda/envs/p4env/share/psi4/basis/aug-cc-pvqz-jkfit.gbs 
    atoms 2 entry S          line   810 file /work/zw18965/.conda/envs/p4env/share/psi4/basis/aug-cc-pvqz-jkfit.gbs 

  ==> Pre-Iterations <==

   -------------------------------------------------------
    Irrep   Nso     Nmo     Nalpha   Nbeta   Ndocc  Nsocc
   -------------------------------------------------------
     A1        66      66       0       0       0       0
     A2        23      23       0       0       0       0
     B1        40      40       0       0       0       0
     B2        40      40       0       0       0       0
   -------------------------------------------------------
    Total     169     169      11      11      11       0
   -------------------------------------------------------

  ==> Integral Setup <==

  DFHelper Memory: AOs need 0.082 GiB; user supplied 100.379 GiB. Using in-core AOs.

  ==> MemDFJK: Density-Fitted J/K Matrices <==

    J tasked:                   Yes
    K tasked:                   Yes
    wK tasked:                   No
    OpenMP threads:              24
    Memory [MiB]:            102788
    Algorithm:                 Core
    Schwarz Cutoff:           1E-12
    Mask sparsity (%):       0.0000
    Fitting Condition:        1E-10

   => Auxiliary Basis Set <=

  Basis Set: (AUG-CC-PV(Q+D)Z AUX)
    Blend: AUG-CC-PVQZ-JKFIT
    Number of shells: 80
    Number of basis function: 326
    Number of Cartesian functions: 445
    Spherical Harmonics?: true
    Max angular momentum: 5

  Cached 100.0% of DFT collocation blocks in 0.203 [GiB].

  Minimum eigenvalue in the overlap matrix is 3.5571044309E-05.
  Using Symmetric Orthogonalization.

  SCF Guess: Superposition of Atomic Densities via on-the-fly atomic UHF.

  ==> Iterations <==

                           Total Energy        Delta E     RMS |[F,P]|

   @DF-RKS iter SAD:  -435.51544939046141   -4.35515e+02   0.00000e+00 
   @DF-RKS iter   1:  -435.91350467353317   -3.98055e-01   4.39884e-03 DIIS
   @DF-RKS iter   2:  -435.83879181684637    7.47129e-02   5.69103e-03 DIIS
   @DF-RKS iter   3:  -435.99175261768835   -1.52961e-01   7.34501e-04 DIIS
   @DF-RKS iter   4:  -435.99377150978205   -2.01889e-03   1.54889e-04 DIIS
   @DF-RKS iter   5:  -435.99388135930627   -1.09850e-04   4.22815e-05 DIIS
   @DF-RKS iter   6:  -435.99388852725411   -7.16795e-06   1.92040e-05 DIIS
   @DF-RKS iter   7:  -435.99389055851350   -2.03126e-06   1.33184e-06 DIIS
   @DF-RKS iter   8:  -435.99389057285288   -1.43394e-08   3.20385e-07 DIIS
   @DF-RKS iter   9:  -435.99389057340176   -5.48880e-10   1.94490e-08 DIIS
   @DF-RKS iter  10:  -435.99389057340403   -2.27374e-12   3.51939e-09 DIIS
  Energy and wave function converged.


  ==> Post-Iterations <==

    Orbital Energies [Eh]
    ---------------------

    Doubly Occupied:                                                      

       1A1   -90.224266     2A1   -10.721179     3A1    -8.417125  
       1B1    -6.261286     1B2    -6.261286     4A1    -6.260909  
       5A1    -0.954502     6A1    -0.596522     2B1    -0.406754  
       2B2    -0.406754     7A1    -0.379603  

    Virtual:                                                              

       3B1    -0.032811     3B2    -0.032811     8A1     0.026166  
       9A1     0.049019     4B2     0.054319     4B1     0.054319  
      10A1     0.069313     5B1     0.085447     5B2     0.085447  
      11A1     0.128373    12A1     0.140828     1A2     0.140828  
      13A1     0.174902     6B1     0.225041     6B2     0.225041  
      14A1     0.244138     2A2     0.249259    15A1     0.249259  
       7B2     0.258396     7B1     0.258396    16A1     0.287905  
       8B1     0.326528     8B2     0.326528    17A1     0.393530  
      18A1     0.412288     3A2     0.412288    19A1     0.443124  
      20A1     0.465932     9B1     0.475206     9B2     0.475206  
      10B2     0.476514    10B1     0.476514    11B2     0.503927  
      11B1     0.503927    21A1     0.548210     4A2     0.548210  
      22A1     0.616646    12B2     0.668350    12B1     0.668350  
      23A1     0.744267     5A2     0.754966    24A1     0.754966  
      13B2     0.765266    13B1     0.765266    14B2     0.845454  
      14B1     0.845454    25A1     0.903461     6A2     0.965255  
      26A1     0.965256    27A1     0.973596    28A1     1.025706  
      15B2     1.092525    15B1     1.092525    29A1     1.153024  
       7A2     1.153024    16B1     1.258199    16B2     1.258199  
      30A1     1.278914     8A2     1.342924    31A1     1.342924  
      17B1     1.345256    17B2     1.345256    18B2     1.367162  
      18B1     1.367162    32A1     1.439999     9A2     1.439999  
      19B1     1.465639    19B2     1.465639    20B1     1.471919  
      20B2     1.471919    33A1     1.516634    34A1     1.645914  
      21B1     1.702292    21B2     1.702292    35A1     1.746866  
      10A2     1.746866    36A1     1.940321    37A1     2.065918  
      38A1     2.071830    11A2     2.071834    12A2     2.127229  
      39A1     2.127229    22B2     2.147323    22B1     2.147323  
      40A1     2.163600    23B1     2.194215    23B2     2.194215  
      24B2     2.308014    24B1     2.308014    13A2     2.369163  
      41A1     2.369164    25B2     2.394022    25B1     2.394022  
      42A1     2.397070    43A1     2.612363    26B1     2.688303  
      26B2     2.688303    14A2     2.775781    44A1     2.775783  
      27B2     2.859729    27B1     2.859729    45A1     2.882946  
      15A2     3.044534    46A1     3.044536    28B1     3.271869  
      28B2     3.271869    47A1     3.358578    29B2     3.458269  
      29B1     3.458269    48A1     3.525639    16A2     3.525641  
      17A2     3.627914    49A1     3.627922    30B1     3.691264  
      30B2     3.691264    31B1     3.815874    31B2     3.815874  
      50A1     3.826271    51A1     4.011802    52A1     4.037188  
      18A2     4.037188    53A1     4.348163    32B1     4.441057  
      32B2     4.441057    33B1     5.660296    33B2     5.660296  
      54A1     5.764846    19A2     5.764891    34B1     5.923343  
      34B2     5.923343    35B2     5.951813    35B1     5.951813  
      55A1     6.071516    20A2     6.071518    36B2     6.128098  
      36B1     6.128098    56A1     6.138608    37B1     6.289060  
      37B2     6.289060    57A1     6.353864    21A2     6.353866  
      58A1     6.413431    59A1     6.586988    22A2     6.586989  
      60A1     6.665139    38B2     6.907351    38B1     6.907351  
      61A1     7.324398    39B2     7.447796    39B1     7.447796  
      62A1     8.678082    63A1     8.964019    23A2     8.964041  
      40B1     9.223839    40B2     9.223839    64A1     9.817143  
      65A1    20.356467    66A1    21.488560  

    Final Occupation by Irrep:
             A1    A2    B1    B2 
    DOCC [     7,    0,    2,    2 ]

  @DF-RKS Final Energy:  -435.99389057340403

   => Energetics <=

    Nuclear Repulsion Energy =             33.4660237835952259
    One-Electron Energy =                -666.5738999095809731
    Two-Electron Energy =                 211.8908125614796347
    DFT Exchange-Correlation Energy =     -14.7759172188979679
    Empirical Dispersion Energy =          -0.0009097900000000
    VV10 Nonlocal Energy =                  0.0000000000000000
    Total Energy =                       -435.9938905734040873

Computation Completed


Properties will be evaluated at   0.000000,   0.000000,   0.000000 [a0]

Properties computed using the SCF density matrix

  Nuclear Dipole Moment: [e a0]
     X:     0.0000      Y:     0.0000      Z:     0.0109

  Electronic Dipole Moment: [e a0]
     X:     0.0000      Y:     0.0000      Z:     0.7449

  Dipole Moment: [e a0]
     X:     0.0000      Y:     0.0000      Z:     0.7558     Total:     0.7558

  Dipole Moment: [D]
     X:     0.0000      Y:     0.0000      Z:     1.9210     Total:     1.9210


*** tstop() called on bp1-compute00191.data.bp.acrc.priv at Mon Apr 19 15:35:23 2021
Module time:
	user time   =      42.23 seconds =       0.70 minutes
	system time =       1.74 seconds =       0.03 minutes
	total time  =          2 seconds =       0.03 minutes
Total time:
	user time   =      94.28 seconds =       1.57 minutes
	system time =       3.79 seconds =       0.06 minutes
	total time  =          5 seconds =       0.08 minutes

*** tstart() called on bp1-compute00191.data.bp.acrc.priv
*** at Mon Apr 19 15:35:23 2021

   => Loading Basis Set <=

    Name: (AUG-CC-PV(Q+D)Z AUX)
    Role: RIFIT
    Keyword: DF_BASIS_MP2
    atoms 1 entry C          line   184 file /work/zw18965/.conda/envs/p4env/share/psi4/basis/aug-cc-pvqz-ri.gbs 
    atoms 2 entry S          line   824 file /work/zw18965/.conda/envs/p4env/share/psi4/basis/aug-cc-pvqz-ri.gbs 

	 --------------------------------------------------------
	                          DF-MP2                         
	      2nd-Order Density-Fitted Moller-Plesset Theory     
	              RMP2 Wavefunction,  24 Threads             
	                                                         
	        Rob Parrish, Justin Turney, Andy Simmonett,      
	           Ed Hohenstein, and C. David Sherrill          
	 --------------------------------------------------------

   => Auxiliary Basis Set <=

  Basis Set: (AUG-CC-PV(Q+D)Z AUX)
    Blend: AUG-CC-PVQZ-RI
    Number of shells: 80
    Number of basis function: 362
    Number of Cartesian functions: 505
    Spherical Harmonics?: true
    Max angular momentum: 5

	 --------------------------------------------------------
	                 NBF =   169, NAUX =   362
	 --------------------------------------------------------
	   CLASS    FOCC     OCC    AOCC    AVIR     VIR    FVIR
	   PAIRS       0      11      11     158     158       0
	 --------------------------------------------------------

	-----------------------------------------------------------
	 ==================> DF-MP2 Energies <==================== 
	-----------------------------------------------------------
	 Reference Energy          =    -435.9938905734040304 [Eh]
	 Singles Energy            =      -0.0000000000000000 [Eh]
	 Same-Spin Energy          =      -0.1473560714109120 [Eh]
	 Opposite-Spin Energy      =      -0.4323024435423151 [Eh]
	 Correlation Energy        =      -0.5796585149532271 [Eh]
	 Total Energy              =    -436.5735490883572538 [Eh]
	-----------------------------------------------------------
	 ================> DF-SCS-MP2 Energies <================== 
	-----------------------------------------------------------
	 SCS Same-Spin Scale       =       0.3333333333333333 [-]
	 SCS Opposite-Spin Scale   =       1.2000000000000000 [-]
	 SCS Same-Spin Energy      =      -0.0491186904703040 [Eh]
	 SCS Opposite-Spin Energy  =      -0.5187629322507781 [Eh]
	 SCS Correlation Energy    =      -0.5678816227210821 [Eh]
	 SCS Total Energy          =    -436.5617721961251050 [Eh]
	-----------------------------------------------------------



    B2PLYP-D3BJ Energy Summary
    --------------------------
    DFT Reference Energy                  =  -435.9938905734040304
    Scaled MP2 Correlation                =    -0.1565077990373713
    @Final double-hybrid DFT total energy =  -436.1503983724414297


*** tstop() called on bp1-compute00191.data.bp.acrc.priv at Mon Apr 19 15:35:23 2021
Module time:
	user time   =      11.60 seconds =       0.19 minutes
	system time =       0.40 seconds =       0.01 minutes
	total time  =          0 seconds =       0.00 minutes
Total time:
	user time   =     105.89 seconds =       1.76 minutes
	system time =       4.19 seconds =       0.07 minutes
	total time  =          5 seconds =       0.08 minutes

  //>>>>>>>>>>>>>>>>>>>>>>>>>>>>>>>>>>>//
  //    Loading displacement 3 of 3    //
  //<<<<<<<<<<<<<<<<<<<<<<<<<<<<<<<<<<<//

*** tstart() called on bp1-compute00191.data.bp.acrc.priv
*** at Mon Apr 19 15:35:23 2021

   => Loading Basis Set <=

    Name: AUG-CC-PV(Q+D)Z
    Role: ORBITAL
    Keyword: BASIS
    atoms 1 entry C          line   319 file /work/zw18965/.conda/envs/p4env/share/psi4/basis/aug-cc-pv_qpd_z.gbs 
    atoms 2 entry S          line  1148 file /work/zw18965/.conda/envs/p4env/share/psi4/basis/aug-cc-pv_qpd_z.gbs 


         ---------------------------------------------------------
                                   SCF
               by Justin Turney, Rob Parrish, Andy Simmonett
                          and Daniel G. A. Smith
                              RKS Reference
                       24 Threads, 137329 MiB Core
         ---------------------------------------------------------

  ==> Geometry <==

    Molecular point group: c2v
    Full point group: C_inf_v

    Geometry (in Angstrom), charge = 0, multiplicity = 1:

       Center              X                  Y                   Z               Mass       
    ------------   -----------------  -----------------  -----------------  -----------------
         C            0.000000000000     0.000000000000    -1.102425510458    12.000000000000
         S            0.000000000000     0.000000000000     0.413770695471    31.972071174400

  Running in c2v symmetry.

  Rotational constants: A = ************  B =      0.84045  C =      0.84045 [cm^-1]
  Rotational constants: A = ************  B =  25195.98223  C =  25195.98223 [MHz]
  Nuclear repulsion =   33.505566117142450

  Charge       = 0
  Multiplicity = 1
  Electrons    = 22
  Nalpha       = 11
  Nbeta        = 11

  ==> Algorithm <==

  SCF Algorithm Type is DF.
  DIIS enabled.
  MOM disabled.
  Fractional occupation disabled.
  Guess Type is SAD.
  Energy threshold   = 1.00e-08
  Density threshold  = 1.00e-08
  Integral threshold = 0.00e+00

  ==> Primary Basis <==

  Basis Set: AUG-CC-PV(Q+D)Z
    Blend: AUG-CC-PV(Q+D)Z
    Number of shells: 43
    Number of basis function: 169
    Number of Cartesian functions: 220
    Spherical Harmonics?: true
    Max angular momentum: 4

  ==> DFT Potential <==

   => Composite Functional: B2PLYP-D3BJ <= 

    B2PLYP Double Hybrid Exchange-Correlation Functional

    S. Grimme, J. Chem. Phys., 124, 034108, 2006


    Deriv               =              1
    GGA                 =           TRUE
    Meta                =          FALSE

    Exchange Hybrid     =           TRUE
    MP2 Hybrid          =           TRUE

   => Exchange Functionals <=

    0.4700     XC_GGA_X_B88

   => Exact (HF) Exchange <=

    0.5300               HF 

   => Correlation Functionals <=

    0.7300     XC_GGA_C_LYP

   => MP2 Correlation <=

    0.2700       MP2 

   => Molecular Quadrature <=

    Radial Scheme          =       TREUTLER
    Pruning Scheme         =           FLAT
    Nuclear Scheme         =       TREUTLER

    BS radius alpha        =              1
    Pruning alpha          =              1
    Radial Points          =             75
    Spherical Points       =            302
    Total Points           =          45300
    Total Blocks           =            426
    Max Points             =            254
    Max Functions          =            169

   => B2PLYP-D3(BJ): Empirical Dispersion <=

    Grimme's -D3 (BJ-damping) Dispersion Correction
    Grimme S.; Ehrlich S.; Goerigk L. (2011), J. Comput. Chem., 32: 1456
    Parametrisation from:    L. Goerigk, S. Grimme, Phys. Chem. Chem. Phys. 13, 6670-6688, 2011

        s6 =       0.640000
        s8 =       0.914700
        a1 =       0.306500
        a2 =       5.057000

   => Loading Basis Set <=

    Name: (AUG-CC-PV(Q+D)Z AUX)
    Role: JKFIT
    Keyword: DF_BASIS_SCF
    atoms 1 entry C          line   178 file /work/zw18965/.conda/envs/p4env/share/psi4/basis/aug-cc-pvqz-jkfit.gbs 
    atoms 2 entry S          line   810 file /work/zw18965/.conda/envs/p4env/share/psi4/basis/aug-cc-pvqz-jkfit.gbs 

  ==> Pre-Iterations <==

   -------------------------------------------------------
    Irrep   Nso     Nmo     Nalpha   Nbeta   Ndocc  Nsocc
   -------------------------------------------------------
     A1        66      66       0       0       0       0
     A2        23      23       0       0       0       0
     B1        40      40       0       0       0       0
     B2        40      40       0       0       0       0
   -------------------------------------------------------
    Total     169     169      11      11      11       0
   -------------------------------------------------------

  ==> Integral Setup <==

  DFHelper Memory: AOs need 0.082 GiB; user supplied 100.379 GiB. Using in-core AOs.

  ==> MemDFJK: Density-Fitted J/K Matrices <==

    J tasked:                   Yes
    K tasked:                   Yes
    wK tasked:                   No
    OpenMP threads:              24
    Memory [MiB]:            102788
    Algorithm:                 Core
    Schwarz Cutoff:           1E-12
    Mask sparsity (%):       0.0000
    Fitting Condition:        1E-10

   => Auxiliary Basis Set <=

  Basis Set: (AUG-CC-PV(Q+D)Z AUX)
    Blend: AUG-CC-PVQZ-JKFIT
    Number of shells: 80
    Number of basis function: 326
    Number of Cartesian functions: 445
    Spherical Harmonics?: true
    Max angular momentum: 5

  Cached 100.0% of DFT collocation blocks in 0.203 [GiB].

  Minimum eigenvalue in the overlap matrix is 3.5409116778E-05.
  Using Symmetric Orthogonalization.

  SCF Guess: Superposition of Atomic Densities via on-the-fly atomic UHF.

  ==> Iterations <==

                           Total Energy        Delta E     RMS |[F,P]|

   @DF-RKS iter SAD:  -435.51802962468543   -4.35518e+02   0.00000e+00 
   @DF-RKS iter   1:  -435.91282523687698   -3.94796e-01   4.41863e-03 DIIS
   @DF-RKS iter   2:  -435.83769967301095    7.51256e-02   5.71289e-03 DIIS
   @DF-RKS iter   3:  -435.99175675553033   -1.54057e-01   7.33494e-04 DIIS
   @DF-RKS iter   4:  -435.99376829071855   -2.01154e-03   1.54805e-04 DIIS
   @DF-RKS iter   5:  -435.99387777134979   -1.09481e-04   4.22238e-05 DIIS
   @DF-RKS iter   6:  -435.99388489642632   -7.12508e-06   1.91726e-05 DIIS
   @DF-RKS iter   7:  -435.99388691779495   -2.02137e-06   1.33139e-06 DIIS
   @DF-RKS iter   8:  -435.99388693211591   -1.43210e-08   3.18671e-07 DIIS
   @DF-RKS iter   9:  -435.99388693266008   -5.44162e-10   1.94348e-08 DIIS
   @DF-RKS iter  10:  -435.99388693266263   -2.55795e-12   3.51142e-09 DIIS
  Energy and wave function converged.


  ==> Post-Iterations <==

    Orbital Energies [Eh]
    ---------------------

    Doubly Occupied:                                                      

       1A1   -90.224121     2A1   -10.720607     3A1    -8.417090  
       1B2    -6.261243     1B1    -6.261243     4A1    -6.260870  
       5A1    -0.955062     6A1    -0.596410     2B2    -0.407069  
       2B1    -0.407069     7A1    -0.379426  

    Virtual:                                                              

       3B2    -0.032554     3B1    -0.032554     8A1     0.026147  
       9A1     0.049070     4B1     0.054304     4B2     0.054304  
      10A1     0.069319     5B2     0.085461     5B1     0.085461  
      11A1     0.128431    12A1     0.140806     1A2     0.140806  
      13A1     0.174942     6B2     0.225097     6B1     0.225097  
      14A1     0.244237     2A2     0.249296    15A1     0.249296  
       7B2     0.258388     7B1     0.258388    16A1     0.288131  
       8B2     0.326461     8B1     0.326461    17A1     0.393438  
      18A1     0.412195     3A2     0.412195    19A1     0.443135  
      20A1     0.466185     9B2     0.475320     9B1     0.475320  
      10B1     0.476474    10B2     0.476474    11B2     0.504171  
      11B1     0.504171    21A1     0.548193     4A2     0.548194  
      22A1     0.617008    12B2     0.668513    12B1     0.668513  
      23A1     0.744574     5A2     0.755159    24A1     0.755160  
      13B1     0.765435    13B2     0.765435    14B1     0.845563  
      14B2     0.845563    25A1     0.903707     6A2     0.965568  
      26A1     0.965568    27A1     0.973907    28A1     1.025807  
      15B2     1.092477    15B1     1.092477    29A1     1.152864  
       7A2     1.152864    16B2     1.258641    16B1     1.258641  
      30A1     1.279424     8A2     1.342841    31A1     1.342842  
      17B2     1.344964    17B1     1.344964    18B1     1.367069  
      18B2     1.367069    32A1     1.440073     9A2     1.440073  
      19B2     1.465866    19B1     1.465866    20B1     1.472107  
      20B2     1.472107    33A1     1.517334    34A1     1.646466  
      21B2     1.703214    21B1     1.703214    35A1     1.747270  
      10A2     1.747270    36A1     1.939875    37A1     2.065997  
      38A1     2.072153    11A2     2.072158    12A2     2.127650  
      39A1     2.127651    22B2     2.147613    22B1     2.147613  
      40A1     2.163795    23B2     2.194499    23B1     2.194499  
      24B1     2.308364    24B2     2.308364    13A2     2.369706  
      41A1     2.369706    25B1     2.395020    25B2     2.395020  
      42A1     2.397847    43A1     2.612967    26B2     2.688449  
      26B1     2.688449    14A2     2.776022    44A1     2.776024  
      27B2     2.861357    27B1     2.861357    45A1     2.884475  
      15A2     3.045547    46A1     3.045549    28B2     3.272685  
      28B1     3.272685    47A1     3.359367    29B2     3.458106  
      29B1     3.458106    48A1     3.525843    16A2     3.525844  
      17A2     3.627773    49A1     3.627780    30B1     3.691492  
      30B2     3.691492    31B2     3.816578    31B1     3.816578  
      50A1     3.829754    51A1     4.011828    52A1     4.038874  
      18A2     4.038875    53A1     4.349391    32B2     4.442024  
      32B1     4.442024    33B2     5.662240    33B1     5.662240  
      54A1     5.765146    19A2     5.765191    34B1     5.924214  
      34B2     5.924214    35B1     5.952896    35B2     5.952896  
      55A1     6.072128    20A2     6.072130    36B1     6.128425  
      36B2     6.128425    56A1     6.138089    37B2     6.289485  
      37B1     6.289485    57A1     6.355411    21A2     6.355413  
      58A1     6.413872    59A1     6.588649    22A2     6.588650  
      60A1     6.668811    38B1     6.909328    38B2     6.909328  
      61A1     7.328264    39B1     7.452728    39B2     7.452728  
      62A1     8.679748    63A1     8.964197    23A2     8.964219  
      40B2     9.224828    40B1     9.224828    64A1     9.821341  
      65A1    20.372466    66A1    21.494292  

    Final Occupation by Irrep:
             A1    A2    B1    B2 
    DOCC [     7,    0,    2,    2 ]

  @DF-RKS Final Energy:  -435.99388693266263

   => Energetics <=

    Nuclear Repulsion Energy =             33.5055661171424504
    One-Electron Energy =                -666.6525073043510474
    Two-Electron Energy =                 211.9304920679178110
    DFT Exchange-Correlation Energy =     -14.7765280133719070
    Empirical Dispersion Energy =          -0.0009098000000000
    VV10 Nonlocal Energy =                  0.0000000000000000
    Total Energy =                       -435.9938869326625763

Computation Completed


Properties will be evaluated at   0.000000,   0.000000,   0.000000 [a0]

Properties computed using the SCF density matrix

  Nuclear Dipole Moment: [e a0]
     X:     0.0000      Y:     0.0000      Z:     0.0109

  Electronic Dipole Moment: [e a0]
     X:     0.0000      Y:     0.0000      Z:     0.7482

  Dipole Moment: [e a0]
     X:     0.0000      Y:     0.0000      Z:     0.7591     Total:     0.7591

  Dipole Moment: [D]
     X:     0.0000      Y:     0.0000      Z:     1.9296     Total:     1.9296


*** tstop() called on bp1-compute00191.data.bp.acrc.priv at Mon Apr 19 15:35:25 2021
Module time:
	user time   =      42.39 seconds =       0.71 minutes
	system time =       1.81 seconds =       0.03 minutes
	total time  =          2 seconds =       0.03 minutes
Total time:
	user time   =     148.41 seconds =       2.47 minutes
	system time =       6.01 seconds =       0.10 minutes
	total time  =          7 seconds =       0.12 minutes

*** tstart() called on bp1-compute00191.data.bp.acrc.priv
*** at Mon Apr 19 15:35:25 2021

   => Loading Basis Set <=

    Name: (AUG-CC-PV(Q+D)Z AUX)
    Role: RIFIT
    Keyword: DF_BASIS_MP2
    atoms 1 entry C          line   184 file /work/zw18965/.conda/envs/p4env/share/psi4/basis/aug-cc-pvqz-ri.gbs 
    atoms 2 entry S          line   824 file /work/zw18965/.conda/envs/p4env/share/psi4/basis/aug-cc-pvqz-ri.gbs 

	 --------------------------------------------------------
	                          DF-MP2                         
	      2nd-Order Density-Fitted Moller-Plesset Theory     
	              RMP2 Wavefunction,  24 Threads             
	                                                         
	        Rob Parrish, Justin Turney, Andy Simmonett,      
	           Ed Hohenstein, and C. David Sherrill          
	 --------------------------------------------------------

   => Auxiliary Basis Set <=

  Basis Set: (AUG-CC-PV(Q+D)Z AUX)
    Blend: AUG-CC-PVQZ-RI
    Number of shells: 80
    Number of basis function: 362
    Number of Cartesian functions: 505
    Spherical Harmonics?: true
    Max angular momentum: 5

	 --------------------------------------------------------
	                 NBF =   169, NAUX =   362
	 --------------------------------------------------------
	   CLASS    FOCC     OCC    AOCC    AVIR     VIR    FVIR
	   PAIRS       0      11      11     158     158       0
	 --------------------------------------------------------

	-----------------------------------------------------------
	 ==================> DF-MP2 Energies <==================== 
	-----------------------------------------------------------
	 Reference Energy          =    -435.9938869326626332 [Eh]
	 Singles Energy            =      -0.0000000000000000 [Eh]
	 Same-Spin Energy          =      -0.1472900836919880 [Eh]
	 Opposite-Spin Energy      =      -0.4321361265716320 [Eh]
	 Correlation Energy        =      -0.5794262102636201 [Eh]
	 Total Energy              =    -436.5733131429262812 [Eh]
	-----------------------------------------------------------
	 ================> DF-SCS-MP2 Energies <================== 
	-----------------------------------------------------------
	 SCS Same-Spin Scale       =       0.3333333333333333 [-]
	 SCS Opposite-Spin Scale   =       1.2000000000000000 [-]
	 SCS Same-Spin Energy      =      -0.0490966945639960 [Eh]
	 SCS Opposite-Spin Energy  =      -0.5185633518859584 [Eh]
	 SCS Correlation Energy    =      -0.5676600464499544 [Eh]
	 SCS Total Energy          =    -436.5615469791125633 [Eh]
	-----------------------------------------------------------



    B2PLYP-D3BJ Energy Summary
    --------------------------
    DFT Reference Energy                  =  -435.9938869326626332
    Scaled MP2 Correlation                =    -0.1564450767711774
    @Final double-hybrid DFT total energy =  -436.1503320094337823


*** tstop() called on bp1-compute00191.data.bp.acrc.priv at Mon Apr 19 15:35:26 2021
Module time:
	user time   =      11.44 seconds =       0.19 minutes
	system time =       0.43 seconds =       0.01 minutes
	total time  =          1 seconds =       0.02 minutes
Total time:
	user time   =     159.86 seconds =       2.66 minutes
	system time =       6.44 seconds =       0.11 minutes
	total time  =          8 seconds =       0.13 minutes

         ----------------------------------------------------------
                                   FINDIF
                     R. A. King and Jonathon Misiewicz
         ---------------------------------------------------------

  Computing gradient from energies.
    Using 3-point formula.
    Energy without displacement: -436.1503660601
    Check energies below for precision!
    Forces are for mass-weighted, symmetry-adapted cartesians (in au).

     Coord      Energy(-1)        Energy(+1)            Force
        0   -436.1503983724   -436.1503320094      0.0066363008


-------------------------------------------------------------
  ## New Matrix (Symmetry 0) ##
  Irrep: 1 Size: 2 x 3

                 1                   2                   3

    1     0.00000000000000     0.00000000000000     0.01960259683760
    2     0.00000000000000     0.00000000000000    -0.01960259683760




			-----------------------------------------
			 OPTKING 2.0: for geometry optimizations 
			  - R.A. King,  Bethel University        
			-----------------------------------------

	Internal coordinates to be generated automatically.
	Detected frag 1 with atoms:  1 2
	---Fragment 1 Bond Connectivity---
	 1 : 2
	 2 : 1

	---Fragment 1 Geometry and Gradient---
	 C           0.0000000000        0.0000000000       -2.0845130568
	 S           0.0000000000        0.0000000000        0.7823752345
	             0.0000000000        0.0000000000        0.0196025968
	             0.0000000000        0.0000000000       -0.0196025968

	Previous optimization step data not found.  Starting new optimization.

	---Fragment 1 Intrafragment Coordinates---
	 - Coordinate -           - BOHR/RAD -       - ANG/DEG -
	 R(1,2)           =         2.866888	       1.517092

	Current energy   :      -436.1503660601

	Generating empirical Hessian (Schlegel '84) for each fragment.
	Taking RFO optimization step.
	Going to follow RFO solution 1.
	Using RFO vector 1.
	Norm of target step-size    0.02748
	Projected energy change by RFO approximation:        -0.0001609934

	Back-transformation to cartesian coordinates...
	Successfully converged to displaced geometry.

	--- Internal Coordinate Step in ANG or DEG, aJ/ANG or AJ/DEG ---
	 ---------------------------------------------------------------------------
	   Coordinate                Previous        Force       Change         New 
	   ----------                --------       ------       ------       ------
	    1 R(1,2)          =      1.517092     0.161500     0.014541     1.531633
	 ---------------------------------------------------------------------------
	Successfully symmetrized geometry.

  ==> Convergence Check <==

  Measures of convergence in internal coordinates in au.
  Criteria marked as inactive (o), active & met (*), and active & unmet ( ).
  --------------------------------------------------------------------------------------------- ~
   Step     Total Energy     Delta E     MAX Force     RMS Force      MAX Disp      RMS Disp    ~
  --------------------------------------------------------------------------------------------- ~
    Convergence Criteria    1.00e-06 *    3.00e-04 *             o    1.20e-03 *             o  ~
  --------------------------------------------------------------------------------------------- ~
      1    -436.15036606   -4.36e+02      1.96e-02      1.96e-02 o    2.75e-02      2.75e-02 o  ~
  ---------------------------------------------------------------------------------------------

	Writing optimization data to binary file.
	Structure for next step:
	Cartesian Geometry (in Angstrom)
	    C     0.0000000000   0.0000000000  -1.1103473335
	    S     0.0000000000   0.0000000000   0.4212856755
			--------------------------
			 OPTKING Finished Execution 
			--------------------------

    Structure for next step:
    Molecular point group: c2v
    Full point group: C_inf_v

    Geometry (in Angstrom), charge = 0, multiplicity = 1:

    C            0.000000000000     0.000000000000    -1.113649606664
    S            0.000000000000     0.000000000000     0.417983408303

gradient() will perform gradient computation by finite difference of analytic energies.

         ----------------------------------------------------------
                                   FINDIF
                     R. A. King and Jonathon Misiewicz
         ---------------------------------------------------------

  Using finite-differences of energies to determine gradients.
    Generating geometries for use with 3-point formula.
    Displacement size will be 5.00e-03.
    Number of atoms is 2.
    Number of symmetric SALCs is 1.
    Translations projected? 1. Rotations projected? 1.
    Number of geometries (including reference) is 3.

  //>>>>>>>>>>>>>>>>>>>>>>>>>>>>>>>>>>>//
  //    Loading displacement 1 of 3    //
  //<<<<<<<<<<<<<<<<<<<<<<<<<<<<<<<<<<<//

*** tstart() called on bp1-compute00191.data.bp.acrc.priv
*** at Mon Apr 19 15:35:26 2021

   => Loading Basis Set <=

    Name: AUG-CC-PV(Q+D)Z
    Role: ORBITAL
    Keyword: BASIS
    atoms 1 entry C          line   319 file /work/zw18965/.conda/envs/p4env/share/psi4/basis/aug-cc-pv_qpd_z.gbs 
    atoms 2 entry S          line  1148 file /work/zw18965/.conda/envs/p4env/share/psi4/basis/aug-cc-pv_qpd_z.gbs 


         ---------------------------------------------------------
                                   SCF
               by Justin Turney, Rob Parrish, Andy Simmonett
                          and Daniel G. A. Smith
                              RKS Reference
                       24 Threads, 137329 MiB Core
         ---------------------------------------------------------

  ==> Geometry <==

    Molecular point group: c2v
    Full point group: C_inf_v

    Geometry (in Angstrom), charge = 0, multiplicity = 1:

       Center              X                  Y                   Z               Mass       
    ------------   -----------------  -----------------  -----------------  -----------------
         C            0.000000000000     0.000000000000    -1.113649606664    12.000000000000
         S            0.000000000000     0.000000000000     0.417983408303    31.972071174400

  Running in c2v symmetry.

  Rotational constants: A = ************  B =      0.82359  C =      0.82359 [cm^-1]
  Rotational constants: A = ************  B =  24690.65812  C =  24690.65812 [MHz]
  Nuclear repulsion =   33.167874894253217

  Charge       = 0
  Multiplicity = 1
  Electrons    = 22
  Nalpha       = 11
  Nbeta        = 11

  ==> Algorithm <==

  SCF Algorithm Type is DF.
  DIIS enabled.
  MOM disabled.
  Fractional occupation disabled.
  Guess Type is READ.
  Energy threshold   = 1.00e-08
  Density threshold  = 1.00e-08
  Integral threshold = 0.00e+00

  ==> Primary Basis <==

  Basis Set: AUG-CC-PV(Q+D)Z
    Blend: AUG-CC-PV(Q+D)Z
    Number of shells: 43
    Number of basis function: 169
    Number of Cartesian functions: 220
    Spherical Harmonics?: true
    Max angular momentum: 4

  ==> DFT Potential <==

   => Composite Functional: B2PLYP-D3BJ <= 

    B2PLYP Double Hybrid Exchange-Correlation Functional

    S. Grimme, J. Chem. Phys., 124, 034108, 2006


    Deriv               =              1
    GGA                 =           TRUE
    Meta                =          FALSE

    Exchange Hybrid     =           TRUE
    MP2 Hybrid          =           TRUE

   => Exchange Functionals <=

    0.4700     XC_GGA_X_B88

   => Exact (HF) Exchange <=

    0.5300               HF 

   => Correlation Functionals <=

    0.7300     XC_GGA_C_LYP

   => MP2 Correlation <=

    0.2700       MP2 

   => Molecular Quadrature <=

    Radial Scheme          =       TREUTLER
    Pruning Scheme         =           FLAT
    Nuclear Scheme         =       TREUTLER

    BS radius alpha        =              1
    Pruning alpha          =              1
    Radial Points          =             75
    Spherical Points       =            302
    Total Points           =          45300
    Total Blocks           =            427
    Max Points             =            254
    Max Functions          =            169

   => B2PLYP-D3(BJ): Empirical Dispersion <=

    Grimme's -D3 (BJ-damping) Dispersion Correction
    Grimme S.; Ehrlich S.; Goerigk L. (2011), J. Comput. Chem., 32: 1456
    Parametrisation from:    L. Goerigk, S. Grimme, Phys. Chem. Chem. Phys. 13, 6670-6688, 2011

        s6 =       0.640000
        s8 =       0.914700
        a1 =       0.306500
        a2 =       5.057000

   => Loading Basis Set <=

    Name: (AUG-CC-PV(Q+D)Z AUX)
    Role: JKFIT
    Keyword: DF_BASIS_SCF
    atoms 1 entry C          line   178 file /work/zw18965/.conda/envs/p4env/share/psi4/basis/aug-cc-pvqz-jkfit.gbs 
    atoms 2 entry S          line   810 file /work/zw18965/.conda/envs/p4env/share/psi4/basis/aug-cc-pvqz-jkfit.gbs 

   => Loading Basis Set <=

    Name: AUG-CC-PV(Q+D)Z
    Role: ORBITAL
    Keyword: BASIS
    atoms 1 entry C          line   319 file /work/zw18965/.conda/envs/p4env/share/psi4/basis/aug-cc-pv_qpd_z.gbs 
    atoms 2 entry S          line  1148 file /work/zw18965/.conda/envs/p4env/share/psi4/basis/aug-cc-pv_qpd_z.gbs 

  Reading orbitals from file 180, no projection.

  ==> Pre-Iterations <==

   -------------------------------------------------------
    Irrep   Nso     Nmo     Nalpha   Nbeta   Ndocc  Nsocc
   -------------------------------------------------------
     A1        66      66       0       0       0       0
     A2        23      23       0       0       0       0
     B1        40      40       0       0       0       0
     B2        40      40       0       0       0       0
   -------------------------------------------------------
    Total     169     169      11      11      11       0
   -------------------------------------------------------

  ==> Integral Setup <==

  DFHelper Memory: AOs need 0.082 GiB; user supplied 100.379 GiB. Using in-core AOs.

  ==> MemDFJK: Density-Fitted J/K Matrices <==

    J tasked:                   Yes
    K tasked:                   Yes
    wK tasked:                   No
    OpenMP threads:              24
    Memory [MiB]:            102788
    Algorithm:                 Core
    Schwarz Cutoff:           1E-12
    Mask sparsity (%):       0.0000
    Fitting Condition:        1E-10

   => Auxiliary Basis Set <=

  Basis Set: (AUG-CC-PV(Q+D)Z AUX)
    Blend: AUG-CC-PVQZ-JKFIT
    Number of shells: 80
    Number of basis function: 326
    Number of Cartesian functions: 445
    Spherical Harmonics?: true
    Max angular momentum: 5

  Cached 100.0% of DFT collocation blocks in 0.203 [GiB].

  Minimum eigenvalue in the overlap matrix is 3.6834070752E-05.
  Using Symmetric Orthogonalization.

  SCF Guess: Orbitals guess was supplied from a previous computation.

  ==> Iterations <==

                           Total Energy        Delta E     RMS |[F,P]|

   @DF-RKS iter   0:  -435.98020225277560   -4.35980e+02   5.92323e-04 
   @DF-RKS iter   1:  -435.99364691164965   -1.34447e-02   9.30770e-05 DIIS
   @DF-RKS iter   2:  -435.99359951196590    4.73997e-05   1.41546e-04 DIIS
   @DF-RKS iter   3:  -435.99368850611160   -8.89941e-05   1.51893e-05 DIIS
   @DF-RKS iter   4:  -435.99368931425016   -8.08139e-07   1.57816e-06 DIIS
   @DF-RKS iter   5:  -435.99368932584281   -1.15926e-08   5.67919e-07 DIIS
   @DF-RKS iter   6:  -435.99368932759558   -1.75277e-09   4.25430e-08 DIIS
   @DF-RKS iter   7:  -435.99368932760837   -1.27898e-11   6.52394e-09 DIIS
  Energy and wave function converged.


  ==> Post-Iterations <==

    Orbital Energies [Eh]
    ---------------------

    Doubly Occupied:                                                      

       1A1   -90.225333     2A1   -10.725510     3A1    -8.417383  
       1B2    -6.261595     1B1    -6.261595     4A1    -6.261195  
       5A1    -0.950246     6A1    -0.597384     2B2    -0.404382  
       2B1    -0.404382     7A1    -0.380915  

    Virtual:                                                              

       3B2    -0.034783     3B1    -0.034783     8A1     0.026304  
       9A1     0.048631     4B1     0.054432     4B2     0.054432  
      10A1     0.069268     5B1     0.085343     5B2     0.085343  
      11A1     0.127902    12A1     0.140996     1A2     0.140996  
      13A1     0.174583     6B1     0.224614     6B2     0.224614  
      14A1     0.243381    15A1     0.248975     2A2     0.248975  
       7B1     0.258448     7B2     0.258448    16A1     0.286169  
       8B1     0.327050     8B2     0.327050    17A1     0.394227  
      18A1     0.412996     3A2     0.412996    19A1     0.443036  
      20A1     0.464015     9B1     0.474337     9B2     0.474337  
      10B2     0.476826    10B1     0.476826    11B1     0.502075  
      11B2     0.502075    21A1     0.548330     4A2     0.548330  
      22A1     0.613901    12B1     0.667122    12B2     0.667122  
      23A1     0.741898     5A2     0.753486    24A1     0.753486  
      13B1     0.763975    13B2     0.763975    14B2     0.844623  
      14B1     0.844623    25A1     0.901475     6A2     0.962877  
      26A1     0.962877    27A1     0.971043    28A1     1.025244  
      15B1     1.092888    15B2     1.092888    29A1     1.154231  
       7A2     1.154231    16B2     1.254883    16B1     1.254883  
      30A1     1.275231     8A2     1.343554    31A1     1.343555  
      17B1     1.347461    17B2     1.347461    18B2     1.367875  
      18B1     1.367875    32A1     1.439433     9A2     1.439433  
      19B2     1.463851    19B1     1.463851    20B1     1.470486  
      20B2     1.470486    33A1     1.511468    34A1     1.641726  
      21B1     1.695422    21B2     1.695422    35A1     1.743780  
      10A2     1.743780    36A1     1.943618    37A1     2.065135  
      38A1     2.069385    11A2     2.069390    12A2     2.124035  
      39A1     2.124035    22B1     2.145010    22B2     2.145010  
      40A1     2.162283    23B2     2.192060    23B1     2.192060  
      24B1     2.305337    24B2     2.305337    13A2     2.365074  
      41A1     2.365075    25B1     2.386480    25B2     2.386480  
      42A1     2.391253    43A1     2.607682    26B1     2.687005  
      26B2     2.687005    14A2     2.773874    44A1     2.773876  
      27B1     2.847588    27B2     2.847588    45A1     2.871638  
      15A2     3.036754    46A1     3.036756    28B1     3.265862  
      28B2     3.265862    47A1     3.352258    29B2     3.459497  
      29B1     3.459497    48A1     3.524247    16A2     3.524248  
      17A2     3.628986    49A1     3.628994    30B1     3.689624  
      30B2     3.689624    50A1     3.800011    31B2     3.810588  
      31B1     3.810588    51A1     4.010042    52A1     4.024552  
      18A2     4.024553    53A1     4.341192    32B2     4.433374  
      32B1     4.433374    33B2     5.645538    33B1     5.645538  
      54A1     5.762571    19A2     5.762622    34B2     5.916826  
      34B1     5.916826    35B2     5.944102    35B1     5.944102  
      20A2     6.066798    55A1     6.066800    36B2     6.125493  
      36B1     6.125493    56A1     6.141798    37B2     6.285850  
      37B1     6.285850    57A1     6.342313    21A2     6.342313  
      58A1     6.407826    59A1     6.574496    22A2     6.574497  
      60A1     6.639622    38B1     6.892215    38B2     6.892215  
      61A1     7.296106    39B2     7.410542    39B1     7.410542  
      62A1     8.664068    63A1     8.962716    23A2     8.962738  
      40B2     9.216909    40B1     9.216909    64A1     9.784911  
      65A1    20.237184    66A1    21.447529  

    Final Occupation by Irrep:
             A1    A2    B1    B2 
    DOCC [     7,    0,    2,    2 ]

  @DF-RKS Final Energy:  -435.99368932760837

   => Energetics <=

    Nuclear Repulsion Energy =             33.1678748942532167
    One-Electron Energy =                -665.9809034008586650
    Two-Electron Energy =                 211.5915804041927970
    DFT Exchange-Correlation Energy =     -14.7713315851957514
    Empirical Dispersion Energy =          -0.0009096400000000
    VV10 Nonlocal Energy =                  0.0000000000000000
    Total Energy =                       -435.9936893276083651

Computation Completed


Properties will be evaluated at   0.000000,   0.000000,   0.000000 [a0]

Properties computed using the SCF density matrix

  Nuclear Dipole Moment: [e a0]
     X:     0.0000      Y:     0.0000      Z:     0.0110

  Electronic Dipole Moment: [e a0]
     X:     0.0000      Y:     0.0000      Z:     0.7192

  Dipole Moment: [e a0]
     X:     0.0000      Y:     0.0000      Z:     0.7303     Total:     0.7303

  Dipole Moment: [D]
     X:     0.0000      Y:     0.0000      Z:     1.8561     Total:     1.8561


*** tstop() called on bp1-compute00191.data.bp.acrc.priv at Mon Apr 19 15:35:27 2021
Module time:
	user time   =      25.50 seconds =       0.42 minutes
	system time =       0.95 seconds =       0.02 minutes
	total time  =          1 seconds =       0.02 minutes
Total time:
	user time   =     185.70 seconds =       3.10 minutes
	system time =       7.40 seconds =       0.12 minutes
	total time  =          9 seconds =       0.15 minutes

*** tstart() called on bp1-compute00191.data.bp.acrc.priv
*** at Mon Apr 19 15:35:27 2021

   => Loading Basis Set <=

    Name: (AUG-CC-PV(Q+D)Z AUX)
    Role: RIFIT
    Keyword: DF_BASIS_MP2
    atoms 1 entry C          line   184 file /work/zw18965/.conda/envs/p4env/share/psi4/basis/aug-cc-pvqz-ri.gbs 
    atoms 2 entry S          line   824 file /work/zw18965/.conda/envs/p4env/share/psi4/basis/aug-cc-pvqz-ri.gbs 

	 --------------------------------------------------------
	                          DF-MP2                         
	      2nd-Order Density-Fitted Moller-Plesset Theory     
	              RMP2 Wavefunction,  24 Threads             
	                                                         
	        Rob Parrish, Justin Turney, Andy Simmonett,      
	           Ed Hohenstein, and C. David Sherrill          
	 --------------------------------------------------------

   => Auxiliary Basis Set <=

  Basis Set: (AUG-CC-PV(Q+D)Z AUX)
    Blend: AUG-CC-PVQZ-RI
    Number of shells: 80
    Number of basis function: 362
    Number of Cartesian functions: 505
    Spherical Harmonics?: true
    Max angular momentum: 5

	 --------------------------------------------------------
	                 NBF =   169, NAUX =   362
	 --------------------------------------------------------
	   CLASS    FOCC     OCC    AOCC    AVIR     VIR    FVIR
	   PAIRS       0      11      11     158     158       0
	 --------------------------------------------------------

	-----------------------------------------------------------
	 ==================> DF-MP2 Energies <==================== 
	-----------------------------------------------------------
	 Reference Energy          =    -435.9936893276083651 [Eh]
	 Singles Energy            =      -0.0000000000000000 [Eh]
	 Same-Spin Energy          =      -0.1478694942870528 [Eh]
	 Opposite-Spin Energy      =      -0.4335883007028418 [Eh]
	 Correlation Energy        =      -0.5814577949898945 [Eh]
	 Total Energy              =    -436.5751471225982527 [Eh]
	-----------------------------------------------------------
	 ================> DF-SCS-MP2 Energies <================== 
	-----------------------------------------------------------
	 SCS Same-Spin Scale       =       0.3333333333333333 [-]
	 SCS Opposite-Spin Scale   =       1.2000000000000000 [-]
	 SCS Same-Spin Energy      =      -0.0492898314290176 [Eh]
	 SCS Opposite-Spin Energy  =      -0.5203059608434101 [Eh]
	 SCS Correlation Energy    =      -0.5695957922724276 [Eh]
	 SCS Total Energy          =    -436.5632851198807884 [Eh]
	-----------------------------------------------------------



    B2PLYP-D3BJ Energy Summary
    --------------------------
    DFT Reference Energy                  =  -435.9936893276083651
    Scaled MP2 Correlation                =    -0.1569936046472715
    @Final double-hybrid DFT total energy =  -436.1506829322556200


*** tstop() called on bp1-compute00191.data.bp.acrc.priv at Mon Apr 19 15:35:28 2021
Module time:
	user time   =      11.47 seconds =       0.19 minutes
	system time =       0.37 seconds =       0.01 minutes
	total time  =          1 seconds =       0.02 minutes
Total time:
	user time   =     197.18 seconds =       3.29 minutes
	system time =       7.77 seconds =       0.13 minutes
	total time  =         10 seconds =       0.17 minutes

  //>>>>>>>>>>>>>>>>>>>>>>>>>>>>>>>>>>>//
  //    Loading displacement 2 of 3    //
  //<<<<<<<<<<<<<<<<<<<<<<<<<<<<<<<<<<<//

*** tstart() called on bp1-compute00191.data.bp.acrc.priv
*** at Mon Apr 19 15:35:28 2021

   => Loading Basis Set <=

    Name: AUG-CC-PV(Q+D)Z
    Role: ORBITAL
    Keyword: BASIS
    atoms 1 entry C          line   319 file /work/zw18965/.conda/envs/p4env/share/psi4/basis/aug-cc-pv_qpd_z.gbs 
    atoms 2 entry S          line  1148 file /work/zw18965/.conda/envs/p4env/share/psi4/basis/aug-cc-pv_qpd_z.gbs 


         ---------------------------------------------------------
                                   SCF
               by Justin Turney, Rob Parrish, Andy Simmonett
                          and Daniel G. A. Smith
                              RKS Reference
                       24 Threads, 137329 MiB Core
         ---------------------------------------------------------

  ==> Geometry <==

    Molecular point group: c2v
    Full point group: C_inf_v

    Geometry (in Angstrom), charge = 0, multiplicity = 1:

       Center              X                  Y                   Z               Mass       
    ------------   -----------------  -----------------  -----------------  -----------------
         C            0.000000000000     0.000000000000    -1.114300901206    12.000000000000
         S            0.000000000000     0.000000000000     0.418227857105    31.972071174400

  Running in c2v symmetry.

  Rotational constants: A = ************  B =      0.82263  C =      0.82263 [cm^-1]
  Rotational constants: A = ************  B =  24661.80381  C =  24661.80381 [MHz]
  Nuclear repulsion =   33.148488698069464

  Charge       = 0
  Multiplicity = 1
  Electrons    = 22
  Nalpha       = 11
  Nbeta        = 11

  ==> Algorithm <==

  SCF Algorithm Type is DF.
  DIIS enabled.
  MOM disabled.
  Fractional occupation disabled.
  Guess Type is READ.
  Energy threshold   = 1.00e-08
  Density threshold  = 1.00e-08
  Integral threshold = 0.00e+00

  ==> Primary Basis <==

  Basis Set: AUG-CC-PV(Q+D)Z
    Blend: AUG-CC-PV(Q+D)Z
    Number of shells: 43
    Number of basis function: 169
    Number of Cartesian functions: 220
    Spherical Harmonics?: true
    Max angular momentum: 4

  ==> DFT Potential <==

   => Composite Functional: B2PLYP-D3BJ <= 

    B2PLYP Double Hybrid Exchange-Correlation Functional

    S. Grimme, J. Chem. Phys., 124, 034108, 2006


    Deriv               =              1
    GGA                 =           TRUE
    Meta                =          FALSE

    Exchange Hybrid     =           TRUE
    MP2 Hybrid          =           TRUE

   => Exchange Functionals <=

    0.4700     XC_GGA_X_B88

   => Exact (HF) Exchange <=

    0.5300               HF 

   => Correlation Functionals <=

    0.7300     XC_GGA_C_LYP

   => MP2 Correlation <=

    0.2700       MP2 

   => Molecular Quadrature <=

    Radial Scheme          =       TREUTLER
    Pruning Scheme         =           FLAT
    Nuclear Scheme         =       TREUTLER

    BS radius alpha        =              1
    Pruning alpha          =              1
    Radial Points          =             75
    Spherical Points       =            302
    Total Points           =          45300
    Total Blocks           =            427
    Max Points             =            254
    Max Functions          =            169

   => B2PLYP-D3(BJ): Empirical Dispersion <=

    Grimme's -D3 (BJ-damping) Dispersion Correction
    Grimme S.; Ehrlich S.; Goerigk L. (2011), J. Comput. Chem., 32: 1456
    Parametrisation from:    L. Goerigk, S. Grimme, Phys. Chem. Chem. Phys. 13, 6670-6688, 2011

        s6 =       0.640000
        s8 =       0.914700
        a1 =       0.306500
        a2 =       5.057000

   => Loading Basis Set <=

    Name: (AUG-CC-PV(Q+D)Z AUX)
    Role: JKFIT
    Keyword: DF_BASIS_SCF
    atoms 1 entry C          line   178 file /work/zw18965/.conda/envs/p4env/share/psi4/basis/aug-cc-pvqz-jkfit.gbs 
    atoms 2 entry S          line   810 file /work/zw18965/.conda/envs/p4env/share/psi4/basis/aug-cc-pvqz-jkfit.gbs 

   => Loading Basis Set <=

    Name: AUG-CC-PV(Q+D)Z
    Role: ORBITAL
    Keyword: BASIS
    atoms 1 entry C          line   319 file /work/zw18965/.conda/envs/p4env/share/psi4/basis/aug-cc-pv_qpd_z.gbs 
    atoms 2 entry S          line  1148 file /work/zw18965/.conda/envs/p4env/share/psi4/basis/aug-cc-pv_qpd_z.gbs 

  Reading orbitals from file 180, no projection.

  ==> Pre-Iterations <==

   -------------------------------------------------------
    Irrep   Nso     Nmo     Nalpha   Nbeta   Ndocc  Nsocc
   -------------------------------------------------------
     A1        66      66       0       0       0       0
     A2        23      23       0       0       0       0
     B1        40      40       0       0       0       0
     B2        40      40       0       0       0       0
   -------------------------------------------------------
    Total     169     169      11      11      11       0
   -------------------------------------------------------

  ==> Integral Setup <==

  DFHelper Memory: AOs need 0.082 GiB; user supplied 100.379 GiB. Using in-core AOs.

  ==> MemDFJK: Density-Fitted J/K Matrices <==

    J tasked:                   Yes
    K tasked:                   Yes
    wK tasked:                   No
    OpenMP threads:              24
    Memory [MiB]:            102788
    Algorithm:                 Core
    Schwarz Cutoff:           1E-12
    Mask sparsity (%):       0.0000
    Fitting Condition:        1E-10

   => Auxiliary Basis Set <=

  Basis Set: (AUG-CC-PV(Q+D)Z AUX)
    Blend: AUG-CC-PVQZ-JKFIT
    Number of shells: 80
    Number of basis function: 326
    Number of Cartesian functions: 445
    Spherical Harmonics?: true
    Max angular momentum: 5

  Cached 100.0% of DFT collocation blocks in 0.203 [GiB].

  Minimum eigenvalue in the overlap matrix is 3.6918848926E-05.
  Using Symmetric Orthogonalization.

  SCF Guess: Orbitals guess was supplied from a previous computation.

  ==> Iterations <==

                           Total Energy        Delta E     RMS |[F,P]|

   @DF-RKS iter   0:  -435.99282109380584   -4.35993e+02   3.62013e-05 
   @DF-RKS iter   1:  -435.99366221466977   -8.41121e-04   5.69128e-06 DIIS
   @DF-RKS iter   2:  -435.99366203948136    1.75188e-07   8.62640e-06 DIIS
   @DF-RKS iter   3:  -435.99366237030870   -3.30827e-07   9.35121e-07 DIIS
   @DF-RKS iter   4:  -435.99366237337608   -3.06738e-09   9.65127e-08 DIIS
   @DF-RKS iter   5:  -435.99366237341962   -4.35421e-11   3.40878e-08 DIIS
   @DF-RKS iter   6:  -435.99366237342616   -6.53699e-12   2.62270e-09 DIIS
  Energy and wave function converged.


  ==> Post-Iterations <==

    Orbital Energies [Eh]
    ---------------------

    Doubly Occupied:                                                      

       1A1   -90.225401     2A1   -10.725793     3A1    -8.417399  
       1B1    -6.261614     1B2    -6.261614     4A1    -6.261213  
       5A1    -0.949968     6A1    -0.597442     2B1    -0.404227  
       2B2    -0.404227     7A1    -0.380999  

    Virtual:                                                              

       3B2    -0.034913     3B1    -0.034913     8A1     0.026313  
       9A1     0.048605     4B2     0.054439     4B1     0.054439  
      10A1     0.069266     5B2     0.085336     5B1     0.085336  
      11A1     0.127869    12A1     0.141007     1A2     0.141007  
      13A1     0.174561     6B1     0.224586     6B2     0.224586  
      14A1     0.243331    15A1     0.248956     2A2     0.248956  
       7B2     0.258450     7B1     0.258450    16A1     0.286055  
       8B1     0.327085     8B2     0.327085    17A1     0.394272  
      18A1     0.413042     3A2     0.413042    19A1     0.443030  
      20A1     0.463890     9B1     0.474280     9B2     0.474280  
      10B1     0.476847    10B2     0.476847    11B1     0.501954  
      11B2     0.501954    21A1     0.548338     4A2     0.548338  
      22A1     0.613721    12B2     0.667042    12B1     0.667042  
      23A1     0.741740     5A2     0.753389    24A1     0.753389  
      13B2     0.763890    13B1     0.763890    14B1     0.844569  
      14B2     0.844569    25A1     0.901338     6A2     0.962721  
      26A1     0.962721    27A1     0.970865    28A1     1.025232  
      15B1     1.092912    15B2     1.092912    29A1     1.154309  
       7A2     1.154310    16B1     1.254668    16B2     1.254668  
      30A1     1.275003     8A2     1.343596    31A1     1.343596  
      17B1     1.347605    17B2     1.347605    18B1     1.367922  
      18B2     1.367922    32A1     1.439396     9A2     1.439396  
      19B2     1.463729    19B1     1.463729    20B1     1.470392  
      20B2     1.470392    33A1     1.511138    34A1     1.641452  
      21B2     1.694981    21B1     1.694981    35A1     1.743576  
      10A2     1.743577    36A1     1.943828    37A1     2.065074  
      38A1     2.069226    11A2     2.069231    12A2     2.123826  
      39A1     2.123827    22B1     2.144851    22B2     2.144851  
      40A1     2.162206    23B2     2.191919    23B1     2.191919  
      24B1     2.305161    24B2     2.305161    13A2     2.364808  
      41A1     2.364809    25B1     2.385989    25B2     2.385989  
      42A1     2.390877    43A1     2.607369    26B2     2.686908  
      26B1     2.686908    14A2     2.773744    44A1     2.773746  
      27B1     2.846808    27B2     2.846808    45A1     2.870918  
      15A2     3.036240    46A1     3.036241    28B2     3.265481  
      28B1     3.265481    47A1     3.351822    29B2     3.459576  
      29B1     3.459576    48A1     3.524164    16A2     3.524166  
      17A2     3.629056    49A1     3.629065    30B1     3.689522  
      30B2     3.689522    50A1     3.798306    31B1     3.810246  
      31B2     3.810246    51A1     4.009829    52A1     4.023736  
      18A2     4.023736    53A1     4.340881    32B1     4.432850  
      32B2     4.432850    33B1     5.644574    33B2     5.644574  
      54A1     5.762423    19A2     5.762474    34B2     5.916405  
[...]

    0.2700       MP2 

   => Molecular Quadrature <=

    Radial Scheme          =       TREUTLER
    Pruning Scheme         =           FLAT
    Nuclear Scheme         =       TREUTLER

    BS radius alpha        =              1
    Pruning alpha          =              1
    Radial Points          =             75
    Spherical Points       =            302
    Total Points           =          45300
    Total Blocks           =            427
    Max Points             =            254
    Max Functions          =            169

   => B2PLYP-D3(BJ): Empirical Dispersion <=

    Grimme's -D3 (BJ-damping) Dispersion Correction
    Grimme S.; Ehrlich S.; Goerigk L. (2011), J. Comput. Chem., 32: 1456
    Parametrisation from:    L. Goerigk, S. Grimme, Phys. Chem. Chem. Phys. 13, 6670-6688, 2011

        s6 =       0.640000
        s8 =       0.914700
        a1 =       0.306500
        a2 =       5.057000

   => Loading Basis Set <=

    Name: (AUG-CC-PV(Q+D)Z AUX)
    Role: JKFIT
    Keyword: DF_BASIS_SCF
    atoms 1 entry C          line   178 file /work/zw18965/.conda/envs/p4env/share/psi4/basis/aug-cc-pvqz-jkfit.gbs 
    atoms 2 entry S          line   810 file /work/zw18965/.conda/envs/p4env/share/psi4/basis/aug-cc-pvqz-jkfit.gbs 

  ==> Pre-Iterations <==

   -------------------------------------------------------
    Irrep   Nso     Nmo     Nalpha   Nbeta   Ndocc  Nsocc
   -------------------------------------------------------
     A1        66      66       0       0       0       0
     A2        23      23       0       0       0       0
     B1        40      40       0       0       0       0
     B2        40      40       0       0       0       0
   -------------------------------------------------------
    Total     169     169      11      11      11       0
   -------------------------------------------------------

  ==> Integral Setup <==

  DFHelper Memory: AOs need 0.082 GiB; user supplied 100.379 GiB. Using in-core AOs.

  ==> MemDFJK: Density-Fitted J/K Matrices <==

    J tasked:                   Yes
    K tasked:                   Yes
    wK tasked:                   No
    OpenMP threads:              24
    Memory [MiB]:            102788
    Algorithm:                 Core
    Schwarz Cutoff:           1E-12
    Mask sparsity (%):       0.0000
    Fitting Condition:        1E-10

   => Auxiliary Basis Set <=

  Basis Set: (AUG-CC-PV(Q+D)Z AUX)
    Blend: AUG-CC-PVQZ-JKFIT
    Number of shells: 80
    Number of basis function: 326
    Number of Cartesian functions: 445
    Spherical Harmonics?: true
    Max angular momentum: 5

  Cached 100.0% of DFT collocation blocks in 0.203 [GiB].

  Minimum eigenvalue in the overlap matrix is 3.7067978869E-05.
  Using Symmetric Orthogonalization.

  SCF Guess: Superposition of Atomic Densities via on-the-fly atomic UHF.

  ==> Iterations <==

                           Total Energy        Delta E     RMS |[F,P]|

   @DF-RKS iter SAD:  -435.49247988169697   -4.35492e+02   0.00000e+00 
   @DF-RKS iter   1:  -435.91916970640369   -4.26690e-01   4.22275e-03 DIIS
   @DF-RKS iter   2:  -435.84825515398688    7.09146e-02   5.49312e-03 DIIS
   @DF-RKS iter   3:  -435.99139242870075   -1.43137e-01   7.45010e-04 DIIS
   @DF-RKS iter   4:  -435.99348819039642   -2.09576e-03   1.55716e-04 DIIS
   @DF-RKS iter   5:  -435.99360145924175   -1.13269e-04   4.28063e-05 DIIS
   @DF-RKS iter   6:  -435.99360903498399   -7.57574e-06   1.94746e-05 DIIS
   @DF-RKS iter   7:  -435.99361115555058   -2.12057e-06   1.33566e-06 DIIS
   @DF-RKS iter   8:  -435.99361117007442   -1.45238e-08   3.35365e-07 DIIS
   @DF-RKS iter   9:  -435.99361117066519   -5.90774e-10   1.96153e-08 DIIS
   @DF-RKS iter  10:  -435.99361117066803   -2.84217e-12   3.58741e-09 DIIS
   @DF-RKS iter  11:  -435.99361117066837   -3.41061e-13   3.76796e-10 DIIS
   @DF-RKS iter  12:  -435.99361117066826    1.13687e-13   4.62811e-11 DIIS
  Energy and wave function converged.


  ==> Post-Iterations <==

    Orbital Energies [Eh]
    ---------------------

    Doubly Occupied:                                                      

       1A1   -90.225519     2A1   -10.726287     3A1    -8.417428  
       1B1    -6.261648     1B2    -6.261648     4A1    -6.261245  
       5A1    -0.949480     6A1    -0.597543     2B1    -0.403957  
       2B2    -0.403957     7A1    -0.381146  

    Virtual:                                                              

       3B1    -0.035140     3B2    -0.035140     8A1     0.026328  
       9A1     0.048561     4B1     0.054452     4B2     0.054452  
      10A1     0.069261     5B1     0.085325     5B2     0.085325  
      11A1     0.127811    12A1     0.141026     1A2     0.141026  
      13A1     0.174522     6B1     0.224536     6B2     0.224536  
      14A1     0.243244    15A1     0.248923     2A2     0.248923  
       7B1     0.258455     7B2     0.258455    16A1     0.285853  
       8B2     0.327146     8B1     0.327146    17A1     0.394352  
      18A1     0.413123     3A2     0.413124    19A1     0.443019  
      20A1     0.463672     9B1     0.474180     9B2     0.474180  
      10B2     0.476882    10B1     0.476882    11B1     0.501743  
      11B2     0.501743    21A1     0.548351     4A2     0.548351  
      22A1     0.613406    12B1     0.666902    12B2     0.666902  
      23A1     0.741464     5A2     0.753218    24A1     0.753218  
      13B2     0.763742    13B1     0.763742    14B1     0.844473  
      14B2     0.844473    25A1     0.901096     6A2     0.962448  
      26A1     0.962448    27A1     0.970551    28A1     1.025216  
      15B1     1.092953    15B2     1.092953    29A1     1.154447  
       7A2     1.154448    16B1     1.254293    16B2     1.254293  
      30A1     1.274605     8A2     1.343669    31A1     1.343669  
      17B1     1.347856    17B2     1.347856    18B1     1.368004  
      18B2     1.368004    32A1     1.439330     9A2     1.439331  
      19B2     1.463515    19B1     1.463515    20B1     1.470227  
      20B2     1.470227    33A1     1.510564    34A1     1.640972  
      21B1     1.694211    21B2     1.694211    35A1     1.743220  
      10A2     1.743220    36A1     1.944193    37A1     2.064964  
      38A1     2.068948    11A2     2.068952    12A2     2.123461  
      39A1     2.123461    22B1     2.144571    22B2     2.144571  
      40A1     2.162073    23B2     2.191671    23B1     2.191671  
      24B1     2.304851    24B2     2.304851    13A2     2.364344  
      41A1     2.364344    25B2     2.385128    25B1     2.385128  
      42A1     2.390221    43A1     2.606818    26B1     2.686735  
      26B2     2.686735    14A2     2.773516    44A1     2.773518  
      27B1     2.845446    27B2     2.845446    45A1     2.869661  
      15A2     3.035338    46A1     3.035339    28B1     3.264816  
      28B2     3.264816    47A1     3.351052    29B2     3.459715  
      29B1     3.459715    48A1     3.524023    16A2     3.524025  
      17A2     3.629179    49A1     3.629187    30B1     3.689345  
      30B2     3.689345    50A1     3.795324    31B2     3.809647  
      31B1     3.809647    51A1     4.009425    52A1     4.022309  
      18A2     4.022309    53A1     4.340381    32B1     4.431926  
      32B2     4.431926    33B2     5.642887    33B1     5.642887  
      54A1     5.762162    19A2     5.762214    34B1     5.915670  
      34B2     5.915670    35B1     5.942803    35B2     5.942803  
      20A2     6.065935    55A1     6.065937    36B1     6.124999  
      36B2     6.124999    56A1     6.142234    37B1     6.285276  
      37B2     6.285276    21A2     6.340270    57A1     6.340270  
      58A1     6.406350    59A1     6.572269    22A2     6.572271  
      60A1     6.635514    38B1     6.889463    38B2     6.889463  
      61A1     7.291203    39B1     7.403877    39B2     7.403877  
      62A1     8.661276    63A1     8.962491    23A2     8.962513  
      40B1     9.215763    40B2     9.215763    64A1     9.779058  
      65A1    20.216094    66A1    21.440637  

    Final Occupation by Irrep:
             A1    A2    B1    B2 
    DOCC [     7,    0,    2,    2 ]

  @DF-RKS Final Energy:  -435.99361117066826

   => Energetics <=

    Nuclear Repulsion Energy =             33.1145708475850356
    One-Electron Energy =                -665.8748339273677175
    Two-Electron Energy =                 211.5380771765306633
    DFT Exchange-Correlation Energy =     -14.7705156574162757
    Empirical Dispersion Energy =          -0.0009096100000000
    VV10 Nonlocal Energy =                  0.0000000000000000
    Total Energy =                       -435.9936111706683164

Computation Completed


Properties will be evaluated at   0.000000,   0.000000,   0.000000 [a0]

Properties computed using the SCF density matrix

  Nuclear Dipole Moment: [e a0]
     X:     0.0000      Y:     0.0000      Z:     0.0110

  Electronic Dipole Moment: [e a0]
     X:     0.0000      Y:     0.0000      Z:     0.7146

  Dipole Moment: [e a0]
     X:     0.0000      Y:     0.0000      Z:     0.7256     Total:     0.7256

  Dipole Moment: [D]
     X:     0.0000      Y:     0.0000      Z:     1.8444     Total:     1.8444


*** tstop() called on bp1-compute00191.data.bp.acrc.priv at Mon Apr 19 15:35:51 2021
Module time:
	user time   =      43.33 seconds =       0.72 minutes
	system time =       1.29 seconds =       0.02 minutes
	total time  =          2 seconds =       0.03 minutes
Total time:
	user time   =     690.05 seconds =      11.50 minutes
	system time =      25.58 seconds =       0.43 minutes
	total time  =         33 seconds =       0.55 minutes

*** tstart() called on bp1-compute00191.data.bp.acrc.priv
*** at Mon Apr 19 15:35:51 2021

   => Loading Basis Set <=

    Name: (AUG-CC-PV(Q+D)Z AUX)
    Role: RIFIT
    Keyword: DF_BASIS_MP2
    atoms 1 entry C          line   184 file /work/zw18965/.conda/envs/p4env/share/psi4/basis/aug-cc-pvqz-ri.gbs 
    atoms 2 entry S          line   824 file /work/zw18965/.conda/envs/p4env/share/psi4/basis/aug-cc-pvqz-ri.gbs 

	 --------------------------------------------------------
	                          DF-MP2                         
	      2nd-Order Density-Fitted Moller-Plesset Theory     
	              RMP2 Wavefunction,  24 Threads             
	                                                         
	        Rob Parrish, Justin Turney, Andy Simmonett,      
	           Ed Hohenstein, and C. David Sherrill          
	 --------------------------------------------------------

   => Auxiliary Basis Set <=

  Basis Set: (AUG-CC-PV(Q+D)Z AUX)
    Blend: AUG-CC-PVQZ-RI
    Number of shells: 80
    Number of basis function: 362
    Number of Cartesian functions: 505
    Spherical Harmonics?: true
    Max angular momentum: 5

	 --------------------------------------------------------
	                 NBF =   169, NAUX =   362
	 --------------------------------------------------------
	   CLASS    FOCC     OCC    AOCC    AVIR     VIR    FVIR
	   PAIRS       0      11      11     158     158       0
	 --------------------------------------------------------

	-----------------------------------------------------------
	 ==================> DF-MP2 Energies <==================== 
	-----------------------------------------------------------
	 Reference Energy          =    -435.9936111706682595 [Eh]
	 Singles Energy            =      -0.0000000000000000 [Eh]
	 Same-Spin Energy          =      -0.1479642894454111 [Eh]
	 Opposite-Spin Energy      =      -0.4338242114601264 [Eh]
	 Correlation Energy        =      -0.5817885009055375 [Eh]
	 Total Energy              =    -436.5753996715737912 [Eh]
	-----------------------------------------------------------
	 ================> DF-SCS-MP2 Energies <================== 
	-----------------------------------------------------------
	 SCS Same-Spin Scale       =       0.3333333333333333 [-]
	 SCS Opposite-Spin Scale   =       1.2000000000000000 [-]
	 SCS Same-Spin Energy      =      -0.0493214298151370 [Eh]
	 SCS Opposite-Spin Energy  =      -0.5205890537521517 [Eh]
	 SCS Correlation Energy    =      -0.5699104835672887 [Eh]
	 SCS Total Energy          =    -436.5635216542355579 [Eh]
	-----------------------------------------------------------



    B2PLYP-D3BJ Energy Summary
    --------------------------
    DFT Reference Energy                  =  -435.9936111706682595
    Scaled MP2 Correlation                =    -0.1570828952444951
    @Final double-hybrid DFT total energy =  -436.1506940659127736


*** tstop() called on bp1-compute00191.data.bp.acrc.priv at Mon Apr 19 15:35:52 2021
Module time:
	user time   =      11.45 seconds =       0.19 minutes
	system time =       0.40 seconds =       0.01 minutes
	total time  =          1 seconds =       0.02 minutes
Total time:
	user time   =     701.52 seconds =      11.69 minutes
	system time =      25.98 seconds =       0.43 minutes
	total time  =         34 seconds =       0.57 minutes

         ----------------------------------------------------------
                                   FINDIF
                     R. A. King and Jonathon Misiewicz
         ---------------------------------------------------------

  Computing second-derivative from energies using projected, 
  symmetry-adapted, cartesian coordinates.

  3 energies passed in, including the reference geometry.
    Using 3-point formula.
    Energy without displacement: -436.1506951566
    Check energies below for precision!
    0: -1 :      -436.1506946842
    0: 1  :      -436.1506940659

-------------------------------------------------------------


  ==> Harmonic Vibrational Analysis <==

  non-mass-weighted Hessian:       Symmetric? True   Hermitian? True   Lin Dep Dim?  5 (0)
  projection of translations (True) and rotations (True) removed 5 degrees of freedom (5)
  total projector:                 Symmetric? True   Hermitian? True   Lin Dep Dim?  5 (5)
  mass-weighted Hessian:           Symmetric? True   Hermitian? True   Lin Dep Dim?  5 (0)
  pre-proj  low-frequency mode:    0.0000i [cm^-1]
  pre-proj  low-frequency mode:    0.0000  [cm^-1]
  pre-proj  low-frequency mode:    0.0000  [cm^-1]
  pre-proj  low-frequency mode:    0.0000  [cm^-1]
  pre-proj  low-frequency mode:    0.0000  [cm^-1]
  pre-proj  all modes:['0.0000i' '0.0000' '0.0000' '0.0000' '0.0000' '1285.3629']
  projected mass-weighted Hessian: Symmetric? True   Hermitian? True   Lin Dep Dim?  5 (5)
  post-proj low-frequency mode:    0.0000  [cm^-1] (TR)
  post-proj low-frequency mode:    0.0000  [cm^-1] (TR)
  post-proj low-frequency mode:    0.0000  [cm^-1] (TR)
  post-proj low-frequency mode:    0.0000  [cm^-1] (TR)
  post-proj low-frequency mode:    0.0000  [cm^-1] (TR)
  post-proj  all modes:['0.0000' '0.0000' '0.0000' '0.0000' '0.0000' '1285.3629']

  Vibration                       6           
  Freq [cm^-1]                1285.3629       
  Irrep                           A1          
  Reduced mass [u]             14.4661        
  Force const [mDyne/A]        14.0816        
  Turning point v=0 [a0]        0.0805        
  RMS dev v=0 [a0 u^1/2]        0.2164        
  Char temp [K]               1849.3510       
  ----------------------------------------------------------------------------------
      1   C                0.00  0.00  0.94   
      2   S                0.00  0.00 -0.35   

  ==> Thermochemistry Components <==

  Entropy, S
    Electronic S            0.000 [cal/(mol K)]        0.000 [J/(mol K)]       0.00000000 [mEh/K] (multiplicity = 1)
    Translational S        37.269 [cal/(mol K)]      155.933 [J/(mol K)]       0.05939180 [mEh/K] (mol. weight = 43.9721 [u], P = 101325.00 [Pa])
    Rotational S           12.981 [cal/(mol K)]       54.312 [J/(mol K)]       0.02068645 [mEh/K] (symmetry no. = 1)
    Vibrational S           0.029 [cal/(mol K)]        0.121 [J/(mol K)]       0.00004625 [mEh/K]
  Total S                  50.279 [cal/(mol K)]      210.367 [J/(mol K)]       0.08012450 [mEh/K]
  Correction S              0.000 [cal/(mol K)]        0.000 [J/(mol K)]       0.00000000 [mEh/K]

  Constant volume heat capacity, Cv
    Electronic Cv           0.000 [cal/(mol K)]        0.000 [J/(mol K)]       0.00000000 [mEh/K]
    Translational Cv        2.981 [cal/(mol K)]       12.472 [J/(mol K)]       0.00475022 [mEh/K]
    Rotational Cv           1.987 [cal/(mol K)]        8.314 [J/(mol K)]       0.00316681 [mEh/K]
    Vibrational Cv          0.155 [cal/(mol K)]        0.650 [J/(mol K)]       0.00024759 [mEh/K]
  Total Cv                  5.123 [cal/(mol K)]       21.436 [J/(mol K)]       0.00816461 [mEh/K]
  Correction Cv             0.000 [cal/(mol K)]        0.000 [J/(mol K)]       0.00000000 [mEh/K]

  Constant pressure heat capacity, Cp
    Electronic Cp           0.000 [cal/(mol K)]        0.000 [J/(mol K)]       0.00000000 [mEh/K]
    Translational Cp        4.968 [cal/(mol K)]       20.786 [J/(mol K)]       0.00791703 [mEh/K]
    Rotational Cp           1.987 [cal/(mol K)]        8.314 [J/(mol K)]       0.00316681 [mEh/K]
    Vibrational Cp          0.155 [cal/(mol K)]        0.650 [J/(mol K)]       0.00024759 [mEh/K]
  Total Cp                  7.111 [cal/(mol K)]       29.751 [J/(mol K)]       0.01133142 [mEh/K]
  Correction Cp             0.000 [cal/(mol K)]        0.000 [J/(mol K)]       0.00000000 [mEh/K]

  ==> Thermochemistry Energy Analysis <==

  Raw electronic energy, E0
  Total E0, Electronic energy at well bottom at 0 [K]                 -436.15069516 [Eh]

  Zero-point energy, ZPE_vib = Sum_i nu_i / 2
    Electronic ZPE          0.000 [kcal/mol]        0.000 [kJ/mol]       0.00000000 [Eh]
    Translational ZPE       0.000 [kcal/mol]        0.000 [kJ/mol]       0.00000000 [Eh]
    Rotational ZPE          0.000 [kcal/mol]        0.000 [kJ/mol]       0.00000000 [Eh]
    Vibrational ZPE         1.838 [kcal/mol]        7.688 [kJ/mol]       0.00292827 [Eh]         642.681 [cm^-1]
  Correction ZPE            1.838 [kcal/mol]        7.688 [kJ/mol]       0.00292827 [Eh]         642.681 [cm^-1]
  Total ZPE, Electronic energy at 0 [K]                               -436.14776688 [Eh]

  Thermal Energy, E (includes ZPE)
    Electronic E            0.000 [kcal/mol]        0.000 [kJ/mol]       0.00000000 [Eh]
    Translational E         0.889 [kcal/mol]        3.718 [kJ/mol]       0.00141628 [Eh]
    Rotational E            0.592 [kcal/mol]        2.479 [kJ/mol]       0.00094418 [Eh]
    Vibrational E           1.845 [kcal/mol]        7.719 [kJ/mol]       0.00294015 [Eh]
  Correction E              3.326 [kcal/mol]       13.917 [kJ/mol]       0.00530061 [Eh]
  Total E, Electronic energy at  298.15 [K]                           -436.14539455 [Eh]

  Enthalpy, H_trans = E_trans + k_B * T
    Electronic H            0.000 [kcal/mol]        0.000 [kJ/mol]       0.00000000 [Eh]
    Translational H         1.481 [kcal/mol]        6.197 [kJ/mol]       0.00236046 [Eh]
    Rotational H            0.592 [kcal/mol]        2.479 [kJ/mol]       0.00094418 [Eh]
    Vibrational H           1.845 [kcal/mol]        7.719 [kJ/mol]       0.00294015 [Eh]
  Correction H              3.919 [kcal/mol]       16.396 [kJ/mol]       0.00624479 [Eh]
  Total H, Enthalpy at  298.15 [K]                                    -436.14445036 [Eh]

  Gibbs free energy, G = H - T * S
    Electronic G            0.000 [kcal/mol]        0.000 [kJ/mol]       0.00000000 [Eh]
    Translational G        -9.631 [kcal/mol]      -40.294 [kJ/mol]      -0.01534720 [Eh]
    Rotational G           -3.278 [kcal/mol]      -13.714 [kJ/mol]      -0.00522348 [Eh]
    Vibrational G           1.836 [kcal/mol]        7.683 [kJ/mol]       0.00292636 [Eh]
  Correction G            -11.072 [kcal/mol]      -46.325 [kJ/mol]      -0.01764433 [Eh]
  Total G, Free enthalpy at  298.15 [K]                               -436.16833948 [Eh]

    Psi4 stopped on: Monday, 19 April 2021 03:35PM
    Psi4 wall time for execution: 0:00:34.20

*** Psi4 exiting successfully. Buy a developer a beer!
