
    -----------------------------------------------------------------------
          Psi4: An Open-Source Ab Initio Electronic Structure Package
                               Psi4 1.3.2 release

                         Git: Rev {HEAD} ecbda83 


    R. M. Parrish, L. A. Burns, D. G. A. Smith, A. C. Simmonett,
    A. E. DePrince III, E. G. Hohenstein, U. Bozkaya, A. Yu. Sokolov,
    R. Di Remigio, R. M. Richard, J. F. Gonthier, A. M. James,
    H. R. McAlexander, A. Kumar, M. Saitow, X. Wang, B. P. Pritchard,
    P. Verma, H. F. Schaefer III, K. Patkowski, R. A. King, E. F. Valeev,
    F. A. Evangelista, J. M. Turney, T. D. Crawford, and C. D. Sherrill,
    J. Chem. Theory Comput. 13(7) pp 3185--3197 (2017).
    (doi: 10.1021/acs.jctc.7b00174)


                         Additional Contributions by
    P. Kraus, H. Kruse, M. H. Lechner, M. C. Schieber, R. A. Shaw,
    A. Alenaizan, R. Galvelis, Z. L. Glick, S. Lehtola, and J. P. Misiewicz

    -----------------------------------------------------------------------


    Psi4 started on: Monday, 19 April 2021 03:35PM

    Process ID: 255364
    Host:       bp1-compute00147.data.bp.acrc.priv
    PSIDATADIR: /work/zw18965/.conda/envs/p4env/share/psi4
    Memory:     500.0 MiB
    Threads:    24
    
  ==> Input File <==

--------------------------------------------------------------------------
memory 144 GB

molecule {
0 1
F     0.000000000000   0.000000000000  -0.689762285134
F     0.000000000000   0.000000000000   0.689762285134}

set basis aug-cc-pV(Q+d)Z
 
optimize("B2PLYP-D3BJ")
frequencies("B2PLYP-D3BJ")--------------------------------------------------------------------------

  Memory set to 134.110 GiB by Python driver.
gradient() will perform gradient computation by finite difference of analytic energies.

         ----------------------------------------------------------
                                   FINDIF
                     R. A. King and Jonathon Misiewicz
         ---------------------------------------------------------

  Using finite-differences of energies to determine gradients.
    Generating geometries for use with 3-point formula.
    Displacement size will be 5.00e-03.
    Number of atoms is 2.
    Number of symmetric SALCs is 1.
    Translations projected? 1. Rotations projected? 1.
    Number of geometries (including reference) is 3.

  //>>>>>>>>>>>>>>>>>>>>>>>>>>>>>>>>>>>//
  //    Loading displacement 1 of 3    //
  //<<<<<<<<<<<<<<<<<<<<<<<<<<<<<<<<<<<//

*** tstart() called on bp1-compute00147.data.bp.acrc.priv
*** at Mon Apr 19 15:35:22 2021

   => Loading Basis Set <=

    Name: AUG-CC-PV(Q+D)Z
    Role: ORBITAL
    Keyword: BASIS
    atoms 1-2 entry F          line   499 file /work/zw18965/.conda/envs/p4env/share/psi4/basis/aug-cc-pv_qpd_z.gbs 


         ---------------------------------------------------------
                                   SCF
               by Justin Turney, Rob Parrish, Andy Simmonett
                          and Daniel G. A. Smith
                              RKS Reference
                       24 Threads, 137329 MiB Core
         ---------------------------------------------------------

  ==> Geometry <==

    Molecular point group: d2h
    Full point group: D_inf_h

    Geometry (in Angstrom), charge = 0, multiplicity = 1:

       Center              X                  Y                   Z               Mass       
    ------------   -----------------  -----------------  -----------------  -----------------
         F            0.000000000000     0.000000000000    -0.689762285134    18.998403162730
         F            0.000000000000     0.000000000000     0.689762285134    18.998403162730

  Running in d2h symmetry.

  Rotational constants: A = ************  B =      0.93250  C =      0.93250 [cm^-1]
  Rotational constants: A = ************  B =  27955.75434  C =  27955.75434 [MHz]
  Nuclear repulsion =   31.071105936114606

  Charge       = 0
  Multiplicity = 1
  Electrons    = 18
  Nalpha       = 9
  Nbeta        = 9

  ==> Algorithm <==

  SCF Algorithm Type is DF.
  DIIS enabled.
  MOM disabled.
  Fractional occupation disabled.
  Guess Type is SAD.
  Energy threshold   = 1.00e-08
  Density threshold  = 1.00e-08
  Integral threshold = 0.00e+00

  ==> Primary Basis <==

  Basis Set: AUG-CC-PV(Q+D)Z
    Blend: AUG-CC-PV(Q+D)Z
    Number of shells: 40
    Number of basis function: 160
    Number of Cartesian functions: 210
    Spherical Harmonics?: true
    Max angular momentum: 4

  ==> DFT Potential <==

   => Composite Functional: B2PLYP-D3BJ <= 

    B2PLYP Double Hybrid Exchange-Correlation Functional

    S. Grimme, J. Chem. Phys., 124, 034108, 2006


    Deriv               =              1
    GGA                 =           TRUE
    Meta                =          FALSE

    Exchange Hybrid     =           TRUE
    MP2 Hybrid          =           TRUE

   => Exchange Functionals <=

    0.4700     XC_GGA_X_B88

   => Exact (HF) Exchange <=

    0.5300               HF 

   => Correlation Functionals <=

    0.7300     XC_GGA_C_LYP

   => MP2 Correlation <=

    0.2700       MP2 

   => Molecular Quadrature <=

    Radial Scheme          =       TREUTLER
    Pruning Scheme         =           FLAT
    Nuclear Scheme         =       TREUTLER

    BS radius alpha        =              1
    Pruning alpha          =              1
    Radial Points          =             75
    Spherical Points       =            302
    Total Points           =          44826
    Total Blocks           =            414
    Max Points             =            255
    Max Functions          =            160

   => B2PLYP-D3(BJ): Empirical Dispersion <=

    Grimme's -D3 (BJ-damping) Dispersion Correction
    Grimme S.; Ehrlich S.; Goerigk L. (2011), J. Comput. Chem., 32: 1456
    Parametrisation from:    L. Goerigk, S. Grimme, Phys. Chem. Chem. Phys. 13, 6670-6688, 2011

        s6 =       0.640000
        s8 =       0.914700
        a1 =       0.306500
        a2 =       5.057000

   => Loading Basis Set <=

    Name: (AUG-CC-PV(Q+D)Z AUX)
    Role: JKFIT
    Keyword: DF_BASIS_SCF
    atoms 1-2 entry F          line   388 file /work/zw18965/.conda/envs/p4env/share/psi4/basis/aug-cc-pvqz-jkfit.gbs 

  ==> Pre-Iterations <==

   -------------------------------------------------------
    Irrep   Nso     Nmo     Nalpha   Nbeta   Ndocc  Nsocc
   -------------------------------------------------------
     Ag        31      31       0       0       0       0
     B1g       11      11       0       0       0       0
     B2g       19      19       0       0       0       0
     B3g       19      19       0       0       0       0
     Au        11      11       0       0       0       0
     B1u       31      31       0       0       0       0
     B2u       19      19       0       0       0       0
     B3u       19      19       0       0       0       0
   -------------------------------------------------------
    Total     160     160       9       9       9       0
   -------------------------------------------------------

  ==> Integral Setup <==

  DFHelper Memory: AOs need 0.066 GiB; user supplied 100.405 GiB. Using in-core AOs.

  ==> MemDFJK: Density-Fitted J/K Matrices <==

    J tasked:                   Yes
    K tasked:                   Yes
    wK tasked:                   No
    OpenMP threads:              24
    Memory [MiB]:            102814
    Algorithm:                 Core
    Schwarz Cutoff:           1E-12
    Mask sparsity (%):       0.0000
    Fitting Condition:        1E-10

   => Auxiliary Basis Set <=

  Basis Set: (AUG-CC-PV(Q+D)Z AUX)
    Blend: AUG-CC-PVQZ-JKFIT
    Number of shells: 68
    Number of basis function: 284
    Number of Cartesian functions: 396
    Spherical Harmonics?: true
    Max angular momentum: 5

  Cached 100.0% of DFT collocation blocks in 0.178 [GiB].

  Minimum eigenvalue in the overlap matrix is 2.6999764838E-04.
  Using Symmetric Orthogonalization.

  SCF Guess: Superposition of Atomic Densities via on-the-fly atomic UHF.

  ==> Iterations <==

                           Total Energy        Delta E     RMS |[F,P]|

   @DF-RKS iter SAD:  -198.93726579486528   -1.98937e+02   0.00000e+00 
   @DF-RKS iter   1:  -199.31952651171235   -3.82261e-01   3.95039e-03 DIIS
   @DF-RKS iter   2:  -199.33144894822706   -1.19224e-02   1.57126e-03 DIIS
   @DF-RKS iter   3:  -199.33314065671797   -1.69171e-03   1.59309e-04 DIIS
   @DF-RKS iter   4:  -199.33316425115643   -2.35944e-05   9.12578e-05 DIIS
   @DF-RKS iter   5:  -199.33317144251438   -7.19136e-06   8.29508e-06 DIIS
   @DF-RKS iter   6:  -199.33317150281010   -6.02957e-08   7.13134e-07 DIIS
   @DF-RKS iter   7:  -199.33317150321278   -4.02679e-10   2.43420e-08 DIIS
   @DF-RKS iter   8:  -199.33317150321361   -8.24230e-13   1.32273e-09 DIIS
  Energy and wave function converged.


  ==> Post-Iterations <==

    Orbital Energies [Eh]
    ---------------------

    Doubly Occupied:                                                      

       1Ag   -25.477124     1B1u  -25.476983     2Ag    -1.543000  
       2B1u   -1.267795     3Ag    -0.680273     1B2u   -0.666047  
       1B3u   -0.666047     1B3g   -0.518480     1B2g   -0.518480  

    Virtual:                                                              

       3B1u   -0.043565     4B1u    0.096835     4Ag     0.101847  
       2B2u    0.125467     2B3u    0.125467     2B2g    0.179277  
       2B3g    0.179277     5Ag     0.182560     5B1u    0.320019  
       1B1g    0.488034     6Ag     0.488035     7Ag     0.622559  
       3B2u    0.643284     3B3u    0.643284     6B1u    0.669670  
       7B1u    0.684826     1Au     0.684826     3B2g    0.693865  
       3B3g    0.693865     4B2u    0.733431     4B3u    0.733431  
       8B1u    0.876414     8Ag     0.894083     4B2g    1.002330  
       4B3g    1.002330     9Ag     1.182265     5B2u    1.611002  
       5B3u    1.611002    10Ag     1.631163     2B1g    1.631163  
       6B2u    1.647211     6B3u    1.647211     9B1u    1.804955  
      11Ag     1.831037     3B1g    1.877366    12Ag     1.877368  
       5B3g    1.917022     5B2g    1.917022     2Au     1.922632  
      10B1u    1.922633     6B2g    1.966009     6B3g    1.966009  
      11B1u    2.181953     7B3u    2.252995     7B2u    2.252995  
      12B1u    2.370939     3Au     2.370941    13B1u    2.373728  
      13Ag     2.643268     7B2g    2.676165     7B3g    2.676165  
      14Ag     3.007183     8B3u    3.125141     8B2u    3.125141  
       8B2g    3.540203     8B3g    3.540203     9B3u    4.194922  
       9B2u    4.194922     4B1g    4.378647    15Ag     4.378663  
      16Ag     4.408151     5B1g    4.408151    17Ag     4.544000  
      10B2u    4.557577    10B3u    4.557577     4Au     4.633446  
      14B1u    4.633463    15B1u    4.800252    18Ag     4.966491  
       9B2g    5.113090     9B3g    5.113090    10B3g    5.146720  
      10B2g    5.146720    11B2u    5.161726    11B3u    5.161726  
      16B1u    5.246828    17B1u    5.303730     5Au     5.303742  
      11B3g    5.311574    11B2g    5.311574    12B3u    5.322485  
      12B2u    5.322485     6B1g    5.331531    19Ag     5.331531  
      20Ag     5.378114     7B1g    5.378125    21Ag     5.380636  
      18B1u    5.547324     6Au     5.547328    19B1u    5.558748  
      20B1u    5.784835    12B2g    5.975180    12B3g    5.975180  
      21B1u    6.305904     7Au     6.305907    13B2u    6.366013  
      13B3u    6.366013    22Ag     7.238789    13B2g    7.301186  
      13B3g    7.301186    22B1u    7.874225    14B3u   12.441547  
      14B2u   12.441547    23Ag    12.675486    14B2g   13.136366  
      14B3g   13.136366    15B2u   13.182720    15B3u   13.182720  
       8B1g   13.212349    24Ag    13.212614     8Au    13.313822  
      23B1u   13.314093    25Ag    13.444335     9B1g   13.444345  
      15B3g   13.463677    15B2g   13.463677    16B2u   13.518950  
      16B3u   13.518950    26Ag    13.567115    24B1u   13.683749  
       9Au    13.683763    16B2g   13.816863    16B3g   13.816863  
      25B1u   14.058889    26B1u   14.769023    10B1g   15.262664  
      27Ag    15.262685    17B2u   15.316533    17B3u   15.316533  
      18B2u   15.390866    18B3u   15.390866    17B3g   15.415211  
      17B2g   15.415211    10Au    15.630823    27B1u   15.630846  
      28B1u   15.755298    28Ag    15.767252    29Ag    16.173370  
      11B1g   16.173448    29B1u   16.307234    11Au    16.307308  
      19B2u   16.479667    19B3u   16.479667    18B3g   16.509386  
      18B2g   16.509386    19B2g   16.722414    19B3g   16.722414  
      30Ag    17.711926    30B1u   17.932426    31Ag    52.800040  
      31B1u   54.919499  

    Final Occupation by Irrep:
             Ag   B1g   B2g   B3g    Au   B1u   B2u   B3u 
    DOCC [     3,    0,    1,    1,    0,    2,    1,    1 ]

  @DF-RKS Final Energy:  -199.33317150321361

   => Energetics <=

    Nuclear Repulsion Energy =             31.0711059361146056
    One-Electron Energy =                -340.0319563000730341
    Two-Electron Energy =                 119.5712583074956825
    DFT Exchange-Correlation Energy =      -9.9434641267508255
    Empirical Dispersion Energy =          -0.0001153200000000
    VV10 Nonlocal Energy =                  0.0000000000000000
    Total Energy =                       -199.3331715032136060

Computation Completed


Properties will be evaluated at   0.000000,   0.000000,   0.000000 [a0]

Properties computed using the SCF density matrix

  Nuclear Dipole Moment: [e a0]
     X:     0.0000      Y:     0.0000      Z:     0.0000

  Electronic Dipole Moment: [e a0]
     X:     0.0000      Y:     0.0000      Z:     0.0000

  Dipole Moment: [e a0]
     X:     0.0000      Y:     0.0000      Z:     0.0000     Total:     0.0000

  Dipole Moment: [D]
     X:     0.0000      Y:     0.0000      Z:     0.0000     Total:     0.0000


*** tstop() called on bp1-compute00147.data.bp.acrc.priv at Mon Apr 19 15:35:23 2021
Module time:
	user time   =      31.38 seconds =       0.52 minutes
	system time =       1.67 seconds =       0.03 minutes
	total time  =          1 seconds =       0.02 minutes
Total time:
	user time   =      31.38 seconds =       0.52 minutes
	system time =       1.67 seconds =       0.03 minutes
	total time  =          1 seconds =       0.02 minutes

*** tstart() called on bp1-compute00147.data.bp.acrc.priv
*** at Mon Apr 19 15:35:23 2021

   => Loading Basis Set <=

    Name: (AUG-CC-PV(Q+D)Z AUX)
    Role: RIFIT
    Keyword: DF_BASIS_MP2
    atoms 1-2 entry F          line   406 file /work/zw18965/.conda/envs/p4env/share/psi4/basis/aug-cc-pvqz-ri.gbs 

	 --------------------------------------------------------
	                          DF-MP2                         
	      2nd-Order Density-Fitted Moller-Plesset Theory     
	              RMP2 Wavefunction,  24 Threads             
	                                                         
	        Rob Parrish, Justin Turney, Andy Simmonett,      
	           Ed Hohenstein, and C. David Sherrill          
	 --------------------------------------------------------

   => Auxiliary Basis Set <=

  Basis Set: (AUG-CC-PV(Q+D)Z AUX)
    Blend: AUG-CC-PVQZ-RI
    Number of shells: 72
    Number of basis function: 336
    Number of Cartesian functions: 474
    Spherical Harmonics?: true
    Max angular momentum: 5

	 --------------------------------------------------------
	                 NBF =   160, NAUX =   336
	 --------------------------------------------------------
	   CLASS    FOCC     OCC    AOCC    AVIR     VIR    FVIR
	   PAIRS       0       9       9     151     151       0
	 --------------------------------------------------------

	-----------------------------------------------------------
	 ==================> DF-MP2 Energies <==================== 
	-----------------------------------------------------------
	 Reference Energy          =    -199.3331715032136060 [Eh]
	 Singles Energy            =      -0.0000000000000000 [Eh]
	 Same-Spin Energy          =      -0.1787888297742529 [Eh]
	 Opposite-Spin Energy      =      -0.5646684272041742 [Eh]
	 Correlation Energy        =      -0.7434572569784271 [Eh]
	 Total Energy              =    -200.0766287601920226 [Eh]
	-----------------------------------------------------------
	 ================> DF-SCS-MP2 Energies <================== 
	-----------------------------------------------------------
	 SCS Same-Spin Scale       =       0.3333333333333333 [-]
	 SCS Opposite-Spin Scale   =       1.2000000000000000 [-]
	 SCS Same-Spin Energy      =      -0.0595962765914176 [Eh]
	 SCS Opposite-Spin Energy  =      -0.6776021126450090 [Eh]
	 SCS Correlation Energy    =      -0.7371983892364267 [Eh]
	 SCS Total Energy          =    -200.0703698924500316 [Eh]
	-----------------------------------------------------------



    B2PLYP-D3BJ Energy Summary
    --------------------------
    DFT Reference Energy                  =  -199.3331715032136060
    Scaled MP2 Correlation                =    -0.2007334593841753
    @Final double-hybrid DFT total energy =  -199.5339049625977736


*** tstop() called on bp1-compute00147.data.bp.acrc.priv at Mon Apr 19 15:35:24 2021
Module time:
	user time   =       9.78 seconds =       0.16 minutes
	system time =       0.45 seconds =       0.01 minutes
	total time  =          1 seconds =       0.02 minutes
Total time:
	user time   =      41.18 seconds =       0.69 minutes
	system time =       2.12 seconds =       0.04 minutes
	total time  =          2 seconds =       0.03 minutes

  //>>>>>>>>>>>>>>>>>>>>>>>>>>>>>>>>>>>//
  //    Loading displacement 2 of 3    //
  //<<<<<<<<<<<<<<<<<<<<<<<<<<<<<<<<<<<//

*** tstart() called on bp1-compute00147.data.bp.acrc.priv
*** at Mon Apr 19 15:35:24 2021

   => Loading Basis Set <=

    Name: AUG-CC-PV(Q+D)Z
    Role: ORBITAL
    Keyword: BASIS
    atoms 1-2 entry F          line   499 file /work/zw18965/.conda/envs/p4env/share/psi4/basis/aug-cc-pv_qpd_z.gbs 


         ---------------------------------------------------------
                                   SCF
               by Justin Turney, Rob Parrish, Andy Simmonett
                          and Daniel G. A. Smith
                              RKS Reference
                       24 Threads, 137329 MiB Core
         ---------------------------------------------------------

  ==> Geometry <==

    Molecular point group: d2h
    Full point group: D_inf_h

    Geometry (in Angstrom), charge = 0, multiplicity = 1:

       Center              X                  Y                   Z               Mass       
    ------------   -----------------  -----------------  -----------------  -----------------
         F            0.000000000000     0.000000000000    -0.690191522568    18.998403162730
         F            0.000000000000     0.000000000000     0.690191522568    18.998403162730

  Running in d2h symmetry.

  Rotational constants: A = ************  B =      0.93134  C =      0.93134 [cm^-1]
  Rotational constants: A = ************  B =  27920.99320  C =  27920.99320 [MHz]
  Nuclear repulsion =   31.051782485546209

  Charge       = 0
  Multiplicity = 1
  Electrons    = 18
  Nalpha       = 9
  Nbeta        = 9

  ==> Algorithm <==

  SCF Algorithm Type is DF.
  DIIS enabled.
  MOM disabled.
  Fractional occupation disabled.
  Guess Type is SAD.
  Energy threshold   = 1.00e-08
  Density threshold  = 1.00e-08
  Integral threshold = 0.00e+00

  ==> Primary Basis <==

  Basis Set: AUG-CC-PV(Q+D)Z
    Blend: AUG-CC-PV(Q+D)Z
    Number of shells: 40
    Number of basis function: 160
    Number of Cartesian functions: 210
    Spherical Harmonics?: true
    Max angular momentum: 4

  ==> DFT Potential <==

   => Composite Functional: B2PLYP-D3BJ <= 

    B2PLYP Double Hybrid Exchange-Correlation Functional

    S. Grimme, J. Chem. Phys., 124, 034108, 2006


    Deriv               =              1
    GGA                 =           TRUE
    Meta                =          FALSE

    Exchange Hybrid     =           TRUE
    MP2 Hybrid          =           TRUE

   => Exchange Functionals <=

    0.4700     XC_GGA_X_B88

   => Exact (HF) Exchange <=

    0.5300               HF 

   => Correlation Functionals <=

    0.7300     XC_GGA_C_LYP

   => MP2 Correlation <=

    0.2700       MP2 

   => Molecular Quadrature <=

    Radial Scheme          =       TREUTLER
    Pruning Scheme         =           FLAT
    Nuclear Scheme         =       TREUTLER

    BS radius alpha        =              1
    Pruning alpha          =              1
    Radial Points          =             75
    Spherical Points       =            302
    Total Points           =          44826
    Total Blocks           =            414
    Max Points             =            255
    Max Functions          =            160

   => B2PLYP-D3(BJ): Empirical Dispersion <=

    Grimme's -D3 (BJ-damping) Dispersion Correction
    Grimme S.; Ehrlich S.; Goerigk L. (2011), J. Comput. Chem., 32: 1456
    Parametrisation from:    L. Goerigk, S. Grimme, Phys. Chem. Chem. Phys. 13, 6670-6688, 2011

        s6 =       0.640000
        s8 =       0.914700
        a1 =       0.306500
        a2 =       5.057000

   => Loading Basis Set <=

    Name: (AUG-CC-PV(Q+D)Z AUX)
    Role: JKFIT
    Keyword: DF_BASIS_SCF
    atoms 1-2 entry F          line   388 file /work/zw18965/.conda/envs/p4env/share/psi4/basis/aug-cc-pvqz-jkfit.gbs 

  ==> Pre-Iterations <==

   -------------------------------------------------------
    Irrep   Nso     Nmo     Nalpha   Nbeta   Ndocc  Nsocc
   -------------------------------------------------------
     Ag        31      31       0       0       0       0
     B1g       11      11       0       0       0       0
     B2g       19      19       0       0       0       0
     B3g       19      19       0       0       0       0
     Au        11      11       0       0       0       0
     B1u       31      31       0       0       0       0
     B2u       19      19       0       0       0       0
     B3u       19      19       0       0       0       0
   -------------------------------------------------------
    Total     160     160       9       9       9       0
   -------------------------------------------------------

  ==> Integral Setup <==

  DFHelper Memory: AOs need 0.066 GiB; user supplied 100.405 GiB. Using in-core AOs.

  ==> MemDFJK: Density-Fitted J/K Matrices <==

    J tasked:                   Yes
    K tasked:                   Yes
    wK tasked:                   No
    OpenMP threads:              24
    Memory [MiB]:            102814
    Algorithm:                 Core
    Schwarz Cutoff:           1E-12
    Mask sparsity (%):       0.0000
    Fitting Condition:        1E-10

   => Auxiliary Basis Set <=

  Basis Set: (AUG-CC-PV(Q+D)Z AUX)
    Blend: AUG-CC-PVQZ-JKFIT
    Number of shells: 68
    Number of basis function: 284
    Number of Cartesian functions: 396
    Spherical Harmonics?: true
    Max angular momentum: 5

  Cached 100.0% of DFT collocation blocks in 0.178 [GiB].

  Minimum eigenvalue in the overlap matrix is 2.7060602783E-04.
  Using Symmetric Orthogonalization.

  SCF Guess: Superposition of Atomic Densities via on-the-fly atomic UHF.

  ==> Iterations <==

                           Total Energy        Delta E     RMS |[F,P]|

   @DF-RKS iter SAD:  -198.93596731280354   -1.98936e+02   0.00000e+00 
   @DF-RKS iter   1:  -199.31952924387525   -3.83562e-01   3.94595e-03 DIIS
   @DF-RKS iter   2:  -199.33142696990234   -1.18977e-02   1.56930e-03 DIIS
   @DF-RKS iter   3:  -199.33311525022268   -1.68828e-03   1.59146e-04 DIIS
   @DF-RKS iter   4:  -199.33313880976786   -2.35595e-05   9.11353e-05 DIIS
   @DF-RKS iter   5:  -199.33314598160027   -7.17183e-06   8.28934e-06 DIIS
   @DF-RKS iter   6:  -199.33314604183568   -6.02354e-08   7.14752e-07 DIIS
   @DF-RKS iter   7:  -199.33314604224020   -4.04526e-10   2.43927e-08 DIIS
   @DF-RKS iter   8:  -199.33314604224066   -4.54747e-13   1.32342e-09 DIIS
  Energy and wave function converged.


  ==> Post-Iterations <==

    Orbital Energies [Eh]
    ---------------------

    Doubly Occupied:                                                      

       1Ag   -25.477190     1B1u  -25.477049     2Ag    -1.542544  
       2B1u   -1.268030     3Ag    -0.680035     1B2u   -0.665862  
       1B3u   -0.665862     1B2g   -0.518644     1B3g   -0.518644  

    Virtual:                                                              

       3B1u   -0.044175     4B1u    0.096765     4Ag     0.101843  
       2B3u    0.125471     2B2u    0.125471     2B2g    0.179269  
       2B3g    0.179269     5Ag     0.182572     5B1u    0.319983  
       1B1g    0.488044     6Ag     0.488044     7Ag     0.622696  
       3B2u    0.643147     3B3u    0.643147     6B1u    0.669539  
       7B1u    0.684760     1Au     0.684760     3B2g    0.693897  
       3B3g    0.693897     4B2u    0.733415     4B3u    0.733415  
       8B1u    0.876491     8Ag     0.894287     4B2g    1.002354  
       4B3g    1.002354     9Ag     1.182040     5B3u    1.611084  
       5B2u    1.611084    10Ag     1.631157     2B1g    1.631157  
       6B3u    1.647088     6B2u    1.647088     9B1u    1.804591  
      11Ag     1.830766     3B1g    1.877190    12Ag     1.877191  
       5B2g    1.916817     5B3g    1.916817     2Au     1.922639  
      10B1u    1.922640     6B2g    1.965796     6B3g    1.965796  
      11B1u    2.181826     7B3u    2.252620     7B2u    2.252620  
      12B1u    2.370390     3Au     2.370393    13B1u    2.373857  
      13Ag     2.642052     7B3g    2.676821     7B2g    2.676821  
      14Ag     3.007858     8B2u    3.125119     8B3u    3.125119  
       8B2g    3.538516     8B3g    3.538516     9B3u    4.194858  
       9B2u    4.194858     4B1g    4.378976    15Ag     4.378993  
      16Ag     4.407375     5B1g    4.407376    17Ag     4.543821  
      10B3u    4.557455    10B2u    4.557455     4Au     4.633115  
      14B1u    4.633132    15B1u    4.798402    18Ag     4.965169  
       9B2g    5.112758     9B3g    5.112758    10B3g    5.145501  
      10B2g    5.145501    11B2u    5.161847    11B3u    5.161847  
      16B1u    5.246679    17B1u    5.303997     5Au     5.304009  
      11B3g    5.311504    11B2g    5.311504    12B3u    5.322812  
      12B2u    5.322812    19Ag     5.331092     6B1g    5.331092  
      20Ag     5.378100     7B1g    5.378110    21Ag     5.379882  
      18B1u    5.546739     6Au     5.546743    19B1u    5.558871  
      20B1u    5.784583    12B3g    5.974781    12B2g    5.974781  
      21B1u    6.303663     7Au     6.303666    13B3u    6.363684  
      13B2u    6.363684    22Ag     7.240583    13B2g    7.299877  
      13B3g    7.299877    22B1u    7.869230    14B2u   12.441482  
      14B3u   12.441482    23Ag    12.674186    14B3g   13.133177  
      14B2g   13.133177    15B2u   13.182502    15B3u   13.182502  
       8B1g   13.212440    24Ag    13.212705     8Au    13.313728  
      23B1u   13.314000    25Ag    13.444589     9B1g   13.444599  
      15B3g   13.463458    15B2g   13.463458    16B3u   13.522335  
      16B2u   13.522335    26Ag    13.566265    24B1u   13.683055  
       9Au    13.683069    16B2g   13.814643    16B3g   13.814643  
      25B1u   14.056505    26B1u   14.767711    10B1g   15.262716  
      27Ag    15.262736    17B3u   15.316616    17B2u   15.316616  
      18B3u   15.389682    18B2u   15.389682    17B2g   15.415080  
      17B3g   15.415080    10Au    15.630025    27B1u   15.630048  
      28B1u   15.760375    28Ag    15.764548    29Ag    16.173321  
      11B1g   16.173398    29B1u   16.306993    11Au    16.307066  
      19B2u   16.478802    19B3u   16.478802    18B3g   16.505944  
      18B2g   16.505944    19B3g   16.723456    19B2g   16.723456  
      30Ag    17.711666    30B1u   17.924880    31Ag    52.800874  
      31B1u   54.911431  

    Final Occupation by Irrep:
             Ag   B1g   B2g   B3g    Au   B1u   B2u   B3u 
    DOCC [     3,    0,    1,    1,    0,    2,    1,    1 ]

  @DF-RKS Final Energy:  -199.33314604224066

   => Energetics <=

    Nuclear Repulsion Energy =             31.0517824855462088
    One-Electron Energy =                -339.9941492852499323
    Two-Electron Energy =                 119.5525717375187895
    DFT Exchange-Correlation Energy =      -9.9432356600557075
    Empirical Dispersion Energy =          -0.0001153200000000
    VV10 Nonlocal Energy =                  0.0000000000000000
    Total Energy =                       -199.3331460422406280

Computation Completed


Properties will be evaluated at   0.000000,   0.000000,   0.000000 [a0]

Properties computed using the SCF density matrix

  Nuclear Dipole Moment: [e a0]
     X:     0.0000      Y:     0.0000      Z:    -0.0000

  Electronic Dipole Moment: [e a0]
     X:     0.0000      Y:     0.0000      Z:     0.0000

  Dipole Moment: [e a0]
     X:     0.0000      Y:     0.0000      Z:    -0.0000     Total:     0.0000

  Dipole Moment: [D]
     X:     0.0000      Y:     0.0000      Z:    -0.0000     Total:     0.0000


*** tstop() called on bp1-compute00147.data.bp.acrc.priv at Mon Apr 19 15:35:25 2021
Module time:
	user time   =      32.22 seconds =       0.54 minutes
	system time =       1.59 seconds =       0.03 minutes
	total time  =          1 seconds =       0.02 minutes
Total time:
	user time   =      73.73 seconds =       1.23 minutes
	system time =       3.73 seconds =       0.06 minutes
	total time  =          3 seconds =       0.05 minutes

*** tstart() called on bp1-compute00147.data.bp.acrc.priv
*** at Mon Apr 19 15:35:25 2021

   => Loading Basis Set <=

    Name: (AUG-CC-PV(Q+D)Z AUX)
    Role: RIFIT
    Keyword: DF_BASIS_MP2
    atoms 1-2 entry F          line   406 file /work/zw18965/.conda/envs/p4env/share/psi4/basis/aug-cc-pvqz-ri.gbs 

	 --------------------------------------------------------
	                          DF-MP2                         
	      2nd-Order Density-Fitted Moller-Plesset Theory     
	              RMP2 Wavefunction,  24 Threads             
	                                                         
	        Rob Parrish, Justin Turney, Andy Simmonett,      
	           Ed Hohenstein, and C. David Sherrill          
	 --------------------------------------------------------

   => Auxiliary Basis Set <=

  Basis Set: (AUG-CC-PV(Q+D)Z AUX)
    Blend: AUG-CC-PVQZ-RI
    Number of shells: 72
    Number of basis function: 336
    Number of Cartesian functions: 474
    Spherical Harmonics?: true
    Max angular momentum: 5

	 --------------------------------------------------------
	                 NBF =   160, NAUX =   336
	 --------------------------------------------------------
	   CLASS    FOCC     OCC    AOCC    AVIR     VIR    FVIR
	   PAIRS       0       9       9     151     151       0
	 --------------------------------------------------------

	-----------------------------------------------------------
	 ==================> DF-MP2 Energies <==================== 
	-----------------------------------------------------------
	 Reference Energy          =    -199.3331460422406565 [Eh]
	 Singles Energy            =      -0.0000000000000000 [Eh]
	 Same-Spin Energy          =      -0.1788111151613982 [Eh]
	 Opposite-Spin Energy      =      -0.5648258383573135 [Eh]
	 Correlation Energy        =      -0.7436369535187117 [Eh]
	 Total Energy              =    -200.0767829957593733 [Eh]
	-----------------------------------------------------------
	 ================> DF-SCS-MP2 Energies <================== 
	-----------------------------------------------------------
	 SCS Same-Spin Scale       =       0.3333333333333333 [-]
	 SCS Opposite-Spin Scale   =       1.2000000000000000 [-]
	 SCS Same-Spin Energy      =      -0.0596037050537994 [Eh]
	 SCS Opposite-Spin Energy  =      -0.6777910060287762 [Eh]
	 SCS Correlation Energy    =      -0.7373947110825756 [Eh]
	 SCS Total Energy          =    -200.0705407533232290 [Eh]
	-----------------------------------------------------------



    B2PLYP-D3BJ Energy Summary
    --------------------------
    DFT Reference Energy                  =  -199.3331460422406565
    Scaled MP2 Correlation                =    -0.2007819774500522
    @Final double-hybrid DFT total energy =  -199.5339280196907055


*** tstop() called on bp1-compute00147.data.bp.acrc.priv at Mon Apr 19 15:35:26 2021
Module time:
	user time   =       9.62 seconds =       0.16 minutes
	system time =       0.42 seconds =       0.01 minutes
	total time  =          1 seconds =       0.02 minutes
Total time:
	user time   =      83.37 seconds =       1.39 minutes
	system time =       4.15 seconds =       0.07 minutes
	total time  =          4 seconds =       0.07 minutes

  //>>>>>>>>>>>>>>>>>>>>>>>>>>>>>>>>>>>//
  //    Loading displacement 3 of 3    //
  //<<<<<<<<<<<<<<<<<<<<<<<<<<<<<<<<<<<//

*** tstart() called on bp1-compute00147.data.bp.acrc.priv
*** at Mon Apr 19 15:35:26 2021

   => Loading Basis Set <=

    Name: AUG-CC-PV(Q+D)Z
    Role: ORBITAL
    Keyword: BASIS
    atoms 1-2 entry F          line   499 file /work/zw18965/.conda/envs/p4env/share/psi4/basis/aug-cc-pv_qpd_z.gbs 


         ---------------------------------------------------------
                                   SCF
               by Justin Turney, Rob Parrish, Andy Simmonett
                          and Daniel G. A. Smith
                              RKS Reference
                       24 Threads, 137329 MiB Core
         ---------------------------------------------------------

  ==> Geometry <==

    Molecular point group: d2h
    Full point group: D_inf_h

    Geometry (in Angstrom), charge = 0, multiplicity = 1:

       Center              X                  Y                   Z               Mass       
    ------------   -----------------  -----------------  -----------------  -----------------
         F            0.000000000000     0.000000000000    -0.689333047700    18.998403162730
         F            0.000000000000     0.000000000000     0.689333047700    18.998403162730

  Running in d2h symmetry.

  Rotational constants: A = ************  B =      0.93367  C =      0.93367 [cm^-1]
  Rotational constants: A = ************  B =  27990.58045  C =  27990.58045 [MHz]
  Nuclear repulsion =   31.090453451533381

  Charge       = 0
  Multiplicity = 1
  Electrons    = 18
  Nalpha       = 9
  Nbeta        = 9

  ==> Algorithm <==

  SCF Algorithm Type is DF.
  DIIS enabled.
  MOM disabled.
  Fractional occupation disabled.
  Guess Type is SAD.
  Energy threshold   = 1.00e-08
  Density threshold  = 1.00e-08
  Integral threshold = 0.00e+00

  ==> Primary Basis <==

  Basis Set: AUG-CC-PV(Q+D)Z
    Blend: AUG-CC-PV(Q+D)Z
    Number of shells: 40
    Number of basis function: 160
    Number of Cartesian functions: 210
    Spherical Harmonics?: true
    Max angular momentum: 4

  ==> DFT Potential <==

   => Composite Functional: B2PLYP-D3BJ <= 

    B2PLYP Double Hybrid Exchange-Correlation Functional

    S. Grimme, J. Chem. Phys., 124, 034108, 2006


    Deriv               =              1
    GGA                 =           TRUE
    Meta                =          FALSE

    Exchange Hybrid     =           TRUE
    MP2 Hybrid          =           TRUE

   => Exchange Functionals <=

    0.4700     XC_GGA_X_B88

   => Exact (HF) Exchange <=

    0.5300               HF 

   => Correlation Functionals <=

    0.7300     XC_GGA_C_LYP

   => MP2 Correlation <=

    0.2700       MP2 

   => Molecular Quadrature <=

    Radial Scheme          =       TREUTLER
    Pruning Scheme         =           FLAT
    Nuclear Scheme         =       TREUTLER

    BS radius alpha        =              1
    Pruning alpha          =              1
    Radial Points          =             75
    Spherical Points       =            302
    Total Points           =          44826
    Total Blocks           =            414
    Max Points             =            255
    Max Functions          =            160

   => B2PLYP-D3(BJ): Empirical Dispersion <=

    Grimme's -D3 (BJ-damping) Dispersion Correction
    Grimme S.; Ehrlich S.; Goerigk L. (2011), J. Comput. Chem., 32: 1456
    Parametrisation from:    L. Goerigk, S. Grimme, Phys. Chem. Chem. Phys. 13, 6670-6688, 2011

        s6 =       0.640000
        s8 =       0.914700
        a1 =       0.306500
        a2 =       5.057000

   => Loading Basis Set <=

    Name: (AUG-CC-PV(Q+D)Z AUX)
    Role: JKFIT
    Keyword: DF_BASIS_SCF
    atoms 1-2 entry F          line   388 file /work/zw18965/.conda/envs/p4env/share/psi4/basis/aug-cc-pvqz-jkfit.gbs 

  ==> Pre-Iterations <==

   -------------------------------------------------------
    Irrep   Nso     Nmo     Nalpha   Nbeta   Ndocc  Nsocc
   -------------------------------------------------------
     Ag        31      31       0       0       0       0
     B1g       11      11       0       0       0       0
     B2g       19      19       0       0       0       0
     B3g       19      19       0       0       0       0
     Au        11      11       0       0       0       0
     B1u       31      31       0       0       0       0
     B2u       19      19       0       0       0       0
     B3u       19      19       0       0       0       0
   -------------------------------------------------------
    Total     160     160       9       9       9       0
   -------------------------------------------------------

  ==> Integral Setup <==

  DFHelper Memory: AOs need 0.066 GiB; user supplied 100.405 GiB. Using in-core AOs.

  ==> MemDFJK: Density-Fitted J/K Matrices <==

    J tasked:                   Yes
    K tasked:                   Yes
    wK tasked:                   No
    OpenMP threads:              24
    Memory [MiB]:            102814
    Algorithm:                 Core
    Schwarz Cutoff:           1E-12
    Mask sparsity (%):       0.0000
    Fitting Condition:        1E-10

   => Auxiliary Basis Set <=

  Basis Set: (AUG-CC-PV(Q+D)Z AUX)
    Blend: AUG-CC-PVQZ-JKFIT
    Number of shells: 68
    Number of basis function: 284
    Number of Cartesian functions: 396
    Spherical Harmonics?: true
    Max angular momentum: 5

  Cached 100.0% of DFT collocation blocks in 0.178 [GiB].

  Minimum eigenvalue in the overlap matrix is 2.6939045300E-04.
  Using Symmetric Orthogonalization.

  SCF Guess: Superposition of Atomic Densities via on-the-fly atomic UHF.

  ==> Iterations <==

                           Total Energy        Delta E     RMS |[F,P]|

   @DF-RKS iter SAD:  -198.93856823435027   -1.98939e+02   0.00000e+00 
   @DF-RKS iter   1:  -199.31952261418246   -3.80954e-01   3.95484e-03 DIIS
   @DF-RKS iter   2:  -199.33146981150244   -1.19472e-02   1.57321e-03 DIIS
   @DF-RKS iter   3:  -199.33316494352698   -1.69513e-03   1.59473e-04 DIIS
   @DF-RKS iter   4:  -199.33318857300691   -2.36295e-05   9.13801e-05 DIIS
   @DF-RKS iter   5:  -199.33319578389560   -7.21089e-06   8.30075e-06 DIIS
   @DF-RKS iter   6:  -199.33319584425098   -6.03554e-08   7.11510e-07 DIIS
   @DF-RKS iter   7:  -199.33319584465190   -4.00917e-10   2.42912e-08 DIIS
   @DF-RKS iter   8:  -199.33319584465258   -6.82121e-13   1.32209e-09 DIIS
  Energy and wave function converged.


  ==> Post-Iterations <==

    Orbital Energies [Eh]
    ---------------------

    Doubly Occupied:                                                      

       1Ag   -25.477058     1B1u  -25.476917     2Ag    -1.543457  
       2B1u   -1.267561     3Ag    -0.680511     1B3u   -0.666233  
       1B2u   -0.666233     1B2g   -0.518316     1B3g   -0.518316  

    Virtual:                                                              

       3B1u   -0.042954     4B1u    0.096906     4Ag     0.101850  
       2B3u    0.125462     2B2u    0.125462     2B2g    0.179284  
       2B3g    0.179284     5Ag     0.182549     5B1u    0.320055  
       1B1g    0.488025     6Ag     0.488025     7Ag     0.622422  
       3B3u    0.643421     3B2u    0.643421     6B1u    0.669802  
       7B1u    0.684892     1Au     0.684892     3B2g    0.693832  
       3B3g    0.693832     4B3u    0.733446     4B2u    0.733446  
       8B1u    0.876337     8Ag     0.893879     4B3g    1.002305  
       4B2g    1.002305     9Ag     1.182489     5B3u    1.610920  
       5B2u    1.610920    10Ag     1.631169     2B1g    1.631169  
       6B2u    1.647334     6B3u    1.647334     9B1u    1.805318  
      11Ag     1.831308     3B1g    1.877543    12Ag     1.877545  
       5B2g    1.917228     5B3g    1.917228     2Au     1.922625  
      10B1u    1.922626     6B3g    1.966223     6B2g    1.966223  
      11B1u    2.182078     7B3u    2.253371     7B2u    2.253371  
      12B1u    2.371488     3Au     2.371490    13B1u    2.373603  
      13Ag     2.644472     7B3g    2.675509     7B2g    2.675509  
      14Ag     3.006523     8B2u    3.125162     8B3u    3.125162  
       8B3g    3.541894     8B2g    3.541894     9B3u    4.194988  
       9B2u    4.194988     4B1g    4.378317    15Ag     4.378333  
      16Ag     4.408926     5B1g    4.408927    17Ag     4.544175  
      10B3u    4.557697    10B2u    4.557697     4Au     4.633777  
      14B1u    4.633794    15B1u    4.802093    18Ag     4.967820  
       9B3g    5.113423     9B2g    5.113423    10B3g    5.147939  
      10B2g    5.147939    11B2u    5.161606    11B3u    5.161606  
      16B1u    5.246966    17B1u    5.303461     5Au     5.303473  
      11B3g    5.311645    11B2g    5.311645    12B3u    5.322158  
      12B2u    5.322158     6B1g    5.331971    19Ag     5.331971  
      20Ag     5.378130     7B1g    5.378141    21Ag     5.381392  
      18B1u    5.547909     6Au     5.547912    19B1u    5.558628  
      20B1u    5.785104    12B2g    5.975572    12B3g    5.975572  
      21B1u    6.308148     7Au     6.308151    13B2u    6.368345  
      13B3u    6.368345    22Ag     7.236985    13B2g    7.302498  
      13B3g    7.302498    22B1u    7.879227    14B2u   12.441613  
      14B3u   12.441613    23Ag    12.676782    14B3g   13.139559  
      14B2g   13.139559    15B3u   13.182938    15B2u   13.182938  
       8B1g   13.212258    24Ag    13.212523     8Au    13.313916  
      23B1u   13.314187    25Ag    13.444068     9B1g   13.444078  
      15B3g   13.463898    15B2g   13.463898    16B2u   13.515553  
      16B3u   13.515553    26Ag    13.567986    24B1u   13.684452  
       9Au    13.684466    16B3g   13.819096    16B2g   13.819096  
      25B1u   14.061272    26B1u   14.770316    10B1g   15.262614  
      27Ag    15.262635    17B2u   15.316449    17B3u   15.316449  
      18B2u   15.392058    18B3u   15.392058    17B3g   15.415343  
      17B2g   15.415343    10Au    15.631622    27B1u   15.631646  
      28B1u   15.750229    28Ag    15.769964    29Ag    16.173420  
      11B1g   16.173497    29B1u   16.307477    11Au    16.307551  
      19B3u   16.480530    19B2u   16.480530    18B3g   16.512829  
      18B2g   16.512829    19B2g   16.721372    19B3g   16.721372  
      30Ag    17.712174    30B1u   17.939986    31Ag    52.799213  
      31B1u   54.927578  

    Final Occupation by Irrep:
             Ag   B1g   B2g   B3g    Au   B1u   B2u   B3u 
    DOCC [     3,    0,    1,    1,    0,    2,    1,    1 ]

  @DF-RKS Final Energy:  -199.33319584465258

   => Energetics <=

    Nuclear Repulsion Energy =             31.0904534515333815
    One-Electron Energy =                -340.0698067093436521
    Two-Electron Energy =                 119.5899658479880827
    DFT Exchange-Correlation Energy =      -9.9436931148303813
    Empirical Dispersion Energy =          -0.0001153200000000
    VV10 Nonlocal Energy =                  0.0000000000000000
    Total Energy =                       -199.3331958446525505

Computation Completed


Properties will be evaluated at   0.000000,   0.000000,   0.000000 [a0]

Properties computed using the SCF density matrix

  Nuclear Dipole Moment: [e a0]
     X:     0.0000      Y:     0.0000      Z:    -0.0000

  Electronic Dipole Moment: [e a0]
     X:     0.0000      Y:     0.0000      Z:     0.0000

  Dipole Moment: [e a0]
     X:     0.0000      Y:     0.0000      Z:    -0.0000     Total:     0.0000

  Dipole Moment: [D]
     X:     0.0000      Y:     0.0000      Z:    -0.0000     Total:     0.0000


*** tstop() called on bp1-compute00147.data.bp.acrc.priv at Mon Apr 19 15:35:28 2021
Module time:
	user time   =      32.47 seconds =       0.54 minutes
	system time =       1.50 seconds =       0.03 minutes
	total time  =          2 seconds =       0.03 minutes
Total time:
	user time   =     115.99 seconds =       1.93 minutes
	system time =       5.65 seconds =       0.09 minutes
	total time  =          6 seconds =       0.10 minutes

*** tstart() called on bp1-compute00147.data.bp.acrc.priv
*** at Mon Apr 19 15:35:28 2021

   => Loading Basis Set <=

    Name: (AUG-CC-PV(Q+D)Z AUX)
    Role: RIFIT
    Keyword: DF_BASIS_MP2
    atoms 1-2 entry F          line   406 file /work/zw18965/.conda/envs/p4env/share/psi4/basis/aug-cc-pvqz-ri.gbs 

	 --------------------------------------------------------
	                          DF-MP2                         
	      2nd-Order Density-Fitted Moller-Plesset Theory     
	              RMP2 Wavefunction,  24 Threads             
	                                                         
	        Rob Parrish, Justin Turney, Andy Simmonett,      
	           Ed Hohenstein, and C. David Sherrill          
	 --------------------------------------------------------

   => Auxiliary Basis Set <=

  Basis Set: (AUG-CC-PV(Q+D)Z AUX)
    Blend: AUG-CC-PVQZ-RI
    Number of shells: 72
    Number of basis function: 336
    Number of Cartesian functions: 474
    Spherical Harmonics?: true
    Max angular momentum: 5

	 --------------------------------------------------------
	                 NBF =   160, NAUX =   336
	 --------------------------------------------------------
	   CLASS    FOCC     OCC    AOCC    AVIR     VIR    FVIR
	   PAIRS       0       9       9     151     151       0
	 --------------------------------------------------------

	-----------------------------------------------------------
	 ==================> DF-MP2 Energies <==================== 
	-----------------------------------------------------------
	 Reference Energy          =    -199.3331958446525789 [Eh]
	 Singles Energy            =      -0.0000000000000000 [Eh]
	 Same-Spin Energy          =      -0.1787665213478758 [Eh]
	 Opposite-Spin Energy      =      -0.5645111189971618 [Eh]
	 Correlation Energy        =      -0.7432776403450376 [Eh]
	 Total Energy              =    -200.0764734849976207 [Eh]
	-----------------------------------------------------------
	 ================> DF-SCS-MP2 Energies <================== 
	-----------------------------------------------------------
	 SCS Same-Spin Scale       =       0.3333333333333333 [-]
	 SCS Opposite-Spin Scale   =       1.2000000000000000 [-]
	 SCS Same-Spin Energy      =      -0.0595888404492919 [Eh]
	 SCS Opposite-Spin Energy  =      -0.6774133427965942 [Eh]
	 SCS Correlation Energy    =      -0.7370021832458861 [Eh]
	 SCS Total Energy          =    -200.0701980278984706 [Eh]
	-----------------------------------------------------------



    B2PLYP-D3BJ Energy Summary
    --------------------------
    DFT Reference Energy                  =  -199.3331958446525789
    Scaled MP2 Correlation                =    -0.2006849628931602
    @Final double-hybrid DFT total energy =  -199.5338808075457280


*** tstop() called on bp1-compute00147.data.bp.acrc.priv at Mon Apr 19 15:35:28 2021
Module time:
	user time   =       9.98 seconds =       0.17 minutes
	system time =       0.40 seconds =       0.01 minutes
	total time  =          0 seconds =       0.00 minutes
Total time:
	user time   =     125.98 seconds =       2.10 minutes
	system time =       6.05 seconds =       0.10 minutes
	total time  =          6 seconds =       0.10 minutes

         ----------------------------------------------------------
                                   FINDIF
                     R. A. King and Jonathon Misiewicz
         ---------------------------------------------------------

  Computing gradient from energies.
    Using 3-point formula.
    Energy without displacement: -199.5339049626
    Check energies below for precision!
    Forces are for mass-weighted, symmetry-adapted cartesians (in au).

     Coord      Energy(-1)        Energy(+1)            Force
        0   -199.5339280197   -199.5338808075      0.0047212145


-------------------------------------------------------------
  ## New Matrix (Symmetry 0) ##
  Irrep: 1 Size: 2 x 3

                 1                   2                   3

    1     0.00000000000000     0.00000000000000     0.01455114887306
    2     0.00000000000000     0.00000000000000    -0.01455114887306




			-----------------------------------------
			 OPTKING 2.0: for geometry optimizations 
			  - R.A. King,  Bethel University        
			-----------------------------------------

	Internal coordinates to be generated automatically.
	Detected frag 1 with atoms:  1 2
	---Fragment 1 Bond Connectivity---
	 1 : 2
	 2 : 1

	---Fragment 1 Geometry and Gradient---
	 F           0.0000000000        0.0000000000       -1.3034618106
	 F           0.0000000000        0.0000000000        1.3034618106
	             0.0000000000        0.0000000000        0.0145511489
	             0.0000000000        0.0000000000       -0.0145511489

	Previous optimization step data not found.  Starting new optimization.

	---Fragment 1 Intrafragment Coordinates---
	 - Coordinate -           - BOHR/RAD -       - ANG/DEG -
	 R(1,2)           =         2.606924	       1.379525

	Current energy   :      -199.5339049626

	Generating empirical Hessian (Schlegel '84) for each fragment.
	Taking RFO optimization step.
	Going to follow RFO solution 1.
	Using RFO vector 1.
	Norm of target step-size    0.02956
	Projected energy change by RFO approximation:         0.0000067005

	Back-transformation to cartesian coordinates...
	Successfully converged to displaced geometry.

	--- Internal Coordinate Step in ANG or DEG, aJ/ANG or AJ/DEG ---
	 ---------------------------------------------------------------------------
	   Coordinate                Previous        Force       Change         New 
	   ----------                --------       ------       ------       ------
	    1 R(1,2)          =      1.379525     0.119883     0.015640     1.395165
	 ---------------------------------------------------------------------------
	Successfully symmetrized geometry.

  ==> Convergence Check <==

  Measures of convergence in internal coordinates in au.
  Criteria marked as inactive (o), active & met (*), and active & unmet ( ).
  --------------------------------------------------------------------------------------------- ~
   Step     Total Energy     Delta E     MAX Force     RMS Force      MAX Disp      RMS Disp    ~
  --------------------------------------------------------------------------------------------- ~
    Convergence Criteria    1.00e-06 *    3.00e-04 *             o    1.20e-03 *             o  ~
  --------------------------------------------------------------------------------------------- ~
      1    -199.53390496   -2.00e+02      1.46e-02      1.46e-02 o    2.96e-02      2.96e-02 o  ~
  ---------------------------------------------------------------------------------------------

	Writing optimization data to binary file.
	Structure for next step:
	Cartesian Geometry (in Angstrom)
	    F     0.0000000000   0.0000000000  -0.6975824912
	    F     0.0000000000   0.0000000000   0.6975824912
			--------------------------
			 OPTKING Finished Execution 
			--------------------------

    Structure for next step:
    Molecular point group: d2h
    Full point group: D_inf_h

    Geometry (in Angstrom), charge = 0, multiplicity = 1:

    F            0.000000000000     0.000000000000    -0.697582493975
    F            0.000000000000     0.000000000000     0.697582493975

gradient() will perform gradient computation by finite difference of analytic energies.

         ----------------------------------------------------------
                                   FINDIF
                     R. A. King and Jonathon Misiewicz
         ---------------------------------------------------------

  Using finite-differences of energies to determine gradients.
    Generating geometries for use with 3-point formula.
    Displacement size will be 5.00e-03.
    Number of atoms is 2.
    Number of symmetric SALCs is 1.
    Translations projected? 1. Rotations projected? 1.
    Number of geometries (including reference) is 3.

  //>>>>>>>>>>>>>>>>>>>>>>>>>>>>>>>>>>>//
  //    Loading displacement 1 of 3    //
  //<<<<<<<<<<<<<<<<<<<<<<<<<<<<<<<<<<<//

*** tstart() called on bp1-compute00147.data.bp.acrc.priv
*** at Mon Apr 19 15:35:28 2021

   => Loading Basis Set <=

    Name: AUG-CC-PV(Q+D)Z
    Role: ORBITAL
    Keyword: BASIS
    atoms 1-2 entry F          line   499 file /work/zw18965/.conda/envs/p4env/share/psi4/basis/aug-cc-pv_qpd_z.gbs 


         ---------------------------------------------------------
                                   SCF
               by Justin Turney, Rob Parrish, Andy Simmonett
                          and Daniel G. A. Smith
                              RKS Reference
                       24 Threads, 137329 MiB Core
         ---------------------------------------------------------

  ==> Geometry <==

    Molecular point group: d2h
    Full point group: D_inf_h

    Geometry (in Angstrom), charge = 0, multiplicity = 1:

       Center              X                  Y                   Z               Mass       
    ------------   -----------------  -----------------  -----------------  -----------------
         F            0.000000000000     0.000000000000    -0.697582493975    18.998403162730
         F            0.000000000000     0.000000000000     0.697582493975    18.998403162730

  Running in d2h symmetry.

  Rotational constants: A = ************  B =      0.91171  C =      0.91171 [cm^-1]
  Rotational constants: A = ************  B =  27332.47487  C =  27332.47487 [MHz]
  Nuclear repulsion =   30.722785071632277

  Charge       = 0
  Multiplicity = 1
  Electrons    = 18
  Nalpha       = 9
  Nbeta        = 9

  ==> Algorithm <==

  SCF Algorithm Type is DF.
  DIIS enabled.
  MOM disabled.
  Fractional occupation disabled.
  Guess Type is READ.
  Energy threshold   = 1.00e-08
  Density threshold  = 1.00e-08
  Integral threshold = 0.00e+00

  ==> Primary Basis <==

  Basis Set: AUG-CC-PV(Q+D)Z
    Blend: AUG-CC-PV(Q+D)Z
    Number of shells: 40
    Number of basis function: 160
    Number of Cartesian functions: 210
    Spherical Harmonics?: true
    Max angular momentum: 4

  ==> DFT Potential <==

   => Composite Functional: B2PLYP-D3BJ <= 

    B2PLYP Double Hybrid Exchange-Correlation Functional

    S. Grimme, J. Chem. Phys., 124, 034108, 2006


    Deriv               =              1
    GGA                 =           TRUE
    Meta                =          FALSE

    Exchange Hybrid     =           TRUE
    MP2 Hybrid          =           TRUE

   => Exchange Functionals <=

    0.4700     XC_GGA_X_B88

   => Exact (HF) Exchange <=

    0.5300               HF 

   => Correlation Functionals <=

    0.7300     XC_GGA_C_LYP

   => MP2 Correlation <=

    0.2700       MP2 

   => Molecular Quadrature <=

    Radial Scheme          =       TREUTLER
    Pruning Scheme         =           FLAT
    Nuclear Scheme         =       TREUTLER

    BS radius alpha        =              1
    Pruning alpha          =              1
    Radial Points          =             75
    Spherical Points       =            302
    Total Points           =          44826
    Total Blocks           =            410
    Max Points             =            256
    Max Functions          =            160

   => B2PLYP-D3(BJ): Empirical Dispersion <=

    Grimme's -D3 (BJ-damping) Dispersion Correction
    Grimme S.; Ehrlich S.; Goerigk L. (2011), J. Comput. Chem., 32: 1456
    Parametrisation from:    L. Goerigk, S. Grimme, Phys. Chem. Chem. Phys. 13, 6670-6688, 2011

        s6 =       0.640000
        s8 =       0.914700
        a1 =       0.306500
        a2 =       5.057000

   => Loading Basis Set <=

    Name: (AUG-CC-PV(Q+D)Z AUX)
    Role: JKFIT
    Keyword: DF_BASIS_SCF
    atoms 1-2 entry F          line   388 file /work/zw18965/.conda/envs/p4env/share/psi4/basis/aug-cc-pvqz-jkfit.gbs 

   => Loading Basis Set <=

    Name: AUG-CC-PV(Q+D)Z
    Role: ORBITAL
    Keyword: BASIS
    atoms 1-2 entry F          line   499 file /work/zw18965/.conda/envs/p4env/share/psi4/basis/aug-cc-pv_qpd_z.gbs 

  Reading orbitals from file 180, no projection.

  ==> Pre-Iterations <==

   -------------------------------------------------------
    Irrep   Nso     Nmo     Nalpha   Nbeta   Ndocc  Nsocc
   -------------------------------------------------------
     Ag        31      31       0       0       0       0
     B1g       11      11       0       0       0       0
     B2g       19      19       0       0       0       0
     B3g       19      19       0       0       0       0
     Au        11      11       0       0       0       0
     B1u       31      31       0       0       0       0
     B2u       19      19       0       0       0       0
     B3u       19      19       0       0       0       0
   -------------------------------------------------------
    Total     160     160       9       9       9       0
   -------------------------------------------------------

  ==> Integral Setup <==

  DFHelper Memory: AOs need 0.066 GiB; user supplied 100.405 GiB. Using in-core AOs.

  ==> MemDFJK: Density-Fitted J/K Matrices <==

    J tasked:                   Yes
    K tasked:                   Yes
    wK tasked:                   No
    OpenMP threads:              24
    Memory [MiB]:            102814
    Algorithm:                 Core
    Schwarz Cutoff:           1E-12
    Mask sparsity (%):       0.0000
    Fitting Condition:        1E-10

   => Auxiliary Basis Set <=

  Basis Set: (AUG-CC-PV(Q+D)Z AUX)
    Blend: AUG-CC-PVQZ-JKFIT
    Number of shells: 68
    Number of basis function: 284
    Number of Cartesian functions: 396
    Spherical Harmonics?: true
    Max angular momentum: 5

  Cached 100.0% of DFT collocation blocks in 0.178 [GiB].

  Minimum eigenvalue in the overlap matrix is 2.8127006976E-04.
  Using Symmetric Orthogonalization.

  SCF Guess: Orbitals guess was supplied from a previous computation.

  ==> Iterations <==

                           Total Energy        Delta E     RMS |[F,P]|

   @DF-RKS iter   0:  -199.32807946501541   -1.99328e+02   6.59771e-04 
   @DF-RKS iter   1:  -199.33252299087013   -4.44353e-03   1.41108e-04 DIIS
   @DF-RKS iter   2:  -199.33253580607041   -1.28152e-05   5.20531e-05 DIIS
   @DF-RKS iter   3:  -199.33253781474923   -2.00868e-06   3.83041e-06 DIIS
   @DF-RKS iter   4:  -199.33253783190187   -1.71526e-08   1.87852e-06 DIIS
   @DF-RKS iter   5:  -199.33253783503750   -3.13563e-09   1.69332e-07 DIIS
   @DF-RKS iter   6:  -199.33253783506035   -2.28511e-11   9.91000e-09 DIIS
  Energy and wave function converged.


  ==> Post-Iterations <==

    Orbital Energies [Eh]
    ---------------------

    Doubly Occupied:                                                      

       1Ag   -25.478309     1B1u  -25.478173     2Ag    -1.534894  
       2B1u   -1.272000     3Ag    -0.675957     1B2u   -0.662752  
       1B3u   -0.662752     1B3g   -0.521410     1B2g   -0.521410  

    Virtual:                                                              

       3B1u   -0.054536     4B1u    0.095662     4Ag     0.101784  
       2B3u    0.125547     2B2u    0.125547     2B3g    0.179136  
       2B2g    0.179136     5Ag     0.182775     5B1u    0.319390  
       1B1g    0.488205     6Ag     0.488206     7Ag     0.625037  
       3B2u    0.640755     3B3u    0.640755     6B1u    0.667295  
       7B1u    0.683614     1Au     0.683614     3B3g    0.694462  
       3B2g    0.694462     4B3u    0.733160     4B2u    0.733160  
       8B1u    0.877856     8Ag     0.897782     4B3g    1.002755  
       4B2g    1.002755     9Ag     1.178027     5B2u    1.612513  
       5B3u    1.612513    10Ag     1.631004     2B1g    1.631004  
       6B3u    1.645003     6B2u    1.645003     9B1u    1.798326  
      11Ag     1.826210     3B1g    1.874220    12Ag     1.874222  
       5B3g    1.913297     5B2g    1.913297     2Au     1.922701  
      10B1u    1.922702     6B3g    1.962300     6B2g    1.962300  
      11B1u    2.179122     7B2u    2.246179     7B3u    2.246179  
      12B1u    2.360997     3Au     2.361000    13B1u    2.376714  
      13Ag     2.619662     7B3g    2.687923     7B2g    2.687923  
      14Ag     3.021650     8B3u    3.124645     8B2u    3.124645  
       8B3g    3.509898     8B2g    3.509898     9B2u    4.194039  
       9B3u    4.194039     4B1g    4.384591    15Ag     4.384607  
      16Ag     4.394026     5B1g    4.394027    17Ag     4.540056  
      10B2u    4.555076    10B3u    4.555076     4Au     4.627507  
      14B1u    4.627523    15B1u    4.765218    18Ag     4.943541  
       9B3g    5.107333     9B2g    5.107333    10B3g    5.124681  
      10B2g    5.124681    11B3u    5.163877    11B2u    5.163877  
      16B1u    5.242479    17B1u    5.308420     5Au     5.308434  
      11B2g    5.310288    11B3g    5.310288    19Ag     5.323568  
       6B1g    5.323569    12B2u    5.328424    12B3u    5.328424  
      20Ag     5.367325    21Ag     5.378039     7B1g    5.378050  
      18B1u    5.536686     6Au     5.536691    19B1u    5.561296  
      20B1u    5.783002    12B3g    5.966967    12B2g    5.966967  
      21B1u    6.265507     7Au     6.265510    13B3u    6.323884  
      13B2u    6.323884    22Ag     7.269940    13B3g    7.277738  
      13B2g    7.277738    22B1u    7.784214    14B3u   12.440406  
      14B2u   12.440406    23Ag    12.651267    14B2g   13.079128  
      14B3g   13.079128    15B2u   13.178624    15B3u   13.178624  
       8B1g   13.213997    24Ag    13.214265     8Au    13.312103  
      23B1u   13.312378    25Ag    13.447104     9B1g   13.447114  
      15B3g   13.459786    15B2g   13.459786    26Ag    13.554592  
      16B2u   13.578580    16B3u   13.578580    24B1u   13.672400  
       9Au    13.672416    16B3g   13.778474    16B2g   13.778474  
      25B1u   14.015447    26B1u   14.742591    10B1g   15.263940  
      27Ag    15.263954    17B2u   15.318016    17B3u   15.318016  
      18B2u   15.370441    18B3u   15.370441    17B3g   15.412859  
      17B2g   15.412859    10Au    15.616498    27B1u   15.616514  
      28Ag    15.719175    28B1u   15.848553    29Ag    16.172467  
      11B1g   16.172542    29B1u   16.302900    11Au    16.302970  
      18B3g   16.447384    18B2g   16.447384    19B3u   16.463609  
      19B2u   16.463609    19B3g   16.740943    19B2g   16.740943  
      30Ag    17.705283    30B1u   17.797139    31Ag    52.816202  
      31B1u   54.774286  

    Final Occupation by Irrep:
             Ag   B1g   B2g   B3g    Au   B1u   B2u   B3u 
    DOCC [     3,    0,    1,    1,    0,    2,    1,    1 ]

  @DF-RKS Final Energy:  -199.33253783506035

   => Energetics <=

    Nuclear Repulsion Energy =             30.7227850716322770
    One-Electron Energy =                -339.3498959482888608
    Two-Electron Energy =                 119.2340709155756571
    DFT Exchange-Correlation Energy =      -9.9393825439794377
    Empirical Dispersion Energy =          -0.0001153300000000
    VV10 Nonlocal Energy =                  0.0000000000000000
    Total Energy =                       -199.3325378350603216

Computation Completed


Properties will be evaluated at   0.000000,   0.000000,   0.000000 [a0]

Properties computed using the SCF density matrix

  Nuclear Dipole Moment: [e a0]
     X:     0.0000      Y:     0.0000      Z:     0.0000

  Electronic Dipole Moment: [e a0]
     X:     0.0000      Y:     0.0000      Z:     0.0000

  Dipole Moment: [e a0]
     X:     0.0000      Y:     0.0000      Z:     0.0000     Total:     0.0000

  Dipole Moment: [D]
     X:     0.0000      Y:     0.0000      Z:     0.0000     Total:     0.0000


*** tstop() called on bp1-compute00147.data.bp.acrc.priv at Mon Apr 19 15:35:29 2021
Module time:
	user time   =      24.73 seconds =       0.41 minutes
	system time =       1.32 seconds =       0.02 minutes
	total time  =          1 seconds =       0.02 minutes
Total time:
	user time   =     151.12 seconds =       2.52 minutes
	system time =       7.40 seconds =       0.12 minutes
	total time  =          7 seconds =       0.12 minutes

*** tstart() called on bp1-compute00147.data.bp.acrc.priv
*** at Mon Apr 19 15:35:29 2021

   => Loading Basis Set <=

    Name: (AUG-CC-PV(Q+D)Z AUX)
    Role: RIFIT
    Keyword: DF_BASIS_MP2
    atoms 1-2 entry F          line   406 file /work/zw18965/.conda/envs/p4env/share/psi4/basis/aug-cc-pvqz-ri.gbs 

	 --------------------------------------------------------
	                          DF-MP2                         
	      2nd-Order Density-Fitted Moller-Plesset Theory     
	              RMP2 Wavefunction,  24 Threads             
	                                                         
	        Rob Parrish, Justin Turney, Andy Simmonett,      
	           Ed Hohenstein, and C. David Sherrill          
	 --------------------------------------------------------

   => Auxiliary Basis Set <=

  Basis Set: (AUG-CC-PV(Q+D)Z AUX)
    Blend: AUG-CC-PVQZ-RI
    Number of shells: 72
    Number of basis function: 336
    Number of Cartesian functions: 474
    Spherical Harmonics?: true
    Max angular momentum: 5

	 --------------------------------------------------------
	                 NBF =   160, NAUX =   336
	 --------------------------------------------------------
	   CLASS    FOCC     OCC    AOCC    AVIR     VIR    FVIR
	   PAIRS       0       9       9     151     151       0
	 --------------------------------------------------------

	-----------------------------------------------------------
	 ==================> DF-MP2 Energies <==================== 
	-----------------------------------------------------------
	 Reference Energy          =    -199.3325378350603501 [Eh]
	 Singles Energy            =      -0.0000000000000000 [Eh]
	 Same-Spin Energy          =      -0.1791911921466914 [Eh]
	 Opposite-Spin Energy      =      -0.5675522937574595 [Eh]
	 Correlation Energy        =      -0.7467434859041508 [Eh]
	 Total Energy              =    -200.0792813209644976 [Eh]
	-----------------------------------------------------------
	 ================> DF-SCS-MP2 Energies <================== 
	-----------------------------------------------------------
	 SCS Same-Spin Scale       =       0.3333333333333333 [-]
	 SCS Opposite-Spin Scale   =       1.2000000000000000 [-]
	 SCS Same-Spin Energy      =      -0.0597303973822305 [Eh]
	 SCS Opposite-Spin Energy  =      -0.6810627525089514 [Eh]
	 SCS Correlation Energy    =      -0.7407931498911819 [Eh]
	 SCS Total Energy          =    -200.0733309849515251 [Eh]
	-----------------------------------------------------------



    B2PLYP-D3BJ Energy Summary
    --------------------------
    DFT Reference Energy                  =  -199.3325378350603501
    Scaled MP2 Correlation                =    -0.2016207411941207
    @Final double-hybrid DFT total energy =  -199.5341585762544696


*** tstop() called on bp1-compute00147.data.bp.acrc.priv at Mon Apr 19 15:35:30 2021
Module time:
	user time   =       9.14 seconds =       0.15 minutes
	system time =       0.39 seconds =       0.01 minutes
	total time  =          1 seconds =       0.02 minutes
Total time:
	user time   =     160.27 seconds =       2.67 minutes
	system time =       7.79 seconds =       0.13 minutes
	total time  =          8 seconds =       0.13 minutes

  //>>>>>>>>>>>>>>>>>>>>>>>>>>>>>>>>>>>//
  //    Loading displacement 2 of 3    //
  //<<<<<<<<<<<<<<<<<<<<<<<<<<<<<<<<<<<//

*** tstart() called on bp1-compute00147.data.bp.acrc.priv
*** at Mon Apr 19 15:35:30 2021

   => Loading Basis Set <=

    Name: AUG-CC-PV(Q+D)Z
    Role: ORBITAL
    Keyword: BASIS
    atoms 1-2 entry F          line   499 file /work/zw18965/.conda/envs/p4env/share/psi4/basis/aug-cc-pv_qpd_z.gbs 


         ---------------------------------------------------------
                                   SCF
               by Justin Turney, Rob Parrish, Andy Simmonett
                          and Daniel G. A. Smith
                              RKS Reference
                       24 Threads, 137329 MiB Core
         ---------------------------------------------------------

  ==> Geometry <==

    Molecular point group: d2h
    Full point group: D_inf_h

    Geometry (in Angstrom), charge = 0, multiplicity = 1:

       Center              X                  Y                   Z               Mass       
    ------------   -----------------  -----------------  -----------------  -----------------
         F            0.000000000000     0.000000000000    -0.698011731409    18.998403162730
         F            0.000000000000     0.000000000000     0.698011731409    18.998403162730

  Running in d2h symmetry.

  Rotational constants: A = ************  B =      0.91059  C =      0.91059 [cm^-1]
  Rotational constants: A = ************  B =  27298.86938  C =  27298.86938 [MHz]
  Nuclear repulsion =   30.703892309774933

  Charge       = 0
  Multiplicity = 1
  Electrons    = 18
  Nalpha       = 9
  Nbeta        = 9

  ==> Algorithm <==

  SCF Algorithm Type is DF.
  DIIS enabled.
  MOM disabled.
  Fractional occupation disabled.
  Guess Type is READ.
  Energy threshold   = 1.00e-08
  Density threshold  = 1.00e-08
  Integral threshold = 0.00e+00

  ==> Primary Basis <==

  Basis Set: AUG-CC-PV(Q+D)Z
    Blend: AUG-CC-PV(Q+D)Z
    Number of shells: 40
    Number of basis function: 160
    Number of Cartesian functions: 210
    Spherical Harmonics?: true
    Max angular momentum: 4

  ==> DFT Potential <==

   => Composite Functional: B2PLYP-D3BJ <= 

    B2PLYP Double Hybrid Exchange-Correlation Functional

    S. Grimme, J. Chem. Phys., 124, 034108, 2006


    Deriv               =              1
    GGA                 =           TRUE
    Meta                =          FALSE

    Exchange Hybrid     =           TRUE
    MP2 Hybrid          =           TRUE

   => Exchange Functionals <=

    0.4700     XC_GGA_X_B88

   => Exact (HF) Exchange <=

    0.5300               HF 

   => Correlation Functionals <=

    0.7300     XC_GGA_C_LYP

   => MP2 Correlation <=

    0.2700       MP2 

   => Molecular Quadrature <=

    Radial Scheme          =       TREUTLER
    Pruning Scheme         =           FLAT
    Nuclear Scheme         =       TREUTLER

    BS radius alpha        =              1
    Pruning alpha          =              1
    Radial Points          =             75
    Spherical Points       =            302
    Total Points           =          44826
    Total Blocks           =            410
    Max Points             =            256
    Max Functions          =            160

   => B2PLYP-D3(BJ): Empirical Dispersion <=

    Grimme's -D3 (BJ-damping) Dispersion Correction
    Grimme S.; Ehrlich S.; Goerigk L. (2011), J. Comput. Chem., 32: 1456
    Parametrisation from:    L. Goerigk, S. Grimme, Phys. Chem. Chem. Phys. 13, 6670-6688, 2011

        s6 =       0.640000
        s8 =       0.914700
        a1 =       0.306500
        a2 =       5.057000

   => Loading Basis Set <=

    Name: (AUG-CC-PV(Q+D)Z AUX)
    Role: JKFIT
    Keyword: DF_BASIS_SCF
    atoms 1-2 entry F          line   388 file /work/zw18965/.conda/envs/p4env/share/psi4/basis/aug-cc-pvqz-jkfit.gbs 

   => Loading Basis Set <=

    Name: AUG-CC-PV(Q+D)Z
    Role: ORBITAL
    Keyword: BASIS
    atoms 1-2 entry F          line   499 file /work/zw18965/.conda/envs/p4env/share/psi4/basis/aug-cc-pv_qpd_z.gbs 

  Reading orbitals from file 180, no projection.

  ==> Pre-Iterations <==

   -------------------------------------------------------
    Irrep   Nso     Nmo     Nalpha   Nbeta   Ndocc  Nsocc
   -------------------------------------------------------
     Ag        31      31       0       0       0       0
     B1g       11      11       0       0       0       0
     B2g       19      19       0       0       0       0
     B3g       19      19       0       0       0       0
     Au        11      11       0       0       0       0
     B1u       31      31       0       0       0       0
     B2u       19      19       0       0       0       0
     B3u       19      19       0       0       0       0
   -------------------------------------------------------
    Total     160     160       9       9       9       0
   -------------------------------------------------------

  ==> Integral Setup <==

  DFHelper Memory: AOs need 0.066 GiB; user supplied 100.405 GiB. Using in-core AOs.

  ==> MemDFJK: Density-Fitted J/K Matrices <==

    J tasked:                   Yes
    K tasked:                   Yes
    wK tasked:                   No
    OpenMP threads:              24
    Memory [MiB]:            102814
    Algorithm:                 Core
    Schwarz Cutoff:           1E-12
    Mask sparsity (%):       0.0000
    Fitting Condition:        1E-10

   => Auxiliary Basis Set <=

  Basis Set: (AUG-CC-PV(Q+D)Z AUX)
    Blend: AUG-CC-PVQZ-JKFIT
    Number of shells: 68
    Number of basis function: 284
    Number of Cartesian functions: 396
    Spherical Harmonics?: true
    Max angular momentum: 5

  Cached 100.0% of DFT collocation blocks in 0.178 [GiB].

  Minimum eigenvalue in the overlap matrix is 2.8190050081E-04.
  Using Symmetric Orthogonalization.

  SCF Guess: Orbitals guess was supplied from a previous computation.

  ==> Iterations <==

                           Total Energy        Delta E     RMS |[F,P]|

   @DF-RKS iter   0:  -199.33225179622391   -1.99332e+02   3.56225e-05 
   @DF-RKS iter   1:  -199.33249293623268   -2.41140e-04   7.65848e-06 DIIS
   @DF-RKS iter   2:  -199.33249297402440   -3.77917e-08   2.80107e-06 DIIS
   @DF-RKS iter   3:  -199.33249297986262   -5.83822e-09   1.82255e-07 DIIS
   @DF-RKS iter   4:  -199.33249297990565   -4.30305e-11   8.84107e-08 DIIS
   @DF-RKS iter   5:  -199.33249297991242   -6.76437e-12   9.18487e-09 DIIS
  Energy and wave function converged.


  ==> Post-Iterations <==

    Orbital Energies [Eh]
    ---------------------

    Doubly Occupied:                                                      

       1Ag   -25.478373     1B1u  -25.478237     2Ag    -1.534461  
       2B1u   -1.272227     3Ag    -0.675721     1B2u   -0.662576  
       1B3u   -0.662576     1B3g   -0.521567     1B2g   -0.521567  

    Virtual:                                                              

       3B1u   -0.055129     4B1u    0.095603     4Ag     0.101781  
       2B3u    0.125551     2B2u    0.125551     2B3g    0.179128  
       2B2g    0.179128     5Ag     0.182787     5B1u    0.319357  
       1B1g    0.488215     6Ag     0.488215     7Ag     0.625172  
       3B3u    0.640615     3B2u    0.640615     6B1u    0.667166  
       7B1u    0.683547     1Au     0.683547     3B3g    0.694495  
       3B2g    0.694495     4B3u    0.733145     4B2u    0.733145  
       8B1u    0.877937     8Ag     0.897985     4B3g    1.002777  
       4B2g    1.002777     9Ag     1.177785     5B3u    1.612597  
       5B2u    1.612597    10Ag     1.630992     2B1g    1.630993  
       6B3u    1.644884     6B2u    1.644884     9B1u    1.797962  
      11Ag     1.825952     3B1g    1.874051    12Ag     1.874053  
       5B2g    1.913093     5B3g    1.913093     2Au     1.922702  
      10B1u    1.922702     6B3g    1.962107     6B2g    1.962107  
      11B1u    2.178936     7B3u    2.245807     7B2u    2.245807  
      12B1u    2.360455     3Au     2.360458    13B1u    2.376915  
      13Ag     2.618291     7B2g    2.688556     7B3g    2.688556  
      14Ag     3.022562     8B3u    3.124613     8B2u    3.124613  
       8B2g    3.508262     8B3g    3.508262     9B2u    4.194008  
       9B3u    4.194008     4B1g    4.384914    15Ag     4.384929  
      16Ag     4.393252     5B1g    4.393253    17Ag     4.539797  
      10B2u    4.554921    10B3u    4.554921     4Au     4.627187  
      14B1u    4.627202    15B1u    4.763216    18Ag     4.942352  
       9B3g    5.107035     9B2g    5.107035    10B3g    5.123481  
      10B2g    5.123481    11B3u    5.163993    11B2u    5.163993  
      16B1u    5.242150    17B1u    5.308666     5Au     5.308680  
      11B2g    5.310217    11B3g    5.310217    19Ag     5.323136  
       6B1g    5.323138    12B3u    5.328748    12B2u    5.328748  
      20Ag     5.366620    21Ag     5.378044     7B1g    5.378055  
      18B1u    5.536104     6Au     5.536108    19B1u    5.561439  
      20B1u    5.783071    12B2g    5.966460    12B3g    5.966460  
      21B1u    6.263317     7Au     6.263319    13B2u    6.321592  
      13B3u    6.321592    22Ag     7.271550    13B2g    7.276473  
      13B3g    7.276473    22B1u    7.779337    14B3u   12.440346  
      14B2u   12.440346    23Ag    12.649916    14B2g   13.076044  
      14B3g   13.076044    15B2u   13.178393    15B3u   13.178393  
       8B1g   13.214087    24Ag    13.214355     8Au    13.312009  
      23B1u   13.312283    25Ag    13.447145     9B1g   13.447156  
      15B3g   13.459578    15B2g   13.459578    26Ag    13.554079  
      16B3u   13.581719    16B2u   13.581719    24B1u   13.671854  
       9Au    13.671870    16B2g   13.776491    16B3g   13.776491  
      25B1u   14.013064    26B1u   14.741004    10B1g   15.264029  
      27Ag    15.264043    17B3u   15.318096    17B2u   15.318096  
      18B2u   15.369393    18B3u   15.369393    17B2g   15.412733  
      17B3g   15.412733    10Au    15.615725    27B1u   15.615741  
      28Ag    15.716609    28B1u   15.853690    29Ag    16.172417  
      11B1g   16.172493    29B1u   16.302666    11Au    16.302736  
      18B3g   16.444039    18B2g   16.444039    19B2u   16.462710  
      19B3u   16.462710    19B2g   16.741915    19B3g   16.741915  
      30Ag    17.704801    30B1u   17.789851    31Ag    52.817138  
      31B1u   54.766435  

    Final Occupation by Irrep:
             Ag   B1g   B2g   B3g    Au   B1u   B2u   B3u 
    DOCC [     3,    0,    1,    1,    0,    2,    1,    1 ]

  @DF-RKS Final Energy:  -199.33249297991242

   => Energetics <=

    Nuclear Repulsion Energy =             30.7038923097749326
    One-Electron Energy =                -339.3128629956358395
    Two-Electron Energy =                 119.2157561266468804
    DFT Exchange-Correlation Energy =      -9.9391630906983703
    Empirical Dispersion Energy =          -0.0001153300000000
    VV10 Nonlocal Energy =                  0.0000000000000000
    Total Energy =                       -199.3324929799124163

Computation Completed


Properties will be evaluated at   0.000000,   0.000000,   0.000000 [a0]

Properties computed using the SCF density matrix

  Nuclear Dipole Moment: [e a0]
     X:     0.0000      Y:     0.0000      Z:    -0.0000

  Electronic Dipole Moment: [e a0]
     X:     0.0000      Y:     0.0000      Z:     0.0000

  Dipole Moment: [e a0]
     X:     0.0000      Y:     0.0000      Z:    -0.0000     Total:     0.0000

  Dipole Moment: [D]
     X:     0.0000      Y:     0.0000      Z:    -0.0000     Total:     0.0000


*** tstop() called on bp1-compute00147.data.bp.acrc.priv at Mon Apr 19 15:35:31 2021
Module time:
	user time   =      23.35 seconds =       0.39 minutes
	system time =       1.22 seconds =       0.02 minutes
	total time  =          1 seconds =       0.02 minutes
Total time:
[...]

    Exchange Hybrid     =           TRUE
    MP2 Hybrid          =           TRUE

   => Exchange Functionals <=

    0.4700     XC_GGA_X_B88

   => Exact (HF) Exchange <=

    0.5300               HF 

   => Correlation Functionals <=

    0.7300     XC_GGA_C_LYP

   => MP2 Correlation <=

    0.2700       MP2 

   => Molecular Quadrature <=

    Radial Scheme          =       TREUTLER
    Pruning Scheme         =           FLAT
    Nuclear Scheme         =       TREUTLER

    BS radius alpha        =              1
    Pruning alpha          =              1
    Radial Points          =             75
    Spherical Points       =            302
    Total Points           =          44826
    Total Blocks           =            410
    Max Points             =            256
    Max Functions          =            160

   => B2PLYP-D3(BJ): Empirical Dispersion <=

    Grimme's -D3 (BJ-damping) Dispersion Correction
    Grimme S.; Ehrlich S.; Goerigk L. (2011), J. Comput. Chem., 32: 1456
    Parametrisation from:    L. Goerigk, S. Grimme, Phys. Chem. Chem. Phys. 13, 6670-6688, 2011

        s6 =       0.640000
        s8 =       0.914700
        a1 =       0.306500
        a2 =       5.057000

   => Loading Basis Set <=

    Name: (AUG-CC-PV(Q+D)Z AUX)
    Role: JKFIT
    Keyword: DF_BASIS_SCF
    atoms 1-2 entry F          line   388 file /work/zw18965/.conda/envs/p4env/share/psi4/basis/aug-cc-pvqz-jkfit.gbs 

  ==> Pre-Iterations <==

   -------------------------------------------------------
    Irrep   Nso     Nmo     Nalpha   Nbeta   Ndocc  Nsocc
   -------------------------------------------------------
     Ag        31      31       0       0       0       0
     B1g       11      11       0       0       0       0
     B2g       19      19       0       0       0       0
     B3g       19      19       0       0       0       0
     Au        11      11       0       0       0       0
     B1u       31      31       0       0       0       0
     B2u       19      19       0       0       0       0
     B3u       19      19       0       0       0       0
   -------------------------------------------------------
    Total     160     160       9       9       9       0
   -------------------------------------------------------

  ==> Integral Setup <==

  DFHelper Memory: AOs need 0.066 GiB; user supplied 100.405 GiB. Using in-core AOs.

  ==> MemDFJK: Density-Fitted J/K Matrices <==

    J tasked:                   Yes
    K tasked:                   Yes
    wK tasked:                   No
    OpenMP threads:              24
    Memory [MiB]:            102814
    Algorithm:                 Core
    Schwarz Cutoff:           1E-12
    Mask sparsity (%):       0.0000
    Fitting Condition:        1E-10

   => Auxiliary Basis Set <=

  Basis Set: (AUG-CC-PV(Q+D)Z AUX)
    Blend: AUG-CC-PVQZ-JKFIT
    Number of shells: 68
    Number of basis function: 284
    Number of Cartesian functions: 396
    Spherical Harmonics?: true
    Max angular momentum: 5

  Cached 100.0% of DFT collocation blocks in 0.178 [GiB].

  Minimum eigenvalue in the overlap matrix is 2.8338372010E-04.
  Using Symmetric Orthogonalization.

  SCF Guess: Superposition of Atomic Densities via on-the-fly atomic UHF.

  ==> Iterations <==

                           Total Energy        Delta E     RMS |[F,P]|

   @DF-RKS iter SAD:  -198.91012459772446   -1.98910e+02   0.00000e+00 
   @DF-RKS iter   1:  -199.31933624141641   -4.09212e-01   3.85539e-03 DIIS
   @DF-RKS iter   2:  -199.33073722037946   -1.14010e-02   1.52852e-03 DIIS
   @DF-RKS iter   3:  -199.33235412917381   -1.61691e-03   1.55911e-04 DIIS
   @DF-RKS iter   4:  -199.33237700733426   -2.28782e-05   8.85905e-05 DIIS
   @DF-RKS iter   5:  -199.33238377944701   -6.77211e-06   8.15615e-06 DIIS
   @DF-RKS iter   6:  -199.33238383826301   -5.88160e-08   7.46332e-07 DIIS
   @DF-RKS iter   7:  -199.33238383870315   -4.40139e-10   2.54439e-08 DIIS
   @DF-RKS iter   8:  -199.33238383870398   -8.24230e-13   1.34916e-09 DIIS
   @DF-RKS iter   9:  -199.33238383870392    5.68434e-14   1.24291e-10 DIIS
   @DF-RKS iter  10:  -199.33238383870400   -8.52651e-14   6.58536e-12 DIIS
  Energy and wave function converged.


  ==> Post-Iterations <==

    Orbital Energies [Eh]
    ---------------------

    Doubly Occupied:                                                      

       1Ag   -25.478523     1B1u  -25.478387     2Ag    -1.533450  
       2B1u   -1.272757     3Ag    -0.675169     1B3u   -0.662164  
       1B2u   -0.662164     1B2g   -0.521935     1B3g   -0.521935  

    Virtual:                                                              

       3B1u   -0.056517     4B1u    0.095469     4Ag     0.101773  
       2B3u    0.125560     2B2u    0.125560     2B3g    0.179110  
       2B2g    0.179110     5Ag     0.182814     5B1u    0.319280  
       1B1g    0.488237     6Ag     0.488237     7Ag     0.625489  
       3B3u    0.640285     3B2u    0.640285     6B1u    0.666864  
       7B1u    0.683389     1Au     0.683390     3B3g    0.694573  
       3B2g    0.694573     4B2u    0.733112     4B3u    0.733112  
       8B1u    0.878129     8Ag     0.898458     4B3g    1.002828  
       4B2g    1.002828     9Ag     1.177216     5B2u    1.612794  
       5B3u    1.612794    10Ag     1.630964     2B1g    1.630964  
       6B3u    1.644605     6B2u    1.644605     9B1u    1.797107  
      11Ag     1.825348     3B1g    1.873659    12Ag     1.873661  
       5B3g    1.912616     5B2g    1.912616     2Au     1.922702  
      10B1u    1.922702     6B3g    1.961658     6B2g    1.961658  
      11B1u    2.178490     7B2u    2.244934     7B3u    2.244934  
      12B1u    2.359184     3Au     2.359188    13B1u    2.377403  
      13Ag     2.615052     7B3g    2.690037     7B2g    2.690037  
      14Ag     3.024741     8B3u    3.124534     8B2u    3.124534  
       8B3g    3.504438     8B2g    3.504438     9B2u    4.193942  
       9B3u    4.193942     4B1g    4.385668    15Ag     4.385684  
      16Ag     4.391437     5B1g    4.391437    17Ag     4.539170  
      10B2u    4.554552    10B3u    4.554552     4Au     4.626437  
      14B1u    4.626453    15B1u    4.758493    18Ag     4.939595  
       9B2g    5.106343     9B3g    5.106343    10B2g    5.120672  
      10B3g    5.120672    11B2u    5.164263    11B3u    5.164263  
      16B1u    5.241347    17B1u    5.309238     5Au     5.309252  
      11B3g    5.310051    11B2g    5.310051    19Ag     5.322126  
       6B1g    5.322128    12B3u    5.329506    12B2u    5.329506  
      20Ag     5.364977    21Ag     5.378058     7B1g    5.378069  
      18B1u    5.534738     6Au     5.534742    19B1u    5.561772  
      20B1u    5.783301    12B3g    5.965250    12B2g    5.965250  
      21B1u    6.258190     7Au     6.258193    13B3u    6.316224  
      13B2u    6.316224    13B2g    7.273516    13B3g    7.273516  
      22Ag     7.275283    22B1u    7.767928    14B3u   12.440206  
      14B2u   12.440206    23Ag    12.646746    14B2g   13.068838  
      14B3g   13.068838    15B3u   13.177850    15B2u   13.177850  
       8B1g   13.214298    24Ag    13.214567     8Au    13.311787  
      23B1u   13.312062    25Ag    13.447198     9B1g   13.447209  
      15B2g   13.459093    15B3g   13.459093    26Ag    13.552940  
      16B2u   13.589022    16B3u   13.589022    24B1u   13.670604  
       9Au    13.670619    16B2g   13.771890    16B3g   13.771890  
      25B1u   14.007479    26B1u   14.737234    10B1g   15.264245  
      27Ag    15.264258    17B3u   15.318281    17B2u   15.318281  
      18B2u   15.366966    18B3u   15.366966    17B2g   15.412437  
      17B3g   15.412437    10Au    15.613917    27B1u   15.613932  
      28Ag    15.710621    28B1u   15.865732    29Ag    16.172301  
      11B1g   16.172376    29B1u   16.302119    11Au    16.302189  
      18B3g   16.436224    18B2g   16.436224    19B3u   16.460595  
      19B2u   16.460595    19B2g   16.744171    19B3g   16.744171  
      30Ag    17.703624    30B1u   17.772817    31Ag    52.819348  
      31B1u   54.748079  

    Final Occupation by Irrep:
             Ag   B1g   B2g   B3g    Au   B1u   B2u   B3u 
    DOCC [     3,    0,    1,    1,    0,    2,    1,    1 ]

  @DF-RKS Final Energy:  -199.33238383870400

   => Energetics <=

    Nuclear Repulsion Energy =             30.6596798010715474
    One-Electron Energy =                -339.2261984876448651
    Two-Electron Energy =                 119.1729014712094852
    DFT Exchange-Correlation Energy =      -9.9386512933401701
    Empirical Dispersion Energy =          -0.0001153300000000
    VV10 Nonlocal Energy =                  0.0000000000000000
    Total Energy =                       -199.3323838387040041

Computation Completed


Properties will be evaluated at   0.000000,   0.000000,   0.000000 [a0]

Properties computed using the SCF density matrix

  Nuclear Dipole Moment: [e a0]
     X:     0.0000      Y:     0.0000      Z:     0.0000

  Electronic Dipole Moment: [e a0]
     X:     0.0000      Y:     0.0000      Z:     0.0000

  Dipole Moment: [e a0]
     X:     0.0000      Y:     0.0000      Z:     0.0000     Total:     0.0000

  Dipole Moment: [D]
     X:     0.0000      Y:     0.0000      Z:     0.0000     Total:     0.0000


*** tstop() called on bp1-compute00147.data.bp.acrc.priv at Mon Apr 19 15:35:52 2021
Module time:
	user time   =      33.82 seconds =       0.56 minutes
	system time =       1.28 seconds =       0.02 minutes
	total time  =          2 seconds =       0.03 minutes
Total time:
	user time   =     574.99 seconds =       9.58 minutes
	system time =      25.65 seconds =       0.43 minutes
	total time  =         30 seconds =       0.50 minutes

*** tstart() called on bp1-compute00147.data.bp.acrc.priv
*** at Mon Apr 19 15:35:52 2021

   => Loading Basis Set <=

    Name: (AUG-CC-PV(Q+D)Z AUX)
    Role: RIFIT
    Keyword: DF_BASIS_MP2
    atoms 1-2 entry F          line   406 file /work/zw18965/.conda/envs/p4env/share/psi4/basis/aug-cc-pvqz-ri.gbs 

	 --------------------------------------------------------
	                          DF-MP2                         
	      2nd-Order Density-Fitted Moller-Plesset Theory     
	              RMP2 Wavefunction,  24 Threads             
	                                                         
	        Rob Parrish, Justin Turney, Andy Simmonett,      
	           Ed Hohenstein, and C. David Sherrill          
	 --------------------------------------------------------

   => Auxiliary Basis Set <=

  Basis Set: (AUG-CC-PV(Q+D)Z AUX)
    Blend: AUG-CC-PVQZ-RI
    Number of shells: 72
    Number of basis function: 336
    Number of Cartesian functions: 474
    Spherical Harmonics?: true
    Max angular momentum: 5

	 --------------------------------------------------------
	                 NBF =   160, NAUX =   336
	 --------------------------------------------------------
	   CLASS    FOCC     OCC    AOCC    AVIR     VIR    FVIR
	   PAIRS       0       9       9     151     151       0
	 --------------------------------------------------------

	-----------------------------------------------------------
	 ==================> DF-MP2 Energies <==================== 
	-----------------------------------------------------------
	 Reference Energy          =    -199.3323838387040041 [Eh]
	 Singles Energy            =      -0.0000000000000000 [Eh]
	 Same-Spin Energy          =      -0.1792642185979723 [Eh]
	 Opposite-Spin Energy      =      -0.5680854302255262 [Eh]
	 Correlation Energy        =      -0.7473496488234984 [Eh]
	 Total Energy              =    -200.0797334875275055 [Eh]
	-----------------------------------------------------------
	 ================> DF-SCS-MP2 Energies <================== 
	-----------------------------------------------------------
	 SCS Same-Spin Scale       =       0.3333333333333333 [-]
	 SCS Opposite-Spin Scale   =       1.2000000000000000 [-]
	 SCS Same-Spin Energy      =      -0.0597547395326574 [Eh]
	 SCS Opposite-Spin Energy  =      -0.6817025162706314 [Eh]
	 SCS Correlation Energy    =      -0.7414572558032888 [Eh]
	 SCS Total Energy          =    -200.0738410945072872 [Eh]
	-----------------------------------------------------------



    B2PLYP-D3BJ Energy Summary
    --------------------------
    DFT Reference Energy                  =  -199.3323838387040041
    Scaled MP2 Correlation                =    -0.2017844051823446
    @Final double-hybrid DFT total energy =  -199.5341682438863415


*** tstop() called on bp1-compute00147.data.bp.acrc.priv at Mon Apr 19 15:35:52 2021
Module time:
	user time   =       9.56 seconds =       0.16 minutes
	system time =       0.34 seconds =       0.01 minutes
	total time  =          0 seconds =       0.00 minutes
Total time:
	user time   =     584.56 seconds =       9.74 minutes
	system time =      25.99 seconds =       0.43 minutes
	total time  =         30 seconds =       0.50 minutes

         ----------------------------------------------------------
                                   FINDIF
                     R. A. King and Jonathon Misiewicz
         ---------------------------------------------------------

  Computing second-derivative from energies using projected, 
  symmetry-adapted, cartesian coordinates.

  3 energies passed in, including the reference geometry.
    Using 3-point formula.
    Energy without displacement: -199.5341690007
    Check energies below for precision!
    0: -1 :      -199.5341687850
    0: 1  :      -199.5341682439

-------------------------------------------------------------


  ==> Harmonic Vibrational Analysis <==

  non-mass-weighted Hessian:       Symmetric? True   Hermitian? True   Lin Dep Dim?  5 (0)
  projection of translations (True) and rotations (True) removed 5 degrees of freedom (5)
  total projector:                 Symmetric? True   Hermitian? True   Lin Dep Dim?  5 (5)
  mass-weighted Hessian:           Symmetric? True   Hermitian? True   Lin Dep Dim?  5 (0)
  pre-proj  low-frequency mode:    0.0000  [cm^-1]
  pre-proj  low-frequency mode:    0.0000  [cm^-1]
  pre-proj  low-frequency mode:    0.0000  [cm^-1]
  pre-proj  low-frequency mode:    0.0000  [cm^-1]
  pre-proj  low-frequency mode:    0.0000  [cm^-1]
  pre-proj  all modes:['0.0000' '0.0000' '0.0000' '0.0000' '0.0000' '1013.8408']
  projected mass-weighted Hessian: Symmetric? True   Hermitian? True   Lin Dep Dim?  5 (5)
  post-proj low-frequency mode:    0.0000  [cm^-1] (TR)
  post-proj low-frequency mode:    0.0000  [cm^-1] (TR)
  post-proj low-frequency mode:    0.0000  [cm^-1] (TR)
  post-proj low-frequency mode:    0.0000  [cm^-1] (TR)
  post-proj low-frequency mode:    0.0000  [cm^-1] (TR)
  post-proj  all modes:['0.0000' '0.0000' '0.0000' '0.0000' '0.0000' '1013.8408']

  Vibration                       6           
  Freq [cm^-1]                1013.8408       
  Irrep                           Ag          
  Reduced mass [u]             18.9984        
  Force const [mDyne/A]        11.5055        
  Turning point v=0 [a0]        0.0791        
  RMS dev v=0 [a0 u^1/2]        0.2437        
  Char temp [K]               1458.6911       
  ----------------------------------------------------------------------------------
      1   F                0.00  0.00  0.71   
      2   F                0.00  0.00 -0.71   

  ==> Thermochemistry Components <==

  Entropy, S
    Electronic S            0.000 [cal/(mol K)]        0.000 [J/(mol K)]       0.00000000 [mEh/K] (multiplicity = 1)
    Translational S        36.834 [cal/(mol K)]      154.112 [J/(mol K)]       0.05869802 [mEh/K] (mol. weight = 37.9968 [u], P = 101325.00 [Pa])
    Rotational S           11.403 [cal/(mol K)]       47.712 [J/(mol K)]       0.01817251 [mEh/K] (symmetry no. = 2)
    Vibrational S           0.088 [cal/(mol K)]        0.370 [J/(mol K)]       0.00014097 [mEh/K]
  Total S                  48.325 [cal/(mol K)]      202.194 [J/(mol K)]       0.07701150 [mEh/K]
  Correction S              0.000 [cal/(mol K)]        0.000 [J/(mol K)]       0.00000000 [mEh/K]

  Constant volume heat capacity, Cv
    Electronic Cv           0.000 [cal/(mol K)]        0.000 [J/(mol K)]       0.00000000 [mEh/K]
    Translational Cv        2.981 [cal/(mol K)]       12.472 [J/(mol K)]       0.00475022 [mEh/K]
    Rotational Cv           1.987 [cal/(mol K)]        8.314 [J/(mol K)]       0.00316681 [mEh/K]
    Vibrational Cv          0.362 [cal/(mol K)]        1.516 [J/(mol K)]       0.00057736 [mEh/K]
  Total Cv                  5.330 [cal/(mol K)]       22.302 [J/(mol K)]       0.00849439 [mEh/K]
  Correction Cv             0.000 [cal/(mol K)]        0.000 [J/(mol K)]       0.00000000 [mEh/K]

  Constant pressure heat capacity, Cp
    Electronic Cp           0.000 [cal/(mol K)]        0.000 [J/(mol K)]       0.00000000 [mEh/K]
    Translational Cp        4.968 [cal/(mol K)]       20.786 [J/(mol K)]       0.00791703 [mEh/K]
    Rotational Cp           1.987 [cal/(mol K)]        8.314 [J/(mol K)]       0.00316681 [mEh/K]
    Vibrational Cp          0.362 [cal/(mol K)]        1.516 [J/(mol K)]       0.00057736 [mEh/K]
  Total Cp                  7.318 [cal/(mol K)]       30.616 [J/(mol K)]       0.01166120 [mEh/K]
  Correction Cp             0.000 [cal/(mol K)]        0.000 [J/(mol K)]       0.00000000 [mEh/K]

  ==> Thermochemistry Energy Analysis <==

  Raw electronic energy, E0
  Total E0, Electronic energy at well bottom at 0 [K]                 -199.53416900 [Eh]

  Zero-point energy, ZPE_vib = Sum_i nu_i / 2
    Electronic ZPE          0.000 [kcal/mol]        0.000 [kJ/mol]       0.00000000 [Eh]
    Translational ZPE       0.000 [kcal/mol]        0.000 [kJ/mol]       0.00000000 [Eh]
    Rotational ZPE          0.000 [kcal/mol]        0.000 [kJ/mol]       0.00000000 [Eh]
    Vibrational ZPE         1.449 [kcal/mol]        6.064 [kJ/mol]       0.00230970 [Eh]         506.920 [cm^-1]
  Correction ZPE            1.449 [kcal/mol]        6.064 [kJ/mol]       0.00230970 [Eh]         506.920 [cm^-1]
  Total ZPE, Electronic energy at 0 [K]                               -199.53185930 [Eh]

  Thermal Energy, E (includes ZPE)
    Electronic E            0.000 [kcal/mol]        0.000 [kJ/mol]       0.00000000 [Eh]
    Translational E         0.889 [kcal/mol]        3.718 [kJ/mol]       0.00141628 [Eh]
    Rotational E            0.592 [kcal/mol]        2.479 [kJ/mol]       0.00094418 [Eh]
    Vibrational E           1.471 [kcal/mol]        6.156 [kJ/mol]       0.00234462 [Eh]
  Correction E              2.952 [kcal/mol]       12.353 [kJ/mol]       0.00470508 [Eh]
  Total E, Electronic energy at  298.15 [K]                           -199.52946392 [Eh]

  Enthalpy, H_trans = E_trans + k_B * T
    Electronic H            0.000 [kcal/mol]        0.000 [kJ/mol]       0.00000000 [Eh]
    Translational H         1.481 [kcal/mol]        6.197 [kJ/mol]       0.00236046 [Eh]
    Rotational H            0.592 [kcal/mol]        2.479 [kJ/mol]       0.00094418 [Eh]
    Vibrational H           1.471 [kcal/mol]        6.156 [kJ/mol]       0.00234462 [Eh]
  Correction H              3.545 [kcal/mol]       14.832 [kJ/mol]       0.00564927 [Eh]
  Total H, Enthalpy at  298.15 [K]                                    -199.52851973 [Eh]

  Gibbs free energy, G = H - T * S
    Electronic G            0.000 [kcal/mol]        0.000 [kJ/mol]       0.00000000 [Eh]
    Translational G        -9.501 [kcal/mol]      -39.751 [kJ/mol]      -0.01514035 [Eh]
    Rotational G           -2.807 [kcal/mol]      -11.746 [kJ/mol]      -0.00447395 [Eh]
    Vibrational G           1.445 [kcal/mol]        6.045 [kJ/mol]       0.00230259 [Eh]
  Correction G            -10.863 [kcal/mol]      -45.452 [kJ/mol]      -0.01731171 [Eh]
  Total G, Free enthalpy at  298.15 [K]                               -199.55148071 [Eh]

    Psi4 stopped on: Monday, 19 April 2021 03:35PM
    Psi4 wall time for execution: 0:00:31.07

*** Psi4 exiting successfully. Buy a developer a beer!
