
    -----------------------------------------------------------------------
          Psi4: An Open-Source Ab Initio Electronic Structure Package
                               Psi4 1.3.2 release

                         Git: Rev {HEAD} ecbda83 


    R. M. Parrish, L. A. Burns, D. G. A. Smith, A. C. Simmonett,
    A. E. DePrince III, E. G. Hohenstein, U. Bozkaya, A. Yu. Sokolov,
    R. Di Remigio, R. M. Richard, J. F. Gonthier, A. M. James,
    H. R. McAlexander, A. Kumar, M. Saitow, X. Wang, B. P. Pritchard,
    P. Verma, H. F. Schaefer III, K. Patkowski, R. A. King, E. F. Valeev,
    F. A. Evangelista, J. M. Turney, T. D. Crawford, and C. D. Sherrill,
    J. Chem. Theory Comput. 13(7) pp 3185--3197 (2017).
    (doi: 10.1021/acs.jctc.7b00174)


                         Additional Contributions by
    P. Kraus, H. Kruse, M. H. Lechner, M. C. Schieber, R. A. Shaw,
    A. Alenaizan, R. Galvelis, Z. L. Glick, S. Lehtola, and J. P. Misiewicz

    -----------------------------------------------------------------------


    Psi4 started on: Monday, 19 April 2021 03:05PM

    Process ID: 23533
    Host:       bp1-login01.data.bp.acrc.priv
    PSIDATADIR: /work/zw18965/.conda/envs/p4env/share/psi4
    Memory:     500.0 MiB
    Threads:    12
    
  ==> Input File <==

--------------------------------------------------------------------------
memory 144 GB

molecule {
0 1
F     0.463464000728   0.000000000000   0.000000000000
H    -0.463464000728   0.000000000000   0.000000000000}

set basis aug-cc-pV(Q+d)Z
 
optimize("B2PLYP-D3BJ")
frequencies("B2PLYP-D3BJ")--------------------------------------------------------------------------

  Memory set to 134.110 GiB by Python driver.
gradient() will perform gradient computation by finite difference of analytic energies.

         ----------------------------------------------------------
                                   FINDIF
                     R. A. King and Jonathon Misiewicz
         ---------------------------------------------------------

  Using finite-differences of energies to determine gradients.
    Generating geometries for use with 3-point formula.
    Displacement size will be 5.00e-03.
    Number of atoms is 2.
    Number of symmetric SALCs is 1.
    Translations projected? 1. Rotations projected? 1.
    Number of geometries (including reference) is 3.

  //>>>>>>>>>>>>>>>>>>>>>>>>>>>>>>>>>>>//
  //    Loading displacement 1 of 3    //
  //<<<<<<<<<<<<<<<<<<<<<<<<<<<<<<<<<<<//

*** tstart() called on bp1-login01.data.bp.acrc.priv
*** at Mon Apr 19 15:05:14 2021

   => Loading Basis Set <=

    Name: AUG-CC-PV(Q+D)Z
    Role: ORBITAL
    Keyword: BASIS
    atoms 1 entry F          line   499 file /work/zw18965/.conda/envs/p4env/share/psi4/basis/aug-cc-pv_qpd_z.gbs 
    atoms 2 entry H          line    56 file /work/zw18965/.conda/envs/p4env/share/psi4/basis/aug-cc-pv_qpd_z.gbs 


         ---------------------------------------------------------
                                   SCF
               by Justin Turney, Rob Parrish, Andy Simmonett
                          and Daniel G. A. Smith
                              RKS Reference
                       12 Threads, 137329 MiB Core
         ---------------------------------------------------------

  ==> Geometry <==

    Molecular point group: c2v
    Full point group: C_inf_v

    Geometry (in Angstrom), charge = 0, multiplicity = 1:

       Center              X                  Y                   Z               Mass       
    ------------   -----------------  -----------------  -----------------  -----------------
         F            0.000000000000     0.000000000000     0.046694521018    18.998403162730
         H            0.000000000000     0.000000000000    -0.880233480438     1.007825032230

  Running in c2v symmetry.

  Rotational constants: A = ************  B =     20.50064  C =     20.50064 [cm^-1]
  Rotational constants: A = ************  B = 614593.79748  C = 614593.79748 [MHz]
  Nuclear repulsion =    5.138041885183113

  Charge       = 0
  Multiplicity = 1
  Electrons    = 10
  Nalpha       = 5
  Nbeta        = 5

  ==> Algorithm <==

  SCF Algorithm Type is DF.
  DIIS enabled.
  MOM disabled.
  Fractional occupation disabled.
  Guess Type is SAD.
  Energy threshold   = 1.00e-08
  Density threshold  = 1.00e-08
  Integral threshold = 0.00e+00

  ==> Primary Basis <==

  Basis Set: AUG-CC-PV(Q+D)Z
    Blend: AUG-CC-PV(Q+D)Z
    Number of shells: 34
    Number of basis function: 126
    Number of Cartesian functions: 160
    Spherical Harmonics?: true
    Max angular momentum: 4

  ==> DFT Potential <==

   => Composite Functional: B2PLYP-D3BJ <= 

    B2PLYP Double Hybrid Exchange-Correlation Functional

    S. Grimme, J. Chem. Phys., 124, 034108, 2006


    Deriv               =              1
    GGA                 =           TRUE
    Meta                =          FALSE

    Exchange Hybrid     =           TRUE
    MP2 Hybrid          =           TRUE

   => Exchange Functionals <=

    0.4700     XC_GGA_X_B88

   => Exact (HF) Exchange <=

    0.5300               HF 

   => Correlation Functionals <=

    0.7300     XC_GGA_C_LYP

   => MP2 Correlation <=

    0.2700       MP2 

   => Molecular Quadrature <=

    Radial Scheme          =       TREUTLER
    Pruning Scheme         =           FLAT
    Nuclear Scheme         =       TREUTLER

    BS radius alpha        =              1
    Pruning alpha          =              1
    Radial Points          =             75
    Spherical Points       =            302
    Total Points           =          45300
    Total Blocks           =            415
    Max Points             =            254
    Max Functions          =            126

   => B2PLYP-D3(BJ): Empirical Dispersion <=

    Grimme's -D3 (BJ-damping) Dispersion Correction
    Grimme S.; Ehrlich S.; Goerigk L. (2011), J. Comput. Chem., 32: 1456
    Parametrisation from:    L. Goerigk, S. Grimme, Phys. Chem. Chem. Phys. 13, 6670-6688, 2011

        s6 =       0.640000
        s8 =       0.914700
        a1 =       0.306500
        a2 =       5.057000

   => Loading Basis Set <=

    Name: (AUG-CC-PV(Q+D)Z AUX)
    Role: JKFIT
    Keyword: DF_BASIS_SCF
    atoms 1 entry F          line   388 file /work/zw18965/.conda/envs/p4env/share/psi4/basis/aug-cc-pvqz-jkfit.gbs 
    atoms 2 entry H          line    70 file /work/zw18965/.conda/envs/p4env/share/psi4/basis/aug-cc-pvqz-jkfit.gbs 

  ==> Pre-Iterations <==

   -------------------------------------------------------
    Irrep   Nso     Nmo     Nalpha   Nbeta   Ndocc  Nsocc
   -------------------------------------------------------
     A1        50      50       0       0       0       0
     A2        16      16       0       0       0       0
     B1        30      30       0       0       0       0
     B2        30      30       0       0       0       0
   -------------------------------------------------------
    Total     126     126       5       5       5       0
   -------------------------------------------------------

  ==> Integral Setup <==

  DFHelper Memory: AOs need 0.031 GiB; user supplied 100.431 GiB. Using in-core AOs.

  ==> MemDFJK: Density-Fitted J/K Matrices <==

    J tasked:                   Yes
    K tasked:                   Yes
    wK tasked:                   No
    OpenMP threads:              12
    Memory [MiB]:            102841
    Algorithm:                 Core
    Schwarz Cutoff:           1E-12
    Mask sparsity (%):       0.0000
    Fitting Condition:        1E-10

   => Auxiliary Basis Set <=

  Basis Set: (AUG-CC-PV(Q+D)Z AUX)
    Blend: AUG-CC-PVQZ-JKFIT
    Number of shells: 52
    Number of basis function: 218
    Number of Cartesian functions: 299
    Spherical Harmonics?: true
    Max angular momentum: 5

  Cached 100.0% of DFT collocation blocks in 0.152 [GiB].

  Minimum eigenvalue in the overlap matrix is 1.1850591798E-04.
  Using Symmetric Orthogonalization.

  SCF Guess: Superposition of Atomic Densities via on-the-fly atomic UHF.

  ==> Iterations <==

                           Total Energy        Delta E     RMS |[F,P]|

   @DF-RKS iter SAD:  -100.01392102628940   -1.00014e+02   0.00000e+00 
   @DF-RKS iter   1:  -100.30676622517987   -2.92845e-01   5.86384e-03 DIIS
   @DF-RKS iter   2:  -100.29852598902855    8.24024e-03   6.90500e-03 DIIS
   @DF-RKS iter   3:  -100.35636381260340   -5.78378e-02   1.69583e-04 DIIS
   @DF-RKS iter   4:  -100.35641292725786   -4.91147e-05   4.17546e-05 DIIS
   @DF-RKS iter   5:  -100.35641605718486   -3.12993e-06   5.60268e-06 DIIS
   @DF-RKS iter   6:  -100.35641617965939   -1.22475e-07   9.70599e-07 DIIS
   @DF-RKS iter   7:  -100.35641618316366   -3.50427e-09   7.40066e-08 DIIS
   @DF-RKS iter   8:  -100.35641618318529   -2.16289e-11   8.40137e-09 DIIS
  Energy and wave function converged.


  ==> Post-Iterations <==

    Orbital Energies [Eh]
    ---------------------

    Doubly Occupied:                                                      

       1A1   -25.355769     2A1    -1.368635     3A1    -0.643790  
       1B2    -0.516838     1B1    -0.516838  

    Virtual:                                                              

       4A1     0.000447     5A1     0.085148     2B2     0.132704  
       2B1     0.132704     6A1     0.134106     3B2     0.193428  
       3B1     0.193428     7A1     0.206086     8A1     0.303619  
       9A1     0.491135    10A1     0.506055     1A2     0.506055  
       4B2     0.543780     4B1     0.543780    11A1     0.615745  
      12A1     0.688262     5B2     0.700584     5B1     0.700584  
      13A1     0.702583     2A2     0.702583     6B2     0.754009  
       6B1     0.754009    14A1     0.848683     7B2     1.156549  
       7B1     1.156549    15A1     1.343950     8B1     1.426028  
       8B2     1.426028    16A1     1.428426    17A1     1.571479  
      18A1     1.623400     3A2     1.623400     9B2     1.703914  
       9B1     1.703914     4A2     1.891342    19A1     1.891342  
      10B2     1.935407    10B1     1.935407    11B2     1.979785  
      11B1     1.979785    20A1     1.984157    21A1     2.027392  
       5A2     2.027392    22A1     2.077540    12B2     2.380343  
      12B1     2.380343    23A1     2.678895    13B2     2.691795  
      13B1     2.691795    24A1     2.977305    14B2     3.043202  
      14B1     3.043202     6A2     3.061614    25A1     3.061614  
      26A1     3.681584    15B2     4.404759    15B1     4.404759  
      27A1     4.414161    28A1     4.545361     7A2     4.545361  
      16B2     4.700728    16B1     4.700728    29A1     5.030100  
      30A1     5.090446     8A2     5.090446    17B2     5.227371  
      17B1     5.227371    18B2     5.337922    18B1     5.337922  
      31A1     5.403289     9A2     5.403290    32A1     5.541290  
      19B2     5.661225    19B1     5.661225    10A2     5.822931  
      33A1     5.822932    34A1     5.970102    20B1     6.234151  
      20B2     6.234151    35A1     6.540283    21B2     6.599813  
      21B1     6.599813    22B2     7.695897    22B1     7.695897  
      36A1     7.805058    11A2     7.805058    37A1     7.848129  
      38A1     8.466864    12A2     8.510234    39A1     8.510235  
      23B1     8.629812    23B2     8.629812    40A1    10.373514  
      24B1    10.572912    24B2    10.572912    41A1    12.107217  
      13A2    13.326701    42A1    13.326706    25B2    13.422120  
      25B1    13.422120    26B1    13.499466    26B2    13.499466  
      43A1    13.679641    14A2    13.679645    27B1    14.187054  
      27B2    14.187054    44A1    14.211067    45A1    14.757463  
      28B2    15.487486    28B1    15.487486    46A1    15.643697  
      15A2    15.643697    29B1    16.080535    29B2    16.080535  
      47A1    16.440368    16A2    16.440372    48A1    16.874644  
      30B1    17.489435    30B2    17.489435    49A1    19.756150  
      50A1    55.488020  

    Final Occupation by Irrep:
             A1    A2    B1    B2 
    DOCC [     3,    0,    1,    1 ]

  @DF-RKS Final Energy:  -100.35641618318529

   => Energetics <=

    Nuclear Repulsion Energy =              5.1380418851831129
    One-Electron Energy =                -150.4629631382042589
    Two-Electron Energy =                  50.1493638351547943
    DFT Exchange-Correlation Energy =      -5.1807855953189179
    Empirical Dispersion Energy =          -0.0000731700000000
    VV10 Nonlocal Energy =                  0.0000000000000000
    Total Energy =                       -100.3564161831852886

Computation Completed


Properties will be evaluated at   0.000000,   0.000000,   0.000000 [a0]

Properties computed using the SCF density matrix

  Nuclear Dipole Moment: [e a0]
     X:     0.0000      Y:     0.0000      Z:    -0.8692

  Electronic Dipole Moment: [e a0]
     X:     0.0000      Y:     0.0000      Z:     0.1317

  Dipole Moment: [e a0]
     X:     0.0000      Y:     0.0000      Z:    -0.7376     Total:     0.7376

  Dipole Moment: [D]
     X:     0.0000      Y:     0.0000      Z:    -1.8747     Total:     1.8747


*** tstop() called on bp1-login01.data.bp.acrc.priv at Mon Apr 19 15:05:16 2021
Module time:
	user time   =      17.48 seconds =       0.29 minutes
	system time =       1.05 seconds =       0.02 minutes
	total time  =          2 seconds =       0.03 minutes
Total time:
	user time   =      17.48 seconds =       0.29 minutes
	system time =       1.05 seconds =       0.02 minutes
	total time  =          2 seconds =       0.03 minutes

*** tstart() called on bp1-login01.data.bp.acrc.priv
*** at Mon Apr 19 15:05:16 2021

   => Loading Basis Set <=

    Name: (AUG-CC-PV(Q+D)Z AUX)
    Role: RIFIT
    Keyword: DF_BASIS_MP2
    atoms 1 entry F          line   406 file /work/zw18965/.conda/envs/p4env/share/psi4/basis/aug-cc-pvqz-ri.gbs 
    atoms 2 entry H          line    30 file /work/zw18965/.conda/envs/p4env/share/psi4/basis/aug-cc-pvqz-ri.gbs 

	 --------------------------------------------------------
	                          DF-MP2                         
	      2nd-Order Density-Fitted Moller-Plesset Theory     
	              RMP2 Wavefunction,  12 Threads             
	                                                         
	        Rob Parrish, Justin Turney, Andy Simmonett,      
	           Ed Hohenstein, and C. David Sherrill          
	 --------------------------------------------------------

   => Auxiliary Basis Set <=

  Basis Set: (AUG-CC-PV(Q+D)Z AUX)
    Blend: AUG-CC-PVQZ-RI
    Number of shells: 56
    Number of basis function: 248
    Number of Cartesian functions: 342
    Spherical Harmonics?: true
    Max angular momentum: 5

	 --------------------------------------------------------
	                 NBF =   126, NAUX =   248
	 --------------------------------------------------------
	   CLASS    FOCC     OCC    AOCC    AVIR     VIR    FVIR
	   PAIRS       0       5       5     121     121       0
	 --------------------------------------------------------

	-----------------------------------------------------------
	 ==================> DF-MP2 Energies <==================== 
	-----------------------------------------------------------
	 Reference Energy          =    -100.3564161831852886 [Eh]
	 Singles Energy            =      -0.0000000000000000 [Eh]
	 Same-Spin Energy          =      -0.0936508033656264 [Eh]
	 Opposite-Spin Energy      =      -0.2902203460557123 [Eh]
	 Correlation Energy        =      -0.3838711494213388 [Eh]
	 Total Energy              =    -100.7402873326066270 [Eh]
	-----------------------------------------------------------
	 ================> DF-SCS-MP2 Energies <================== 
	-----------------------------------------------------------
	 SCS Same-Spin Scale       =       0.3333333333333333 [-]
	 SCS Opposite-Spin Scale   =       1.2000000000000000 [-]
	 SCS Same-Spin Energy      =      -0.0312169344552088 [Eh]
	 SCS Opposite-Spin Energy  =      -0.3482644152668548 [Eh]
	 SCS Correlation Energy    =      -0.3794813497220636 [Eh]
	 SCS Total Energy          =    -100.7358975329073587 [Eh]
	-----------------------------------------------------------



    B2PLYP-D3BJ Energy Summary
    --------------------------
    DFT Reference Energy                  =  -100.3564161831852886
    Scaled MP2 Correlation                =    -0.1036452103437615
    @Final double-hybrid DFT total energy =  -100.4600613935290454


*** tstop() called on bp1-login01.data.bp.acrc.priv at Mon Apr 19 15:05:17 2021
Module time:
	user time   =       3.69 seconds =       0.06 minutes
	system time =       0.14 seconds =       0.00 minutes
	total time  =          1 seconds =       0.02 minutes
Total time:
	user time   =      21.18 seconds =       0.35 minutes
	system time =       1.19 seconds =       0.02 minutes
	total time  =          3 seconds =       0.05 minutes

  //>>>>>>>>>>>>>>>>>>>>>>>>>>>>>>>>>>>//
  //    Loading displacement 2 of 3    //
  //<<<<<<<<<<<<<<<<<<<<<<<<<<<<<<<<<<<//

*** tstart() called on bp1-login01.data.bp.acrc.priv
*** at Mon Apr 19 15:05:17 2021

   => Loading Basis Set <=

    Name: AUG-CC-PV(Q+D)Z
    Role: ORBITAL
    Keyword: BASIS
    atoms 1 entry F          line   499 file /work/zw18965/.conda/envs/p4env/share/psi4/basis/aug-cc-pv_qpd_z.gbs 
    atoms 2 entry H          line    56 file /work/zw18965/.conda/envs/p4env/share/psi4/basis/aug-cc-pv_qpd_z.gbs 


         ---------------------------------------------------------
                                   SCF
               by Justin Turney, Rob Parrish, Andy Simmonett
                          and Daniel G. A. Smith
                              RKS Reference
                       12 Threads, 137329 MiB Core
         ---------------------------------------------------------

  ==> Geometry <==

    Molecular point group: c2v
    Full point group: C_inf_v

    Geometry (in Angstrom), charge = 0, multiplicity = 1:

       Center              X                  Y                   Z               Mass       
    ------------   -----------------  -----------------  -----------------  -----------------
         F            0.000000000000     0.000000000000     0.046558275398    18.998403162730
         H            0.000000000000     0.000000000000    -0.877665128660     1.007825032230

  Running in c2v symmetry.

  Rotational constants: A = ************  B =     20.62080  C =     20.62080 [cm^-1]
  Rotational constants: A = ************  B = 618196.08868  C = 618196.08868 [MHz]
  Nuclear repulsion =    5.153077573147348

  Charge       = 0
  Multiplicity = 1
  Electrons    = 10
  Nalpha       = 5
  Nbeta        = 5

  ==> Algorithm <==

  SCF Algorithm Type is DF.
  DIIS enabled.
  MOM disabled.
  Fractional occupation disabled.
  Guess Type is SAD.
  Energy threshold   = 1.00e-08
  Density threshold  = 1.00e-08
  Integral threshold = 0.00e+00

  ==> Primary Basis <==

  Basis Set: AUG-CC-PV(Q+D)Z
    Blend: AUG-CC-PV(Q+D)Z
    Number of shells: 34
    Number of basis function: 126
    Number of Cartesian functions: 160
    Spherical Harmonics?: true
    Max angular momentum: 4

  ==> DFT Potential <==

   => Composite Functional: B2PLYP-D3BJ <= 

    B2PLYP Double Hybrid Exchange-Correlation Functional

    S. Grimme, J. Chem. Phys., 124, 034108, 2006


    Deriv               =              1
    GGA                 =           TRUE
    Meta                =          FALSE

    Exchange Hybrid     =           TRUE
    MP2 Hybrid          =           TRUE

   => Exchange Functionals <=

    0.4700     XC_GGA_X_B88

   => Exact (HF) Exchange <=

    0.5300               HF 

   => Correlation Functionals <=

    0.7300     XC_GGA_C_LYP

   => MP2 Correlation <=

    0.2700       MP2 

   => Molecular Quadrature <=

    Radial Scheme          =       TREUTLER
    Pruning Scheme         =           FLAT
    Nuclear Scheme         =       TREUTLER

    BS radius alpha        =              1
    Pruning alpha          =              1
    Radial Points          =             75
    Spherical Points       =            302
    Total Points           =          45300
    Total Blocks           =            415
    Max Points             =            255
    Max Functions          =            126

   => B2PLYP-D3(BJ): Empirical Dispersion <=

    Grimme's -D3 (BJ-damping) Dispersion Correction
    Grimme S.; Ehrlich S.; Goerigk L. (2011), J. Comput. Chem., 32: 1456
    Parametrisation from:    L. Goerigk, S. Grimme, Phys. Chem. Chem. Phys. 13, 6670-6688, 2011

        s6 =       0.640000
        s8 =       0.914700
        a1 =       0.306500
        a2 =       5.057000

   => Loading Basis Set <=

    Name: (AUG-CC-PV(Q+D)Z AUX)
    Role: JKFIT
    Keyword: DF_BASIS_SCF
    atoms 1 entry F          line   388 file /work/zw18965/.conda/envs/p4env/share/psi4/basis/aug-cc-pvqz-jkfit.gbs 
    atoms 2 entry H          line    70 file /work/zw18965/.conda/envs/p4env/share/psi4/basis/aug-cc-pvqz-jkfit.gbs 

  ==> Pre-Iterations <==

   -------------------------------------------------------
    Irrep   Nso     Nmo     Nalpha   Nbeta   Ndocc  Nsocc
   -------------------------------------------------------
     A1        50      50       0       0       0       0
     A2        16      16       0       0       0       0
     B1        30      30       0       0       0       0
     B2        30      30       0       0       0       0
   -------------------------------------------------------
    Total     126     126       5       5       5       0
   -------------------------------------------------------

  ==> Integral Setup <==

  DFHelper Memory: AOs need 0.031 GiB; user supplied 100.431 GiB. Using in-core AOs.

  ==> MemDFJK: Density-Fitted J/K Matrices <==

    J tasked:                   Yes
    K tasked:                   Yes
    wK tasked:                   No
    OpenMP threads:              12
    Memory [MiB]:            102841
    Algorithm:                 Core
    Schwarz Cutoff:           1E-12
    Mask sparsity (%):       0.0000
    Fitting Condition:        1E-10

   => Auxiliary Basis Set <=

  Basis Set: (AUG-CC-PV(Q+D)Z AUX)
    Blend: AUG-CC-PVQZ-JKFIT
    Number of shells: 52
    Number of basis function: 218
    Number of Cartesian functions: 299
    Spherical Harmonics?: true
    Max angular momentum: 5

  Cached 100.0% of DFT collocation blocks in 0.152 [GiB].

  Minimum eigenvalue in the overlap matrix is 1.1739432056E-04.
  Using Symmetric Orthogonalization.

  SCF Guess: Superposition of Atomic Densities via on-the-fly atomic UHF.

  ==> Iterations <==

                           Total Energy        Delta E     RMS |[F,P]|

   @DF-RKS iter SAD:  -100.01522152839492   -1.00015e+02   0.00000e+00 
   @DF-RKS iter   1:  -100.30693916824643   -2.91718e-01   5.86537e-03 DIIS
   @DF-RKS iter   2:  -100.29890516915931    8.03400e-03   6.89142e-03 DIIS
   @DF-RKS iter   3:  -100.35645667656783   -5.75515e-02   1.68169e-04 DIIS
   @DF-RKS iter   4:  -100.35650490281388   -4.82262e-05   4.13660e-05 DIIS
   @DF-RKS iter   5:  -100.35650796114838   -3.05833e-06   5.54800e-06 DIIS
   @DF-RKS iter   6:  -100.35650808079122   -1.19643e-07   9.61406e-07 DIIS
   @DF-RKS iter   7:  -100.35650808422349   -3.43228e-09   7.31869e-08 DIIS
   @DF-RKS iter   8:  -100.35650808424455   -2.10605e-11   8.32069e-09 DIIS
  Energy and wave function converged.


  ==> Post-Iterations <==

    Orbital Energies [Eh]
    ---------------------

    Doubly Occupied:                                                      

       1A1   -25.355722     2A1    -1.369528     3A1    -0.644608  
       1B1    -0.517096     1B2    -0.517096  

    Virtual:                                                              

       4A1     0.000613     5A1     0.085297     2B1     0.132696  
       2B2     0.132696     6A1     0.134392     3B1     0.193493  
       3B2     0.193493     7A1     0.206072     8A1     0.304015  
       9A1     0.492010    10A1     0.506093     1A2     0.506093  
       4B1     0.543835     4B2     0.543835    11A1     0.616011  
      12A1     0.688330     5B2     0.700476     5B1     0.700476  
      13A1     0.702484     2A2     0.702484     6B1     0.754093  
       6B2     0.754093    14A1     0.848198     7B1     1.157127  
       7B2     1.157127    15A1     1.345852     8B1     1.426054  
       8B2     1.426054    16A1     1.429350    17A1     1.570924  
      18A1     1.623681     3A2     1.623681     9B1     1.703536  
       9B2     1.703536     4A2     1.890481    19A1     1.890481  
      10B2     1.935903    10B1     1.935903    11B1     1.980508  
      11B2     1.980508    20A1     1.984885    21A1     2.027632  
       5A2     2.027632    22A1     2.075916    12B1     2.380263  
      12B2     2.380263    23A1     2.681263    13B1     2.690902  
      13B2     2.690902    24A1     2.979568    14B1     3.046568  
      14B2     3.046568     6A2     3.065937    25A1     3.065937  
      26A1     3.680776    15B1     4.408817    15B2     4.408817  
      27A1     4.417719    28A1     4.545157     7A2     4.545157  
      16B2     4.701500    16B1     4.701500    29A1     5.029384  
      30A1     5.092673     8A2     5.092674    17B1     5.227545  
      17B2     5.227545    18B1     5.338125    18B2     5.338125  
      31A1     5.402333     9A2     5.402334    32A1     5.540446  
      19B1     5.662941    19B2     5.662941    10A2     5.824860  
      33A1     5.824860    34A1     5.967267    20B1     6.233512  
      20B2     6.233512    35A1     6.549541    21B2     6.603227  
      21B1     6.603227    22B1     7.697626    22B2     7.697626  
      36A1     7.810069    11A2     7.810069    37A1     7.855431  
      38A1     8.478477    12A2     8.518517    39A1     8.518518  
      23B2     8.633605    23B1     8.633605    40A1    10.388495  
      24B1    10.591228    24B2    10.591228    41A1    12.101512  
      13A2    13.326468    42A1    13.326473    25B1    13.422372  
      25B2    13.422372    26B1    13.500472    26B2    13.500472  
      43A1    13.682316    14A2    13.682320    27B1    14.192866  
      27B2    14.192866    44A1    14.213336    45A1    14.765485  
      28B1    15.487706    28B2    15.487706    46A1    15.643410  
      15A2    15.643411    29B1    16.079589    29B2    16.079589  
      47A1    16.441937    16A2    16.441941    48A1    16.888919  
      30B2    17.510615    30B1    17.510615    49A1    19.781749  
      50A1    55.508301  

    Final Occupation by Irrep:
             A1    A2    B1    B2 
    DOCC [     3,    0,    1,    1 ]

  @DF-RKS Final Energy:  -100.35650808424455

   => Energetics <=

    Nuclear Repulsion Energy =              5.1530775731473479
    One-Electron Energy =                -150.4884159810974040
    Two-Electron Energy =                  50.1603290349749500
    DFT Exchange-Correlation Energy =      -5.1814255412694603
    Empirical Dispersion Energy =          -0.0000731700000000
    VV10 Nonlocal Energy =                  0.0000000000000000
    Total Energy =                       -100.3565080842445525

Computation Completed


Properties will be evaluated at   0.000000,   0.000000,   0.000000 [a0]

Properties computed using the SCF density matrix

  Nuclear Dipole Moment: [e a0]
     X:     0.0000      Y:     0.0000      Z:    -0.8667

  Electronic Dipole Moment: [e a0]
     X:     0.0000      Y:     0.0000      Z:     0.1310

  Dipole Moment: [e a0]
     X:     0.0000      Y:     0.0000      Z:    -0.7357     Total:     0.7357

  Dipole Moment: [D]
     X:     0.0000      Y:     0.0000      Z:    -1.8699     Total:     1.8699


*** tstop() called on bp1-login01.data.bp.acrc.priv at Mon Apr 19 15:05:18 2021
Module time:
	user time   =      16.28 seconds =       0.27 minutes
	system time =       0.63 seconds =       0.01 minutes
	total time  =          1 seconds =       0.02 minutes
Total time:
	user time   =      37.59 seconds =       0.63 minutes
	system time =       1.82 seconds =       0.03 minutes
	total time  =          4 seconds =       0.07 minutes

*** tstart() called on bp1-login01.data.bp.acrc.priv
*** at Mon Apr 19 15:05:18 2021

   => Loading Basis Set <=

    Name: (AUG-CC-PV(Q+D)Z AUX)
    Role: RIFIT
    Keyword: DF_BASIS_MP2
    atoms 1 entry F          line   406 file /work/zw18965/.conda/envs/p4env/share/psi4/basis/aug-cc-pvqz-ri.gbs 
    atoms 2 entry H          line    30 file /work/zw18965/.conda/envs/p4env/share/psi4/basis/aug-cc-pvqz-ri.gbs 

	 --------------------------------------------------------
	                          DF-MP2                         
	      2nd-Order Density-Fitted Moller-Plesset Theory     
	              RMP2 Wavefunction,  12 Threads             
	                                                         
	        Rob Parrish, Justin Turney, Andy Simmonett,      
	           Ed Hohenstein, and C. David Sherrill          
	 --------------------------------------------------------

   => Auxiliary Basis Set <=

  Basis Set: (AUG-CC-PV(Q+D)Z AUX)
    Blend: AUG-CC-PVQZ-RI
    Number of shells: 56
    Number of basis function: 248
    Number of Cartesian functions: 342
    Spherical Harmonics?: true
    Max angular momentum: 5

	 --------------------------------------------------------
	                 NBF =   126, NAUX =   248
	 --------------------------------------------------------
	   CLASS    FOCC     OCC    AOCC    AVIR     VIR    FVIR
	   PAIRS       0       5       5     121     121       0
	 --------------------------------------------------------

	-----------------------------------------------------------
	 ==================> DF-MP2 Energies <==================== 
	-----------------------------------------------------------
	 Reference Energy          =    -100.3565080842445525 [Eh]
	 Singles Energy            =      -0.0000000000000000 [Eh]
	 Same-Spin Energy          =      -0.0935983480902576 [Eh]
	 Opposite-Spin Energy      =      -0.2900577161835848 [Eh]
	 Correlation Energy        =      -0.3836560642738424 [Eh]
	 Total Energy              =    -100.7401641485183887 [Eh]
	-----------------------------------------------------------
	 ================> DF-SCS-MP2 Energies <================== 
	-----------------------------------------------------------
	 SCS Same-Spin Scale       =       0.3333333333333333 [-]
	 SCS Opposite-Spin Scale   =       1.2000000000000000 [-]
	 SCS Same-Spin Energy      =      -0.0311994493634192 [Eh]
	 SCS Opposite-Spin Energy  =      -0.3480692594203017 [Eh]
	 SCS Correlation Energy    =      -0.3792687087837209 [Eh]
	 SCS Total Energy          =    -100.7357767930282790 [Eh]
	-----------------------------------------------------------



    B2PLYP-D3BJ Energy Summary
    --------------------------
    DFT Reference Energy                  =  -100.3565080842445525
    Scaled MP2 Correlation                =    -0.1035871373539374
    @Final double-hybrid DFT total energy =  -100.4600952215984933


*** tstop() called on bp1-login01.data.bp.acrc.priv at Mon Apr 19 15:05:19 2021
Module time:
	user time   =       3.48 seconds =       0.06 minutes
	system time =       0.11 seconds =       0.00 minutes
	total time  =          1 seconds =       0.02 minutes
Total time:
	user time   =      41.08 seconds =       0.68 minutes
	system time =       1.93 seconds =       0.03 minutes
	total time  =          5 seconds =       0.08 minutes

  //>>>>>>>>>>>>>>>>>>>>>>>>>>>>>>>>>>>//
  //    Loading displacement 3 of 3    //
  //<<<<<<<<<<<<<<<<<<<<<<<<<<<<<<<<<<<//

*** tstart() called on bp1-login01.data.bp.acrc.priv
*** at Mon Apr 19 15:05:19 2021

   => Loading Basis Set <=

    Name: AUG-CC-PV(Q+D)Z
    Role: ORBITAL
    Keyword: BASIS
    atoms 1 entry F          line   499 file /work/zw18965/.conda/envs/p4env/share/psi4/basis/aug-cc-pv_qpd_z.gbs 
    atoms 2 entry H          line    56 file /work/zw18965/.conda/envs/p4env/share/psi4/basis/aug-cc-pv_qpd_z.gbs 


         ---------------------------------------------------------
                                   SCF
               by Justin Turney, Rob Parrish, Andy Simmonett
                          and Daniel G. A. Smith
                              RKS Reference
                       12 Threads, 137329 MiB Core
         ---------------------------------------------------------

  ==> Geometry <==

    Molecular point group: c2v
    Full point group: C_inf_v

    Geometry (in Angstrom), charge = 0, multiplicity = 1:

       Center              X                  Y                   Z               Mass       
    ------------   -----------------  -----------------  -----------------  -----------------
         F            0.000000000000     0.000000000000     0.046830766638    18.998403162730
         H            0.000000000000     0.000000000000    -0.882801832216     1.007825032230

  Running in c2v symmetry.

  Rotational constants: A = ************  B =     20.38153  C =     20.38153 [cm^-1]
  Rotational constants: A = ************  B = 611022.90117  C = 611022.90117 [MHz]
  Nuclear repulsion =    5.123093684431766

  Charge       = 0
  Multiplicity = 1
  Electrons    = 10
  Nalpha       = 5
  Nbeta        = 5

  ==> Algorithm <==

  SCF Algorithm Type is DF.
  DIIS enabled.
  MOM disabled.
  Fractional occupation disabled.
  Guess Type is SAD.
  Energy threshold   = 1.00e-08
  Density threshold  = 1.00e-08
  Integral threshold = 0.00e+00

  ==> Primary Basis <==

  Basis Set: AUG-CC-PV(Q+D)Z
    Blend: AUG-CC-PV(Q+D)Z
    Number of shells: 34
    Number of basis function: 126
    Number of Cartesian functions: 160
    Spherical Harmonics?: true
    Max angular momentum: 4

  ==> DFT Potential <==

   => Composite Functional: B2PLYP-D3BJ <= 

    B2PLYP Double Hybrid Exchange-Correlation Functional

    S. Grimme, J. Chem. Phys., 124, 034108, 2006


    Deriv               =              1
    GGA                 =           TRUE
    Meta                =          FALSE

    Exchange Hybrid     =           TRUE
    MP2 Hybrid          =           TRUE

   => Exchange Functionals <=

    0.4700     XC_GGA_X_B88

   => Exact (HF) Exchange <=

    0.5300               HF 

   => Correlation Functionals <=

    0.7300     XC_GGA_C_LYP

   => MP2 Correlation <=

    0.2700       MP2 

   => Molecular Quadrature <=

    Radial Scheme          =       TREUTLER
    Pruning Scheme         =           FLAT
    Nuclear Scheme         =       TREUTLER

    BS radius alpha        =              1
    Pruning alpha          =              1
    Radial Points          =             75
    Spherical Points       =            302
    Total Points           =          45300
    Total Blocks           =            415
    Max Points             =            255
    Max Functions          =            126

   => B2PLYP-D3(BJ): Empirical Dispersion <=

    Grimme's -D3 (BJ-damping) Dispersion Correction
    Grimme S.; Ehrlich S.; Goerigk L. (2011), J. Comput. Chem., 32: 1456
    Parametrisation from:    L. Goerigk, S. Grimme, Phys. Chem. Chem. Phys. 13, 6670-6688, 2011

        s6 =       0.640000
        s8 =       0.914700
        a1 =       0.306500
        a2 =       5.057000

   => Loading Basis Set <=

    Name: (AUG-CC-PV(Q+D)Z AUX)
    Role: JKFIT
    Keyword: DF_BASIS_SCF
    atoms 1 entry F          line   388 file /work/zw18965/.conda/envs/p4env/share/psi4/basis/aug-cc-pvqz-jkfit.gbs 
    atoms 2 entry H          line    70 file /work/zw18965/.conda/envs/p4env/share/psi4/basis/aug-cc-pvqz-jkfit.gbs 

  ==> Pre-Iterations <==

   -------------------------------------------------------
    Irrep   Nso     Nmo     Nalpha   Nbeta   Ndocc  Nsocc
   -------------------------------------------------------
     A1        50      50       0       0       0       0
     A2        16      16       0       0       0       0
     B1        30      30       0       0       0       0
     B2        30      30       0       0       0       0
   -------------------------------------------------------
    Total     126     126       5       5       5       0
   -------------------------------------------------------

  ==> Integral Setup <==

  DFHelper Memory: AOs need 0.031 GiB; user supplied 100.431 GiB. Using in-core AOs.

  ==> MemDFJK: Density-Fitted J/K Matrices <==

    J tasked:                   Yes
    K tasked:                   Yes
    wK tasked:                   No
    OpenMP threads:              12
    Memory [MiB]:            102841
    Algorithm:                 Core
    Schwarz Cutoff:           1E-12
    Mask sparsity (%):       0.0000
    Fitting Condition:        1E-10

   => Auxiliary Basis Set <=

  Basis Set: (AUG-CC-PV(Q+D)Z AUX)
    Blend: AUG-CC-PVQZ-JKFIT
    Number of shells: 52
    Number of basis function: 218
    Number of Cartesian functions: 299
    Spherical Harmonics?: true
    Max angular momentum: 5

  Cached 100.0% of DFT collocation blocks in 0.152 [GiB].

  Minimum eigenvalue in the overlap matrix is 1.1962466136E-04.
  Using Symmetric Orthogonalization.

  SCF Guess: Superposition of Atomic Densities via on-the-fly atomic UHF.

  ==> Iterations <==

                           Total Energy        Delta E     RMS |[F,P]|

   @DF-RKS iter SAD:  -100.01261355867243   -1.00013e+02   0.00000e+00 
   @DF-RKS iter   1:  -100.30657525677812   -2.93962e-01   5.86247e-03 DIIS
   @DF-RKS iter   2:  -100.29812636281012    8.44889e-03   6.91882e-03 DIIS
   @DF-RKS iter   3:  -100.35625572284911   -5.81294e-02   1.71002e-04 DIIS
   @DF-RKS iter   4:  -100.35630573850771   -5.00157e-05   4.21449e-05 DIIS
   @DF-RKS iter   5:  -100.35630894123376   -3.20273e-06   5.65776e-06 DIIS
   @DF-RKS iter   6:  -100.35630906658221   -1.25348e-07   9.79855e-07 DIIS
   @DF-RKS iter   7:  -100.35630907016014   -3.57792e-09   7.48487e-08 DIIS
   @DF-RKS iter   8:  -100.35630907018238   -2.22400e-11   8.48202e-09 DIIS
  Energy and wave function converged.


  ==> Post-Iterations <==

    Orbital Energies [Eh]
    ---------------------

    Doubly Occupied:                                                      

       1A1   -25.355814     2A1    -1.367748     3A1    -0.642972  
       1B2    -0.516581     1B1    -0.516581  

    Virtual:                                                              

       4A1     0.000279     5A1     0.084996     2B2     0.132711  
       2B1     0.132711     6A1     0.133819     3B1     0.193364  
       3B2     0.193364     7A1     0.206100     8A1     0.303221  
       9A1     0.490261    10A1     0.506017     1A2     0.506017  
       4B1     0.543729     4B2     0.543729    11A1     0.615487  
      12A1     0.688194     5B1     0.700684     5B2     0.700684  
      13A1     0.702681     2A2     0.702681     6B1     0.753924  
       6B2     0.753924    14A1     0.849171     7B1     1.155976  
       7B2     1.155976    15A1     1.342046     8B2     1.426002  
       8B1     1.426002    16A1     1.427494    17A1     1.572064  
      18A1     1.623119     3A2     1.623119     9B1     1.704282  
       9B2     1.704282     4A2     1.892203    19A1     1.892203  
      10B1     1.934919    10B2     1.934919    11B1     1.979064  
      11B2     1.979064    20A1     1.983415    21A1     2.027158  
       5A2     2.027158    22A1     2.079164    12B1     2.380352  
      12B2     2.380352    23A1     2.676528    13B2     2.692785  
      13B1     2.692785    24A1     2.975057    14B1     3.039839  
      14B2     3.039839     6A2     3.057294    25A1     3.057294  
      26A1     3.682313    15B2     4.400660    15B1     4.400660  
      27A1     4.410776    28A1     4.545565     7A2     4.545565  
      16B2     4.699960    16B1     4.699960    29A1     5.030761  
      30A1     5.088209     8A2     5.088209    17B1     5.227159  
      17B2     5.227159    18B2     5.337722    18B1     5.337722  
      31A1     5.404241     9A2     5.404242    32A1     5.541997  
      19B2     5.659480    19B1     5.659480    10A2     5.821008  
      33A1     5.821008    34A1     5.973031    20B2     6.234897  
      20B1     6.234897    35A1     6.531153    21B1     6.596425  
      21B2     6.596425    22B2     7.694167    22B1     7.694167  
      11A2     7.799923    36A1     7.799923    37A1     7.840661  
      38A1     8.455517    12A2     8.502143    39A1     8.502144  
      23B2     8.626123    23B1     8.626123    40A1    10.358710  
      24B2    10.554613    24B1    10.554613    41A1    12.112166  
      13A2    13.326933    42A1    13.326938    25B2    13.421867  
      25B1    13.421867    26B2    13.498337    26B1    13.498337  
      43A1    13.677035    14A2    13.677039    27B2    14.181165  
      27B1    14.181165    44A1    14.208971    45A1    14.749540  
      28B2    15.487268    28B1    15.487268    46A1    15.643960  
      15A2    15.643960    29B2    16.081628    29B1    16.081628  
      47A1    16.438818    16A2    16.438821    48A1    16.860761  
      30B2    17.468473    30B1    17.468473    49A1    19.730391  
      50A1    55.467869  

    Final Occupation by Irrep:
             A1    A2    B1    B2 
    DOCC [     3,    0,    1,    1 ]

  @DF-RKS Final Energy:  -100.35630907018238

   => Energetics <=

    Nuclear Repulsion Energy =              5.1230936844317663
    One-Electron Energy =                -150.4376366126341509
    Two-Electron Energy =                  50.1384566880341254
    DFT Exchange-Correlation Energy =      -5.1801496600141403
    Empirical Dispersion Energy =          -0.0000731700000000
    VV10 Nonlocal Energy =                  0.0000000000000000
    Total Energy =                       -100.3563090701823768

Computation Completed


Properties will be evaluated at   0.000000,   0.000000,   0.000000 [a0]

Properties computed using the SCF density matrix

  Nuclear Dipole Moment: [e a0]
     X:     0.0000      Y:     0.0000      Z:    -0.8718

  Electronic Dipole Moment: [e a0]
     X:     0.0000      Y:     0.0000      Z:     0.1323

  Dipole Moment: [e a0]
     X:     0.0000      Y:     0.0000      Z:    -0.7394     Total:     0.7394

  Dipole Moment: [D]
     X:     0.0000      Y:     0.0000      Z:    -1.8795     Total:     1.8795


*** tstop() called on bp1-login01.data.bp.acrc.priv at Mon Apr 19 15:05:20 2021
Module time:
	user time   =      17.00 seconds =       0.28 minutes
	system time =       0.78 seconds =       0.01 minutes
	total time  =          1 seconds =       0.02 minutes
Total time:
	user time   =      58.21 seconds =       0.97 minutes
	system time =       2.72 seconds =       0.05 minutes
	total time  =          6 seconds =       0.10 minutes

*** tstart() called on bp1-login01.data.bp.acrc.priv
*** at Mon Apr 19 15:05:20 2021

   => Loading Basis Set <=

    Name: (AUG-CC-PV(Q+D)Z AUX)
    Role: RIFIT
    Keyword: DF_BASIS_MP2
    atoms 1 entry F          line   406 file /work/zw18965/.conda/envs/p4env/share/psi4/basis/aug-cc-pvqz-ri.gbs 
    atoms 2 entry H          line    30 file /work/zw18965/.conda/envs/p4env/share/psi4/basis/aug-cc-pvqz-ri.gbs 

	 --------------------------------------------------------
	                          DF-MP2                         
	      2nd-Order Density-Fitted Moller-Plesset Theory     
	              RMP2 Wavefunction,  12 Threads             
	                                                         
	        Rob Parrish, Justin Turney, Andy Simmonett,      
	           Ed Hohenstein, and C. David Sherrill          
	 --------------------------------------------------------

   => Auxiliary Basis Set <=

  Basis Set: (AUG-CC-PV(Q+D)Z AUX)
    Blend: AUG-CC-PVQZ-RI
    Number of shells: 56
    Number of basis function: 248
    Number of Cartesian functions: 342
    Spherical Harmonics?: true
    Max angular momentum: 5

	 --------------------------------------------------------
	                 NBF =   126, NAUX =   248
	 --------------------------------------------------------
	   CLASS    FOCC     OCC    AOCC    AVIR     VIR    FVIR
	   PAIRS       0       5       5     121     121       0
	 --------------------------------------------------------

	-----------------------------------------------------------
	 ==================> DF-MP2 Energies <==================== 
	-----------------------------------------------------------
	 Reference Energy          =    -100.3563090701823768 [Eh]
	 Singles Energy            =      -0.0000000000000000 [Eh]
	 Same-Spin Energy          =      -0.0937031887024952 [Eh]
	 Opposite-Spin Energy      =      -0.2903832141272059 [Eh]
	 Correlation Energy        =      -0.3840864028297010 [Eh]
	 Total Energy              =    -100.7403954730120716 [Eh]
	-----------------------------------------------------------
	 ================> DF-SCS-MP2 Energies <================== 
	-----------------------------------------------------------
	 SCS Same-Spin Scale       =       0.3333333333333333 [-]
	 SCS Opposite-Spin Scale   =       1.2000000000000000 [-]
	 SCS Same-Spin Energy      =      -0.0312343962341651 [Eh]
	 SCS Opposite-Spin Energy  =      -0.3484598569526470 [Eh]
	 SCS Correlation Energy    =      -0.3796942531868121 [Eh]
	 SCS Total Energy          =    -100.7360033233691894 [Eh]
	-----------------------------------------------------------



    B2PLYP-D3BJ Energy Summary
    --------------------------
    DFT Reference Energy                  =  -100.3563090701823768
    Scaled MP2 Correlation                =    -0.1037033287640193
    @Final double-hybrid DFT total energy =  -100.4600123989463896


*** tstop() called on bp1-login01.data.bp.acrc.priv at Mon Apr 19 15:05:21 2021
Module time:
	user time   =       3.30 seconds =       0.05 minutes
	system time =       0.13 seconds =       0.00 minutes
	total time  =          1 seconds =       0.02 minutes
Total time:
	user time   =      61.52 seconds =       1.03 minutes
	system time =       2.85 seconds =       0.05 minutes
	total time  =          7 seconds =       0.12 minutes

         ----------------------------------------------------------
                                   FINDIF
                     R. A. King and Jonathon Misiewicz
         ---------------------------------------------------------

  Computing gradient from energies.
    Using 3-point formula.
    Energy without displacement: -100.4600613935
    Check energies below for precision!
    Forces are for mass-weighted, symmetry-adapted cartesians (in au).

     Coord      Energy(-1)        Energy(+1)            Force
        0   -100.4600952216   -100.4600123989      0.0082822652


-------------------------------------------------------------
  ## New Matrix (Symmetry 0) ##
  Irrep: 1 Size: 2 x 3

                 1                   2                   3

    1     0.00000000000000     0.00000000000000     0.00810247396812
    2     0.00000000000000     0.00000000000000    -0.00810247396812




			-----------------------------------------
			 OPTKING 2.0: for geometry optimizations 
			  - R.A. King,  Bethel University        
			-----------------------------------------

	Internal coordinates to be generated automatically.
	Detected frag 1 with atoms:  1 2
	---Fragment 1 Bond Connectivity---
	 1 : 2
	 2 : 1

	---Fragment 1 Geometry and Gradient---
	 F           0.0000000000        0.0000000000        0.0882398563
	 H           0.0000000000        0.0000000000       -1.6634002045
	             0.0000000000        0.0000000000        0.0081024740
	             0.0000000000        0.0000000000       -0.0081024740

	Previous optimization step data not found.  Starting new optimization.

	---Fragment 1 Intrafragment Coordinates---
	 - Coordinate -           - BOHR/RAD -       - ANG/DEG -
	 R(1,2)           =         1.751640	       0.926928

	Current energy   :      -100.4600613935

	Generating empirical Hessian (Schlegel '84) for each fragment.
	Taking RFO optimization step.
	Going to follow RFO solution 1.
	Using RFO vector 1.
	Norm of target step-size    0.01281
	Projected energy change by RFO approximation:        -0.0000217415

	Back-transformation to cartesian coordinates...
	Successfully converged to displaced geometry.

	--- Internal Coordinate Step in ANG or DEG, aJ/ANG or AJ/DEG ---
	 ---------------------------------------------------------------------------
	   Coordinate                Previous        Force       Change         New 
	   ----------                --------       ------       ------       ------
	    1 R(1,2)          =      0.926928    -0.066754    -0.006779     0.920149
	 ---------------------------------------------------------------------------
	Successfully symmetrized geometry.

  ==> Convergence Check <==

  Measures of convergence in internal coordinates in au.
  Criteria marked as inactive (o), active & met (*), and active & unmet ( ).
  --------------------------------------------------------------------------------------------- ~
   Step     Total Energy     Delta E     MAX Force     RMS Force      MAX Disp      RMS Disp    ~
  --------------------------------------------------------------------------------------------- ~
    Convergence Criteria    1.00e-06 *    3.00e-04 *             o    1.20e-03 *             o  ~
  --------------------------------------------------------------------------------------------- ~
      1    -100.46006139   -1.00e+02      8.10e-03      8.10e-03 o    1.28e-02      1.28e-02 o  ~
  ---------------------------------------------------------------------------------------------

	Writing optimization data to binary file.
	Structure for next step:
	Cartesian Geometry (in Angstrom)
	    F     0.0000000000   0.0000000000   0.0433051623
	    H     0.0000000000   0.0000000000  -0.8768441185
			--------------------------
			 OPTKING Finished Execution 
			--------------------------

    Structure for next step:
    Molecular point group: c2v
    Full point group: C_inf_v

    Geometry (in Angstrom), charge = 0, multiplicity = 1:

    F            0.000000000000     0.000000000000     0.046353039322
    H            0.000000000000     0.000000000000    -0.873796245084

gradient() will perform gradient computation by finite difference of analytic energies.

         ----------------------------------------------------------
                                   FINDIF
                     R. A. King and Jonathon Misiewicz
         ---------------------------------------------------------

  Using finite-differences of energies to determine gradients.
    Generating geometries for use with 3-point formula.
    Displacement size will be 5.00e-03.
    Number of atoms is 2.
    Number of symmetric SALCs is 1.
    Translations projected? 1. Rotations projected? 1.
    Number of geometries (including reference) is 3.

  //>>>>>>>>>>>>>>>>>>>>>>>>>>>>>>>>>>>//
  //    Loading displacement 1 of 3    //
  //<<<<<<<<<<<<<<<<<<<<<<<<<<<<<<<<<<<//

*** tstart() called on bp1-login01.data.bp.acrc.priv
*** at Mon Apr 19 15:05:21 2021

   => Loading Basis Set <=

    Name: AUG-CC-PV(Q+D)Z
    Role: ORBITAL
    Keyword: BASIS
    atoms 1 entry F          line   499 file /work/zw18965/.conda/envs/p4env/share/psi4/basis/aug-cc-pv_qpd_z.gbs 
    atoms 2 entry H          line    56 file /work/zw18965/.conda/envs/p4env/share/psi4/basis/aug-cc-pv_qpd_z.gbs 


         ---------------------------------------------------------
                                   SCF
               by Justin Turney, Rob Parrish, Andy Simmonett
                          and Daniel G. A. Smith
                              RKS Reference
                       12 Threads, 137329 MiB Core
         ---------------------------------------------------------

  ==> Geometry <==

    Molecular point group: c2v
    Full point group: C_inf_v

    Geometry (in Angstrom), charge = 0, multiplicity = 1:

       Center              X                  Y                   Z               Mass       
    ------------   -----------------  -----------------  -----------------  -----------------
         F            0.000000000000     0.000000000000     0.046353039322    18.998403162730
         H            0.000000000000     0.000000000000    -0.873796245084     1.007825032230

  Running in c2v symmetry.

  Rotational constants: A = ************  B =     20.80381  C =     20.80381 [cm^-1]
  Rotational constants: A = ************  B = 623682.54757  C = 623682.54757 [MHz]
  Nuclear repulsion =    5.175893712835766

  Charge       = 0
  Multiplicity = 1
  Electrons    = 10
  Nalpha       = 5
  Nbeta        = 5

  ==> Algorithm <==

  SCF Algorithm Type is DF.
  DIIS enabled.
  MOM disabled.
  Fractional occupation disabled.
  Guess Type is READ.
  Energy threshold   = 1.00e-08
  Density threshold  = 1.00e-08
  Integral threshold = 0.00e+00

  ==> Primary Basis <==

  Basis Set: AUG-CC-PV(Q+D)Z
    Blend: AUG-CC-PV(Q+D)Z
    Number of shells: 34
    Number of basis function: 126
    Number of Cartesian functions: 160
    Spherical Harmonics?: true
    Max angular momentum: 4

  ==> DFT Potential <==

   => Composite Functional: B2PLYP-D3BJ <= 

    B2PLYP Double Hybrid Exchange-Correlation Functional

    S. Grimme, J. Chem. Phys., 124, 034108, 2006


    Deriv               =              1
    GGA                 =           TRUE
    Meta                =          FALSE

    Exchange Hybrid     =           TRUE
    MP2 Hybrid          =           TRUE

   => Exchange Functionals <=

    0.4700     XC_GGA_X_B88

   => Exact (HF) Exchange <=

    0.5300               HF 

   => Correlation Functionals <=

    0.7300     XC_GGA_C_LYP

   => MP2 Correlation <=

    0.2700       MP2 

   => Molecular Quadrature <=

    Radial Scheme          =       TREUTLER
    Pruning Scheme         =           FLAT
    Nuclear Scheme         =       TREUTLER

    BS radius alpha        =              1
    Pruning alpha          =              1
    Radial Points          =             75
    Spherical Points       =            302
    Total Points           =          45300
    Total Blocks           =            417
    Max Points             =            255
    Max Functions          =            126

   => B2PLYP-D3(BJ): Empirical Dispersion <=

    Grimme's -D3 (BJ-damping) Dispersion Correction
    Grimme S.; Ehrlich S.; Goerigk L. (2011), J. Comput. Chem., 32: 1456
    Parametrisation from:    L. Goerigk, S. Grimme, Phys. Chem. Chem. Phys. 13, 6670-6688, 2011

        s6 =       0.640000
        s8 =       0.914700
        a1 =       0.306500
        a2 =       5.057000

   => Loading Basis Set <=

    Name: (AUG-CC-PV(Q+D)Z AUX)
    Role: JKFIT
    Keyword: DF_BASIS_SCF
    atoms 1 entry F          line   388 file /work/zw18965/.conda/envs/p4env/share/psi4/basis/aug-cc-pvqz-jkfit.gbs 
    atoms 2 entry H          line    70 file /work/zw18965/.conda/envs/p4env/share/psi4/basis/aug-cc-pvqz-jkfit.gbs 

   => Loading Basis Set <=

    Name: AUG-CC-PV(Q+D)Z
    Role: ORBITAL
    Keyword: BASIS
    atoms 1 entry F          line   499 file /work/zw18965/.conda/envs/p4env/share/psi4/basis/aug-cc-pv_qpd_z.gbs 
    atoms 2 entry H          line    56 file /work/zw18965/.conda/envs/p4env/share/psi4/basis/aug-cc-pv_qpd_z.gbs 

  Reading orbitals from file 180, no projection.

  ==> Pre-Iterations <==

   -------------------------------------------------------
    Irrep   Nso     Nmo     Nalpha   Nbeta   Ndocc  Nsocc
   -------------------------------------------------------
     A1        50      50       0       0       0       0
     A2        16      16       0       0       0       0
     B1        30      30       0       0       0       0
     B2        30      30       0       0       0       0
   -------------------------------------------------------
    Total     126     126       5       5       5       0
   -------------------------------------------------------

  ==> Integral Setup <==

  DFHelper Memory: AOs need 0.031 GiB; user supplied 100.431 GiB. Using in-core AOs.

  ==> MemDFJK: Density-Fitted J/K Matrices <==

    J tasked:                   Yes
    K tasked:                   Yes
    wK tasked:                   No
    OpenMP threads:              12
    Memory [MiB]:            102841
    Algorithm:                 Core
    Schwarz Cutoff:           1E-12
    Mask sparsity (%):       0.0000
    Fitting Condition:        1E-10

   => Auxiliary Basis Set <=

  Basis Set: (AUG-CC-PV(Q+D)Z AUX)
    Blend: AUG-CC-PVQZ-JKFIT
    Number of shells: 52
    Number of basis function: 218
    Number of Cartesian functions: 299
    Spherical Harmonics?: true
    Max angular momentum: 5

  Cached 100.0% of DFT collocation blocks in 0.152 [GiB].

  Minimum eigenvalue in the overlap matrix is 1.1573337666E-04.
  Using Symmetric Orthogonalization.

  SCF Guess: Orbitals guess was supplied from a previous computation.

  ==> Iterations <==

                           Total Energy        Delta E     RMS |[F,P]|

   @DF-RKS iter   0:  -100.36038039330042   -1.00360e+02   2.49282e-04 
   @DF-RKS iter   1:  -100.35661591672516    3.76448e-03   3.14092e-05 DIIS
   @DF-RKS iter   2:  -100.35661703798102   -1.12126e-06   9.49762e-06 DIIS
   @DF-RKS iter   3:  -100.35661713001815   -9.20371e-08   1.36061e-06 DIIS
   @DF-RKS iter   4:  -100.35661713197327   -1.95512e-09   1.15652e-06 DIIS
   @DF-RKS iter   5:  -100.35661713362470   -1.65143e-09   6.56192e-08 DIIS
   @DF-RKS iter   6:  -100.35661713364078   -1.60867e-11   6.38016e-09 DIIS
  Energy and wave function converged.


  ==> Post-Iterations <==

    Orbital Energies [Eh]
    ---------------------

    Doubly Occupied:                                                      

       1A1   -25.355648     2A1    -1.370887     3A1    -0.645843  
       1B2    -0.517486     1B1    -0.517486  

    Virtual:                                                              

       4A1     0.000860     5A1     0.085517     2B2     0.132683  
       2B1     0.132683     6A1     0.134822     3B2     0.193592  
       3B1     0.193592     7A1     0.206053     8A1     0.304610  
       9A1     0.493331    10A1     0.506150     1A2     0.506150  
       4B2     0.543925     4B1     0.543925    11A1     0.616428  
      12A1     0.688431     5B2     0.700301     5B1     0.700301  
      13A1     0.702332     2A2     0.702332     6B1     0.754215  
       6B2     0.754215    14A1     0.847474     7B2     1.158004  
       7B1     1.158004    15A1     1.348713     8B1     1.426091  
       8B2     1.426091    16A1     1.430728    17A1     1.570142  
      18A1     1.624104     3A2     1.624104     9B2     1.702949  
       9B1     1.702949     4A2     1.889185    19A1     1.889185  
      10B2     1.936666    10B1     1.936666    11B1     1.981600  
      11B2     1.981600    20A1     1.985957    21A1     2.028001  
       5A2     2.028001    22A1     2.073471    12B2     2.380004  
      12B1     2.380004    23A1     2.684832    13B2     2.689745  
      13B1     2.689745    24A1     2.983008    14B2     3.051645  
      14B1     3.051645     6A2     3.072454    25A1     3.072454  
      26A1     3.679415    15B2     4.414849    15B1     4.414849  
      27A1     4.423402    28A1     4.544850     7A2     4.544850  
      16B1     4.702669    16B2     4.702669    29A1     5.028197  
      30A1     5.096010     8A2     5.096010    17B2     5.227732  
      17B1     5.227732    18B2     5.338439    18B1     5.338439  
      31A1     5.400887     9A2     5.400887    32A1     5.538910  
      19B2     5.665472    19B1     5.665472    10A2     5.827774  
      33A1     5.827774    34A1     5.963202    20B2     6.232758  
      20B1     6.232758    35A1     6.563715    21B1     6.608422  
      21B2     6.608422    22B2     7.700224    22B1     7.700224  
      36A1     7.817382    11A2     7.817382    37A1     7.866107  
      38A1     8.496475    12A2     8.531360    39A1     8.531361  
      23B2     8.639514    23B1     8.639514    40A1    10.411394  
      24B2    10.618845    24B1    10.618845    41A1    12.091491  
      13A2    13.326116    42A1    13.326123    25B2    13.422748  
      25B1    13.422748    26B2    13.501757    26B1    13.501757  
      43A1    13.686476    14A2    13.686480    27B2    14.201466  
      27B1    14.201466    44A1    14.217111    45A1    14.777748  
      28B2    15.488042    28B1    15.488042    46A1    15.642932  
      15A2    15.642933    29B2    16.078454    29B1    16.078454  
      47A1    16.444333    16A2    16.444337    48A1    16.911163  
      30B2    17.542925    30B1    17.542925    49A1    19.819986  
      50A1    55.539092  

    Final Occupation by Irrep:
             A1    A2    B1    B2 
    DOCC [     3,    0,    1,    1 ]

  @DF-RKS Final Energy:  -100.35661713364078

   => Energetics <=

    Nuclear Repulsion Energy =              5.1758937128357658
    One-Electron Energy =                -150.5269967243194742
    Two-Electron Energy =                  50.1769561696696158
    DFT Exchange-Correlation Energy =      -5.1823971218266935
    Empirical Dispersion Energy =          -0.0000731700000000
    VV10 Nonlocal Energy =                  0.0000000000000000
    Total Energy =                       -100.3566171336407820

Computation Completed


Properties will be evaluated at   0.000000,   0.000000,   0.000000 [a0]

Properties computed using the SCF density matrix

  Nuclear Dipole Moment: [e a0]
     X:     0.0000      Y:     0.0000      Z:    -0.8629

  Electronic Dipole Moment: [e a0]
     X:     0.0000      Y:     0.0000      Z:     0.1300

  Dipole Moment: [e a0]
     X:     0.0000      Y:     0.0000      Z:    -0.7329     Total:     0.7329

  Dipole Moment: [D]
     X:     0.0000      Y:     0.0000      Z:    -1.8627     Total:     1.8627


*** tstop() called on bp1-login01.data.bp.acrc.priv at Mon Apr 19 15:05:23 2021
Module time:
	user time   =      12.71 seconds =       0.21 minutes
	system time =       0.71 seconds =       0.01 minutes
	total time  =          2 seconds =       0.03 minutes
Total time:
	user time   =      74.57 seconds =       1.24 minutes
	system time =       3.57 seconds =       0.06 minutes
	total time  =          9 seconds =       0.15 minutes

*** tstart() called on bp1-login01.data.bp.acrc.priv
*** at Mon Apr 19 15:05:23 2021

   => Loading Basis Set <=

    Name: (AUG-CC-PV(Q+D)Z AUX)
    Role: RIFIT
    Keyword: DF_BASIS_MP2
    atoms 1 entry F          line   406 file /work/zw18965/.conda/envs/p4env/share/psi4/basis/aug-cc-pvqz-ri.gbs 
    atoms 2 entry H          line    30 file /work/zw18965/.conda/envs/p4env/share/psi4/basis/aug-cc-pvqz-ri.gbs 

	 --------------------------------------------------------
	                          DF-MP2                         
	      2nd-Order Density-Fitted Moller-Plesset Theory     
	              RMP2 Wavefunction,  12 Threads             
	                                                         
	        Rob Parrish, Justin Turney, Andy Simmonett,      
	           Ed Hohenstein, and C. David Sherrill          
	 --------------------------------------------------------

   => Auxiliary Basis Set <=

  Basis Set: (AUG-CC-PV(Q+D)Z AUX)
    Blend: AUG-CC-PVQZ-RI
    Number of shells: 56
    Number of basis function: 248
    Number of Cartesian functions: 342
    Spherical Harmonics?: true
    Max angular momentum: 5

	 --------------------------------------------------------
	                 NBF =   126, NAUX =   248
	 --------------------------------------------------------
	   CLASS    FOCC     OCC    AOCC    AVIR     VIR    FVIR
	   PAIRS       0       5       5     121     121       0
	 --------------------------------------------------------

	-----------------------------------------------------------
	 ==================> DF-MP2 Energies <==================== 
	-----------------------------------------------------------
	 Reference Energy          =    -100.3566171336407820 [Eh]
	 Singles Energy            =      -0.0000000000000000 [Eh]
	 Same-Spin Energy          =      -0.0935192022407016 [Eh]
	 Opposite-Spin Energy      =      -0.2898131887678810 [Eh]
	 Correlation Energy        =      -0.3833323910085826 [Eh]
	 Total Energy              =    -100.7399495246493615 [Eh]
	-----------------------------------------------------------
	 ================> DF-SCS-MP2 Energies <================== 
	-----------------------------------------------------------
	 SCS Same-Spin Scale       =       0.3333333333333333 [-]
	 SCS Opposite-Spin Scale   =       1.2000000000000000 [-]
	 SCS Same-Spin Energy      =      -0.0311730674135672 [Eh]
	 SCS Opposite-Spin Energy  =      -0.3477758265214572 [Eh]
	 SCS Correlation Energy    =      -0.3789488939350243 [Eh]
	 SCS Total Energy          =    -100.7355660275757998 [Eh]
	-----------------------------------------------------------



    B2PLYP-D3BJ Energy Summary
    --------------------------
    DFT Reference Energy                  =  -100.3566171336407820
    Scaled MP2 Correlation                =    -0.1034997455723173
    @Final double-hybrid DFT total energy =  -100.4601168792131034


*** tstop() called on bp1-login01.data.bp.acrc.priv at Mon Apr 19 15:05:24 2021
Module time:
	user time   =       5.27 seconds =       0.09 minutes
	system time =       0.20 seconds =       0.00 minutes
	total time  =          1 seconds =       0.02 minutes
Total time:
	user time   =      79.85 seconds =       1.33 minutes
	system time =       3.77 seconds =       0.06 minutes
	total time  =         10 seconds =       0.17 minutes

  //>>>>>>>>>>>>>>>>>>>>>>>>>>>>>>>>>>>//
  //    Loading displacement 2 of 3    //
  //<<<<<<<<<<<<<<<<<<<<<<<<<<<<<<<<<<<//

*** tstart() called on bp1-login01.data.bp.acrc.priv
*** at Mon Apr 19 15:05:24 2021

   => Loading Basis Set <=

    Name: AUG-CC-PV(Q+D)Z
    Role: ORBITAL
    Keyword: BASIS
    atoms 1 entry F          line   499 file /work/zw18965/.conda/envs/p4env/share/psi4/basis/aug-cc-pv_qpd_z.gbs 
    atoms 2 entry H          line    56 file /work/zw18965/.conda/envs/p4env/share/psi4/basis/aug-cc-pv_qpd_z.gbs 


         ---------------------------------------------------------
                                   SCF
               by Justin Turney, Rob Parrish, Andy Simmonett
                          and Daniel G. A. Smith
                              RKS Reference
                       12 Threads, 137329 MiB Core
         ---------------------------------------------------------

  ==> Geometry <==

    Molecular point group: c2v
    Full point group: C_inf_v

    Geometry (in Angstrom), charge = 0, multiplicity = 1:

       Center              X                  Y                   Z               Mass       
    ------------   -----------------  -----------------  -----------------  -----------------
         F            0.000000000000     0.000000000000     0.046216793703    18.998403162730
         H            0.000000000000     0.000000000000    -0.871227893306     1.007825032230

  Running in c2v symmetry.

  Rotational constants: A = ************  B =     20.92665  C =     20.92665 [cm^-1]
  Rotational constants: A = ************  B = 627365.15983  C = 627365.15983 [MHz]
  Nuclear repulsion =    5.191152080850166

  Charge       = 0
  Multiplicity = 1
  Electrons    = 10
  Nalpha       = 5
  Nbeta        = 5

  ==> Algorithm <==

  SCF Algorithm Type is DF.
  DIIS enabled.
  MOM disabled.
  Fractional occupation disabled.
  Guess Type is READ.
  Energy threshold   = 1.00e-08
  Density threshold  = 1.00e-08
  Integral threshold = 0.00e+00

  ==> Primary Basis <==

  Basis Set: AUG-CC-PV(Q+D)Z
    Blend: AUG-CC-PV(Q+D)Z
    Number of shells: 34
    Number of basis function: 126
    Number of Cartesian functions: 160
    Spherical Harmonics?: true
    Max angular momentum: 4

  ==> DFT Potential <==

   => Composite Functional: B2PLYP-D3BJ <= 

    B2PLYP Double Hybrid Exchange-Correlation Functional

    S. Grimme, J. Chem. Phys., 124, 034108, 2006


    Deriv               =              1
    GGA                 =           TRUE
    Meta                =          FALSE

    Exchange Hybrid     =           TRUE
    MP2 Hybrid          =           TRUE

   => Exchange Functionals <=

    0.4700     XC_GGA_X_B88

   => Exact (HF) Exchange <=

    0.5300               HF 

   => Correlation Functionals <=

    0.7300     XC_GGA_C_LYP

   => MP2 Correlation <=

    0.2700       MP2 

   => Molecular Quadrature <=

    Radial Scheme          =       TREUTLER
    Pruning Scheme         =           FLAT
    Nuclear Scheme         =       TREUTLER

    BS radius alpha        =              1
    Pruning alpha          =              1
    Radial Points          =             75
    Spherical Points       =            302
    Total Points           =          45300
    Total Blocks           =            414
    Max Points             =            256
    Max Functions          =            126

   => B2PLYP-D3(BJ): Empirical Dispersion <=

    Grimme's -D3 (BJ-damping) Dispersion Correction
    Grimme S.; Ehrlich S.; Goerigk L. (2011), J. Comput. Chem., 32: 1456
    Parametrisation from:    L. Goerigk, S. Grimme, Phys. Chem. Chem. Phys. 13, 6670-6688, 2011

        s6 =       0.640000
        s8 =       0.914700
        a1 =       0.306500
        a2 =       5.057000

   => Loading Basis Set <=

    Name: (AUG-CC-PV(Q+D)Z AUX)
    Role: JKFIT
    Keyword: DF_BASIS_SCF
    atoms 1 entry F          line   388 file /work/zw18965/.conda/envs/p4env/share/psi4/basis/aug-cc-pvqz-jkfit.gbs 
    atoms 2 entry H          line    70 file /work/zw18965/.conda/envs/p4env/share/psi4/basis/aug-cc-pvqz-jkfit.gbs 

   => Loading Basis Set <=

    Name: AUG-CC-PV(Q+D)Z
    Role: ORBITAL
    Keyword: BASIS
    atoms 1 entry F          line   499 file /work/zw18965/.conda/envs/p4env/share/psi4/basis/aug-cc-pv_qpd_z.gbs 
    atoms 2 entry H          line    56 file /work/zw18965/.conda/envs/p4env/share/psi4/basis/aug-cc-pv_qpd_z.gbs 

  Reading orbitals from file 180, no projection.

  ==> Pre-Iterations <==

   -------------------------------------------------------
    Irrep   Nso     Nmo     Nalpha   Nbeta   Ndocc  Nsocc
   -------------------------------------------------------
     A1        50      50       0       0       0       0
     A2        16      16       0       0       0       0
     B1        30      30       0       0       0       0
     B2        30      30       0       0       0       0
   -------------------------------------------------------
    Total     126     126       5       5       5       0
   -------------------------------------------------------

  ==> Integral Setup <==

  DFHelper Memory: AOs need 0.031 GiB; user supplied 100.431 GiB. Using in-core AOs.

  ==> MemDFJK: Density-Fitted J/K Matrices <==

    J tasked:                   Yes
    K tasked:                   Yes
    wK tasked:                   No
    OpenMP threads:              12
    Memory [MiB]:            102841
    Algorithm:                 Core
    Schwarz Cutoff:           1E-12
    Mask sparsity (%):       0.0000
    Fitting Condition:        1E-10

   => Auxiliary Basis Set <=

  Basis Set: (AUG-CC-PV(Q+D)Z AUX)
    Blend: AUG-CC-PVQZ-JKFIT
    Number of shells: 52
    Number of basis function: 218
    Number of Cartesian functions: 299
    Spherical Harmonics?: true
    Max angular momentum: 5

  Cached 100.0% of DFT collocation blocks in 0.152 [GiB].

  Minimum eigenvalue in the overlap matrix is 1.1463977420E-04.
  Using Symmetric Orthogonalization.

  SCF Guess: Orbitals guess was supplied from a previous computation.

  ==> Iterations <==

                           Total Energy        Delta E     RMS |[F,P]|

   @DF-RKS iter   0:  -100.35818827990640   -1.00358e+02   1.01294e-04 
   @DF-RKS iter   1:  -100.35666936787160    1.51891e-03   1.25736e-05 DIIS
   @DF-RKS iter   2:  -100.35666954718657   -1.79315e-07   3.79346e-06 DIIS
   @DF-RKS iter   3:  -100.35666956185111   -1.46645e-08   5.29484e-07 DIIS
   @DF-RKS iter   4:  -100.35666956215178   -3.00673e-10   4.58885e-07 DIIS
   @DF-RKS iter   5:  -100.35666956241018   -2.58396e-10   2.59093e-08 DIIS
   @DF-RKS iter   6:  -100.35666956241279   -2.61480e-12   2.54376e-09 DIIS
  Energy and wave function converged.


  ==> Post-Iterations <==

    Orbital Energies [Eh]
    ---------------------

    Doubly Occupied:                                                      

       1A1   -25.355598     2A1    -1.371798     3A1    -0.646664  
       1B2    -0.517746     1B1    -0.517746  

    Virtual:                                                              

       4A1     0.001020     5A1     0.085660     2B1     0.132674  
       2B2     0.132674     6A1     0.135107     3B1     0.193658  
       3B2     0.193658     7A1     0.206040     8A1     0.305004  
       9A1     0.494209    10A1     0.506187     1A2     0.506187  
       4B1     0.543990     4B2     0.543990    11A1     0.616716  
      12A1     0.688497     5B1     0.700176     5B2     0.700176  
      13A1     0.702230     2A2     0.702230     6B2     0.754293  
       6B1     0.754293    14A1     0.846999     7B1     1.158592  
       7B2     1.158592    15A1     1.350608     8B2     1.426115  
       8B1     1.426115    16A1     1.431634    17A1     1.569660  
      18A1     1.624385     3A2     1.624385     9B1     1.702548  
       9B2     1.702548     4A2     1.888325    19A1     1.888325  
      10B2     1.937182    10B1     1.937182    11B2     1.982327  
      11B1     1.982327    20A1     1.986650    21A1     2.028253  
       5A2     2.028253    22A1     2.071852    12B1     2.379738  
      12B2     2.379738    23A1     2.687202    13B2     2.689104  
      13B1     2.689104    24A1     2.985312    14B1     3.055019  
      14B2     3.055019     6A2     3.076784    25A1     3.076784  
      26A1     3.678420    15B1     4.418798    15B2     4.418798  
      27A1     4.427386    28A1     4.544646     7A2     4.544646  
      16B2     4.703449    16B1     4.703449    29A1     5.027335  
      30A1     5.098213     8A2     5.098213    17B2     5.227807  
      17B1     5.227807    18B2     5.338652    18B1     5.338652  
      31A1     5.399922     9A2     5.399923    32A1     5.537711  
      19B2     5.667117    19B1     5.667117    10A2     5.829714  
      33A1     5.829714    34A1     5.960658    20B2     6.232403  
      20B1     6.232403    35A1     6.573269    21B2     6.611905  
      21B1     6.611905    22B1     7.701945    22B2     7.701945  
      36A1     7.822079    11A2     7.822079    37A1     7.872971  
      38A1     8.508759    12A2     8.540131    39A1     8.540132  
      23B2     8.643568    23B1     8.643568    40A1    10.426815  
      24B2    10.637192    24B1    10.637192    41A1    12.083891  
      13A2    13.325882    42A1    13.325889    25B2    13.422996  
      25B1    13.422996    26B2    13.502454    26B1    13.502454  
      43A1    13.689325    14A2    13.689329    27B1    14.207070  
      27B2    14.207070    44A1    14.219869    45A1    14.786005  
      28B2    15.488267    28B1    15.488267    46A1    15.642585  
      15A2    15.642585    29B2    16.077903    29B1    16.077903  
      47A1    16.445946    16A2    16.445951    48A1    16.926424  
      30B2    17.564640    30B1    17.564640    49A1    19.845136  
      50A1    55.559688  

    Final Occupation by Irrep:
             A1    A2    B1    B2 
    DOCC [     3,    0,    1,    1 ]

  @DF-RKS Final Energy:  -100.35666956241279

   => Energetics <=

    Nuclear Repulsion Energy =              5.1911520808501663
    One-Electron Energy =                -150.5527694959368432
    Two-Electron Energy =                  50.1880682365491921
    DFT Exchange-Correlation Energy =      -5.1830472138753123
    Empirical Dispersion Energy =          -0.0000731700000000
    VV10 Nonlocal Energy =                  0.0000000000000000
    Total Energy =                       -100.3566695624127902

Computation Completed


Properties will be evaluated at   0.000000,   0.000000,   0.000000 [a0]

Properties computed using the SCF density matrix

  Nuclear Dipole Moment: [e a0]
     X:     0.0000      Y:     0.0000      Z:    -0.8603

  Electronic Dipole Moment: [e a0]
     X:     0.0000      Y:     0.0000      Z:     0.1294

  Dipole Moment: [e a0]
     X:     0.0000      Y:     0.0000      Z:    -0.7310     Total:     0.7310

  Dipole Moment: [D]
     X:     0.0000      Y:     0.0000      Z:    -1.8580     Total:     1.8580


*** tstop() called on bp1-login01.data.bp.acrc.priv at Mon Apr 19 15:05:25 2021
Module time:
	user time   =      10.77 seconds =       0.18 minutes
	system time =       0.43 seconds =       0.01 minutes
	total time  =          1 seconds =       0.02 minutes
Total time:
	user time   =      90.73 seconds =       1.51 minutes
	system time =       4.20 seconds =       0.07 minutes
	total time  =         11 seconds =       0.18 minutes

*** tstart() called on bp1-login01.data.bp.acrc.priv
*** at Mon Apr 19 15:05:25 2021

   => Loading Basis Set <=

    Name: (AUG-CC-PV(Q+D)Z AUX)
    Role: RIFIT
    Keyword: DF_BASIS_MP2
    atoms 1 entry F          line   406 file /work/zw18965/.conda/envs/p4env/share/psi4/basis/aug-cc-pvqz-ri.gbs 
    atoms 2 entry H          line    30 file /work/zw18965/.conda/envs/p4env/share/psi4/basis/aug-cc-pvqz-ri.gbs 

	 --------------------------------------------------------
	                          DF-MP2                         
	      2nd-Order Density-Fitted Moller-Plesset Theory     
	              RMP2 Wavefunction,  12 Threads             
	                                                         
	        Rob Parrish, Justin Turney, Andy Simmonett,      
	           Ed Hohenstein, and C. David Sherrill          
	 --------------------------------------------------------

   => Auxiliary Basis Set <=

  Basis Set: (AUG-CC-PV(Q+D)Z AUX)
    Blend: AUG-CC-PVQZ-RI
    Number of shells: 56
    Number of basis function: 248
    Number of Cartesian functions: 342
    Spherical Harmonics?: true
    Max angular momentum: 5

	 --------------------------------------------------------
	                 NBF =   126, NAUX =   248
	 --------------------------------------------------------
	   CLASS    FOCC     OCC    AOCC    AVIR     VIR    FVIR
	   PAIRS       0       5       5     121     121       0
	 --------------------------------------------------------

	-----------------------------------------------------------
	 ==================> DF-MP2 Energies <==================== 
	-----------------------------------------------------------
	 Reference Energy          =    -100.3566695624127902 [Eh]
	 Singles Energy            =      -0.0000000000000000 [Eh]
	 Same-Spin Energy          =      -0.0934665787603490 [Eh]
	 Opposite-Spin Energy      =      -0.2896511630374960 [Eh]
	 Correlation Energy        =      -0.3831177417978450 [Eh]
	 Total Energy              =    -100.7397873042106369 [Eh]
	-----------------------------------------------------------
	 ================> DF-SCS-MP2 Energies <================== 
	-----------------------------------------------------------
	 SCS Same-Spin Scale       =       0.3333333333333333 [-]
	 SCS Opposite-Spin Scale   =       1.2000000000000000 [-]
	 SCS Same-Spin Energy      =      -0.0311555262534497 [Eh]
	 SCS Opposite-Spin Energy  =      -0.3475813956449952 [Eh]
	 SCS Correlation Energy    =      -0.3787369218984449 [Eh]
	 SCS Total Energy          =    -100.7354064843112411 [Eh]
	-----------------------------------------------------------



    B2PLYP-D3BJ Energy Summary
    --------------------------
    DFT Reference Energy                  =  -100.3566695624127902
    Scaled MP2 Correlation                =    -0.1034417902854182
    @Final double-hybrid DFT total energy =  -100.4601113526982061


*** tstop() called on bp1-login01.data.bp.acrc.priv at Mon Apr 19 15:05:25 2021
Module time:
	user time   =       3.70 seconds =       0.06 minutes
	system time =       0.12 seconds =       0.00 minutes
	total time  =          0 seconds =       0.00 minutes
Total time:
	user time   =      94.44 seconds =       1.57 minutes
	system time =       4.32 seconds =       0.07 minutes
[...]
  Multiplicity = 1
  Electrons    = 10
  Nalpha       = 5
  Nbeta        = 5

  ==> Algorithm <==

  SCF Algorithm Type is DF.
  DIIS enabled.
  MOM disabled.
  Fractional occupation disabled.
  Guess Type is SAD.
  Energy threshold   = 1.00e-10
  Density threshold  = 1.00e-10
  Integral threshold = 0.00e+00

  ==> Primary Basis <==

  Basis Set: AUG-CC-PV(Q+D)Z
    Blend: AUG-CC-PV(Q+D)Z
    Number of shells: 34
    Number of basis function: 126
    Number of Cartesian functions: 160
    Spherical Harmonics?: true
    Max angular momentum: 4

  ==> DFT Potential <==

   => Composite Functional: B2PLYP-D3BJ <= 

    B2PLYP Double Hybrid Exchange-Correlation Functional

    S. Grimme, J. Chem. Phys., 124, 034108, 2006


    Deriv               =              1
    GGA                 =           TRUE
    Meta                =          FALSE

    Exchange Hybrid     =           TRUE
    MP2 Hybrid          =           TRUE

   => Exchange Functionals <=

    0.4700     XC_GGA_X_B88

   => Exact (HF) Exchange <=

    0.5300               HF 

   => Correlation Functionals <=

    0.7300     XC_GGA_C_LYP

   => MP2 Correlation <=

    0.2700       MP2 

   => Molecular Quadrature <=

    Radial Scheme          =       TREUTLER
    Pruning Scheme         =           FLAT
    Nuclear Scheme         =       TREUTLER

    BS radius alpha        =              1
    Pruning alpha          =              1
    Radial Points          =             75
    Spherical Points       =            302
    Total Points           =          45300
    Total Blocks           =            417
    Max Points             =            255
    Max Functions          =            126

   => B2PLYP-D3(BJ): Empirical Dispersion <=

    Grimme's -D3 (BJ-damping) Dispersion Correction
    Grimme S.; Ehrlich S.; Goerigk L. (2011), J. Comput. Chem., 32: 1456
    Parametrisation from:    L. Goerigk, S. Grimme, Phys. Chem. Chem. Phys. 13, 6670-6688, 2011

        s6 =       0.640000
        s8 =       0.914700
        a1 =       0.306500
        a2 =       5.057000

   => Loading Basis Set <=

    Name: (AUG-CC-PV(Q+D)Z AUX)
    Role: JKFIT
    Keyword: DF_BASIS_SCF
    atoms 1 entry F          line   388 file /work/zw18965/.conda/envs/p4env/share/psi4/basis/aug-cc-pvqz-jkfit.gbs 
    atoms 2 entry H          line    70 file /work/zw18965/.conda/envs/p4env/share/psi4/basis/aug-cc-pvqz-jkfit.gbs 

  ==> Pre-Iterations <==

   -------------------------------------------------------
    Irrep   Nso     Nmo     Nalpha   Nbeta   Ndocc  Nsocc
   -------------------------------------------------------
     A1        50      50       0       0       0       0
     A2        16      16       0       0       0       0
     B1        30      30       0       0       0       0
     B2        30      30       0       0       0       0
   -------------------------------------------------------
    Total     126     126       5       5       5       0
   -------------------------------------------------------

  ==> Integral Setup <==

  DFHelper Memory: AOs need 0.031 GiB; user supplied 100.431 GiB. Using in-core AOs.

  ==> MemDFJK: Density-Fitted J/K Matrices <==

    J tasked:                   Yes
    K tasked:                   Yes
    wK tasked:                   No
    OpenMP threads:              12
    Memory [MiB]:            102841
    Algorithm:                 Core
    Schwarz Cutoff:           1E-12
    Mask sparsity (%):       0.0000
    Fitting Condition:        1E-10

   => Auxiliary Basis Set <=

  Basis Set: (AUG-CC-PV(Q+D)Z AUX)
    Blend: AUG-CC-PVQZ-JKFIT
    Number of shells: 52
    Number of basis function: 218
    Number of Cartesian functions: 299
    Spherical Harmonics?: true
    Max angular momentum: 5

  Cached 100.0% of DFT collocation blocks in 0.152 [GiB].

  Minimum eigenvalue in the overlap matrix is 1.1666088399E-04.
  Using Symmetric Orthogonalization.

  SCF Guess: Superposition of Atomic Densities via on-the-fly atomic UHF.

  ==> Iterations <==

                           Total Energy        Delta E     RMS |[F,P]|

   @DF-RKS iter SAD:  -100.01608023738684   -1.00016e+02   0.00000e+00 
   @DF-RKS iter   1:  -100.30704378968302   -2.90964e-01   5.86647e-03 DIIS
   @DF-RKS iter   2:  -100.29914528967231    7.89850e-03   6.88255e-03 DIIS
   @DF-RKS iter   3:  -100.35650973031068   -5.73644e-02   1.67233e-04 DIIS
   @DF-RKS iter   4:  -100.35655737410576   -4.76438e-05   4.11090e-05 DIIS
   @DF-RKS iter   5:  -100.35656038560944   -3.01150e-06   5.51197e-06 DIIS
   @DF-RKS iter   6:  -100.35656050339780   -1.17788e-07   9.55341e-07 DIIS
   @DF-RKS iter   7:  -100.35656050678270   -3.38490e-09   7.26552e-08 DIIS
   @DF-RKS iter   8:  -100.35656050680343   -2.07336e-11   8.26717e-09 DIIS
   @DF-RKS iter   9:  -100.35656050680392   -4.83169e-13   4.92353e-10 DIIS
   @DF-RKS iter  10:  -100.35656050680383    8.52651e-14   2.84022e-11 DIIS
  Energy and wave function converged.


  ==> Post-Iterations <==

    Orbital Energies [Eh]
    ---------------------

    Doubly Occupied:                                                      

       1A1   -25.355690     2A1    -1.370125     3A1    -0.645152  
       1B2    -0.517267     1B1    -0.517267  

    Virtual:                                                              

       4A1     0.000722     5A1     0.085394     2B2     0.132691  
       2B1     0.132691     6A1     0.134582     3B2     0.193536  
       3B1     0.193536     7A1     0.206064     8A1     0.304277  
       9A1     0.492591    10A1     0.506118     1A2     0.506118  
       4B2     0.543874     4B1     0.543874    11A1     0.616193  
      12A1     0.688374     5B2     0.700401     5B1     0.700401  
      13A1     0.702417     2A2     0.702417     6B2     0.754147  
       6B1     0.754147    14A1     0.847878     7B2     1.157512  
       7B1     1.157512    15A1     1.347113     8B2     1.426070  
       8B1     1.426070    16A1     1.429959    17A1     1.570571  
      18A1     1.623867     3A2     1.623867     9B1     1.703280  
       9B2     1.703280     4A2     1.889910    19A1     1.889910  
      10B1     1.936237    10B2     1.936237    11B2     1.980988  
      11B1     1.980988    20A1     1.985361    21A1     2.027793  
       5A2     2.027793    22A1     2.074839    12B2     2.380170  
      12B1     2.380170    23A1     2.682834    13B1     2.690364  
      13B2     2.690364    24A1     2.981078    14B2     3.048803  
      14B1     3.048803     6A2     3.068806    25A1     3.068806  
      26A1     3.680197    15B1     4.411485    15B2     4.411485  
      27A1     4.420175    28A1     4.545022     7A2     4.545022  
      16B1     4.702014    16B2     4.702014    29A1     5.028878  
      30A1     5.094145     8A2     5.094146    17B2     5.227639  
      17B1     5.227639    18B1     5.338262    18B2     5.338262  
      31A1     5.401697     9A2     5.401698    32A1     5.539809  
      19B1     5.664064    19B2     5.664064    10A2     5.826142  
      33A1     5.826142    34A1     5.965445    20B1     6.233148  
      20B2     6.233148    35A1     6.555750    21B2     6.605507  
      21B1     6.605507    22B1     7.698771    22B2     7.698771  
      36A1     7.813325    11A2     7.813325    37A1     7.860181  
      38A1     8.486328    12A2     8.524118    39A1     8.524119  
      23B1     8.636178    23B2     8.636178    40A1    10.398530  
      24B1    10.603386    24B2    10.603386    41A1    12.097311  
      13A2    13.326313    42A1    13.326319    25B1    13.422538  
      25B2    13.422538    26B1    13.501073    26B2    13.501073  
      43A1    13.684128    14A2    13.684132    27B1    14.196676  
      27B2    14.196676    44A1    14.214944    45A1    14.770859  
      28B1    15.487853    28B2    15.487853    46A1    15.643207  
      15A2    15.643207    29B1    16.079045    29B2    16.079045  
      47A1    16.442987    16A2    16.442991    48A1    16.898605  
      30B1    17.524784    30B2    17.524784    49A1    19.798638  
      50A1    55.521825  

    Final Occupation by Irrep:
             A1    A2    B1    B2 
    DOCC [     3,    0,    1,    1 ]

  @DF-RKS Final Energy:  -100.35656050680383

   => Energetics <=

    Nuclear Repulsion Energy =              5.1631002742769221
    One-Electron Energy =                -150.5053685592252748
    Two-Electron Energy =                  50.1676331019611865
    DFT Exchange-Correlation Energy =      -5.1818521538166609
    Empirical Dispersion Energy =          -0.0000731700000000
    VV10 Nonlocal Energy =                  0.0000000000000000
    Total Energy =                       -100.3565605068038167

Computation Completed


Properties will be evaluated at   0.000000,   0.000000,   0.000000 [a0]

Properties computed using the SCF density matrix

  Nuclear Dipole Moment: [e a0]
     X:     0.0000      Y:     0.0000      Z:    -0.8650

  Electronic Dipole Moment: [e a0]
     X:     0.0000      Y:     0.0000      Z:     0.1306

  Dipole Moment: [e a0]
     X:     0.0000      Y:     0.0000      Z:    -0.7344     Total:     0.7344

  Dipole Moment: [D]
     X:     0.0000      Y:     0.0000      Z:    -1.8668     Total:     1.8668


*** tstop() called on bp1-login01.data.bp.acrc.priv at Mon Apr 19 15:05:46 2021
Module time:
	user time   =      20.88 seconds =       0.35 minutes
	system time =       0.82 seconds =       0.01 minutes
	total time  =          2 seconds =       0.03 minutes
Total time:
	user time   =     284.62 seconds =       4.74 minutes
	system time =      12.19 seconds =       0.20 minutes
	total time  =         32 seconds =       0.53 minutes

*** tstart() called on bp1-login01.data.bp.acrc.priv
*** at Mon Apr 19 15:05:46 2021

   => Loading Basis Set <=

    Name: (AUG-CC-PV(Q+D)Z AUX)
    Role: RIFIT
    Keyword: DF_BASIS_MP2
    atoms 1 entry F          line   406 file /work/zw18965/.conda/envs/p4env/share/psi4/basis/aug-cc-pvqz-ri.gbs 
    atoms 2 entry H          line    30 file /work/zw18965/.conda/envs/p4env/share/psi4/basis/aug-cc-pvqz-ri.gbs 

	 --------------------------------------------------------
	                          DF-MP2                         
	      2nd-Order Density-Fitted Moller-Plesset Theory     
	              RMP2 Wavefunction,  12 Threads             
	                                                         
	        Rob Parrish, Justin Turney, Andy Simmonett,      
	           Ed Hohenstein, and C. David Sherrill          
	 --------------------------------------------------------

   => Auxiliary Basis Set <=

  Basis Set: (AUG-CC-PV(Q+D)Z AUX)
    Blend: AUG-CC-PVQZ-RI
    Number of shells: 56
    Number of basis function: 248
    Number of Cartesian functions: 342
    Spherical Harmonics?: true
    Max angular momentum: 5

	 --------------------------------------------------------
	                 NBF =   126, NAUX =   248
	 --------------------------------------------------------
	   CLASS    FOCC     OCC    AOCC    AVIR     VIR    FVIR
	   PAIRS       0       5       5     121     121       0
	 --------------------------------------------------------

	-----------------------------------------------------------
	 ==================> DF-MP2 Energies <==================== 
	-----------------------------------------------------------
	 Reference Energy          =    -100.3565605068038309 [Eh]
	 Singles Energy            =      -0.0000000000000000 [Eh]
	 Same-Spin Energy          =      -0.0935635137983109 [Eh]
	 Opposite-Spin Energy      =      -0.2899499666427187 [Eh]
	 Correlation Energy        =      -0.3835134804410296 [Eh]
	 Total Energy              =    -100.7400739872448554 [Eh]
	-----------------------------------------------------------
	 ================> DF-SCS-MP2 Energies <================== 
	-----------------------------------------------------------
	 SCS Same-Spin Scale       =       0.3333333333333333 [-]
	 SCS Opposite-Spin Scale   =       1.2000000000000000 [-]
	 SCS Same-Spin Energy      =      -0.0311878379327703 [Eh]
	 SCS Opposite-Spin Energy  =      -0.3479399599712624 [Eh]
	 SCS Correlation Energy    =      -0.3791277979040327 [Eh]
	 SCS Total Energy          =    -100.7356883047078639 [Eh]
	-----------------------------------------------------------



    B2PLYP-D3BJ Energy Summary
    --------------------------
    DFT Reference Energy                  =  -100.3565605068038309
    Scaled MP2 Correlation                =    -0.1035486397190780
    @Final double-hybrid DFT total energy =  -100.4601091465229104


*** tstop() called on bp1-login01.data.bp.acrc.priv at Mon Apr 19 15:05:47 2021
Module time:
	user time   =       8.12 seconds =       0.14 minutes
	system time =       0.32 seconds =       0.01 minutes
	total time  =          1 seconds =       0.02 minutes
Total time:
	user time   =     292.74 seconds =       4.88 minutes
	system time =      12.51 seconds =       0.21 minutes
	total time  =         33 seconds =       0.55 minutes

         ----------------------------------------------------------
                                   FINDIF
                     R. A. King and Jonathon Misiewicz
         ---------------------------------------------------------

  Computing second-derivative from energies using projected, 
  symmetry-adapted, cartesian coordinates.

  3 energies passed in, including the reference geometry.
    Using 3-point formula.
    Energy without displacement: -100.4601170743
    Check energies below for precision!
    0: -1 :      -100.4601090173
    0: 1  :      -100.4601091465

-------------------------------------------------------------


  ==> Harmonic Vibrational Analysis <==

  non-mass-weighted Hessian:       Symmetric? True   Hermitian? True   Lin Dep Dim?  5 (0)
  projection of translations (True) and rotations (True) removed 5 degrees of freedom (5)
  total projector:                 Symmetric? True   Hermitian? True   Lin Dep Dim?  5 (5)
  mass-weighted Hessian:           Symmetric? True   Hermitian? True   Lin Dep Dim?  5 (0)
  pre-proj  low-frequency mode:    0.0000i [cm^-1]
  pre-proj  low-frequency mode:    0.0000  [cm^-1]
  pre-proj  low-frequency mode:    0.0000  [cm^-1]
  pre-proj  low-frequency mode:    0.0000  [cm^-1]
  pre-proj  low-frequency mode:    0.0000  [cm^-1]
  pre-proj  all modes:['0.0000i' '0.0000' '0.0000' '0.0000' '0.0000' '4110.4282']
  projected mass-weighted Hessian: Symmetric? True   Hermitian? True   Lin Dep Dim?  5 (5)
  post-proj low-frequency mode:    0.0000i [cm^-1] (TR)
  post-proj low-frequency mode:    0.0000  [cm^-1] (TR)
  post-proj low-frequency mode:    0.0000  [cm^-1] (TR)
  post-proj low-frequency mode:    0.0000  [cm^-1] (TR)
  post-proj low-frequency mode:    0.0000  [cm^-1] (TR)
  post-proj  all modes:['0.0000i' '0.0000' '0.0000' '0.0000' '0.0000' '4110.4282']

  Vibration                       6           
  Freq [cm^-1]                4110.4282       
  Irrep                           A1          
  Reduced mass [u]              1.0583        
  Force const [mDyne/A]        10.5351        
  Turning point v=0 [a0]        0.1664        
  RMS dev v=0 [a0 u^1/2]        0.1210        
  Char temp [K]               5913.9910       
  ----------------------------------------------------------------------------------
      1   F                0.00  0.00 -0.05   
      2   H                0.00  0.00  1.00   

  ==> Thermochemistry Components <==

  Entropy, S
    Electronic S            0.000 [cal/(mol K)]        0.000 [J/(mol K)]       0.00000000 [mEh/K] (multiplicity = 1)
    Translational S        34.921 [cal/(mol K)]      146.112 [J/(mol K)]       0.05565095 [mEh/K] (mol. weight = 20.0062 [u], P = 101325.00 [Pa])
    Rotational S            6.553 [cal/(mol K)]       27.419 [J/(mol K)]       0.01044333 [mEh/K] (symmetry no. = 1)
    Vibrational S           0.000 [cal/(mol K)]        0.000 [J/(mol K)]       0.00000000 [mEh/K]
  Total S                  41.475 [cal/(mol K)]      173.531 [J/(mol K)]       0.06609428 [mEh/K]
  Correction S              0.000 [cal/(mol K)]        0.000 [J/(mol K)]       0.00000000 [mEh/K]

  Constant volume heat capacity, Cv
    Electronic Cv           0.000 [cal/(mol K)]        0.000 [J/(mol K)]       0.00000000 [mEh/K]
    Translational Cv        2.981 [cal/(mol K)]       12.472 [J/(mol K)]       0.00475022 [mEh/K]
    Rotational Cv           1.987 [cal/(mol K)]        8.314 [J/(mol K)]       0.00316681 [mEh/K]
    Vibrational Cv          0.000 [cal/(mol K)]        0.000 [J/(mol K)]       0.00000000 [mEh/K]
  Total Cv                  4.968 [cal/(mol K)]       20.786 [J/(mol K)]       0.00791703 [mEh/K]
  Correction Cv             0.000 [cal/(mol K)]        0.000 [J/(mol K)]       0.00000000 [mEh/K]

  Constant pressure heat capacity, Cp
    Electronic Cp           0.000 [cal/(mol K)]        0.000 [J/(mol K)]       0.00000000 [mEh/K]
    Translational Cp        4.968 [cal/(mol K)]       20.786 [J/(mol K)]       0.00791703 [mEh/K]
    Rotational Cp           1.987 [cal/(mol K)]        8.314 [J/(mol K)]       0.00316681 [mEh/K]
    Vibrational Cp          0.000 [cal/(mol K)]        0.000 [J/(mol K)]       0.00000000 [mEh/K]
  Total Cp                  6.955 [cal/(mol K)]       29.101 [J/(mol K)]       0.01108384 [mEh/K]
  Correction Cp             0.000 [cal/(mol K)]        0.000 [J/(mol K)]       0.00000000 [mEh/K]

  ==> Thermochemistry Energy Analysis <==

  Raw electronic energy, E0
  Total E0, Electronic energy at well bottom at 0 [K]                 -100.46011707 [Eh]

  Zero-point energy, ZPE_vib = Sum_i nu_i / 2
    Electronic ZPE          0.000 [kcal/mol]        0.000 [kJ/mol]       0.00000000 [Eh]
    Translational ZPE       0.000 [kcal/mol]        0.000 [kJ/mol]       0.00000000 [Eh]
    Rotational ZPE          0.000 [kcal/mol]        0.000 [kJ/mol]       0.00000000 [Eh]
    Vibrational ZPE         5.876 [kcal/mol]       24.586 [kJ/mol]       0.00936424 [Eh]        2055.214 [cm^-1]
  Correction ZPE            5.876 [kcal/mol]       24.586 [kJ/mol]       0.00936424 [Eh]        2055.214 [cm^-1]
  Total ZPE, Electronic energy at 0 [K]                               -100.45075283 [Eh]

  Thermal Energy, E (includes ZPE)
    Electronic E            0.000 [kcal/mol]        0.000 [kJ/mol]       0.00000000 [Eh]
    Translational E         0.889 [kcal/mol]        3.718 [kJ/mol]       0.00141628 [Eh]
    Rotational E            0.592 [kcal/mol]        2.479 [kJ/mol]       0.00094418 [Eh]
    Vibrational E           5.876 [kcal/mol]       24.586 [kJ/mol]       0.00936424 [Eh]
  Correction E              7.357 [kcal/mol]       30.783 [kJ/mol]       0.01172471 [Eh]
  Total E, Electronic energy at  298.15 [K]                           -100.44839237 [Eh]

  Enthalpy, H_trans = E_trans + k_B * T
    Electronic H            0.000 [kcal/mol]        0.000 [kJ/mol]       0.00000000 [Eh]
    Translational H         1.481 [kcal/mol]        6.197 [kJ/mol]       0.00236046 [Eh]
    Rotational H            0.592 [kcal/mol]        2.479 [kJ/mol]       0.00094418 [Eh]
    Vibrational H           5.876 [kcal/mol]       24.586 [kJ/mol]       0.00936424 [Eh]
  Correction H              7.950 [kcal/mol]       33.262 [kJ/mol]       0.01266889 [Eh]
  Total H, Enthalpy at  298.15 [K]                                    -100.44744818 [Eh]

  Gibbs free energy, G = H - T * S
    Electronic G            0.000 [kcal/mol]        0.000 [kJ/mol]       0.00000000 [Eh]
    Translational G        -8.931 [kcal/mol]      -37.366 [kJ/mol]      -0.01423187 [Eh]
    Rotational G           -1.361 [kcal/mol]       -5.696 [kJ/mol]      -0.00216949 [Eh]
    Vibrational G           5.876 [kcal/mol]       24.586 [kJ/mol]       0.00936424 [Eh]
  Correction G             -4.416 [kcal/mol]      -18.476 [kJ/mol]      -0.00703712 [Eh]
  Total G, Free enthalpy at  298.15 [K]                               -100.46715419 [Eh]

    Psi4 stopped on: Monday, 19 April 2021 03:05PM
    Psi4 wall time for execution: 0:00:33.53

*** Psi4 exiting successfully. Buy a developer a beer!
