
    -----------------------------------------------------------------------
          Psi4: An Open-Source Ab Initio Electronic Structure Package
                               Psi4 1.3.2 release

                         Git: Rev {HEAD} ecbda83 


    R. M. Parrish, L. A. Burns, D. G. A. Smith, A. C. Simmonett,
    A. E. DePrince III, E. G. Hohenstein, U. Bozkaya, A. Yu. Sokolov,
    R. Di Remigio, R. M. Richard, J. F. Gonthier, A. M. James,
    H. R. McAlexander, A. Kumar, M. Saitow, X. Wang, B. P. Pritchard,
    P. Verma, H. F. Schaefer III, K. Patkowski, R. A. King, E. F. Valeev,
    F. A. Evangelista, J. M. Turney, T. D. Crawford, and C. D. Sherrill,
    J. Chem. Theory Comput. 13(7) pp 3185--3197 (2017).
    (doi: 10.1021/acs.jctc.7b00174)


                         Additional Contributions by
    P. Kraus, H. Kruse, M. H. Lechner, M. C. Schieber, R. A. Shaw,
    A. Alenaizan, R. Galvelis, Z. L. Glick, S. Lehtola, and J. P. Misiewicz

    -----------------------------------------------------------------------


    Psi4 started on: Monday, 19 April 2021 03:37PM

    Process ID: 14393
    Host:       bp1-compute00149.data.bp.acrc.priv
    PSIDATADIR: /work/zw18965/.conda/envs/p4env/share/psi4
    Memory:     500.0 MiB
    Threads:    24
    
  ==> Input File <==

--------------------------------------------------------------------------
memory 144 GB

molecule {
0 1
N     0.549269328753   0.000000000000   0.000000000000
N    -0.549269328753   0.000000000000   0.000000000000}

set basis aug-cc-pV(Q+d)Z
 
optimize("B2PLYP-D3BJ")
frequencies("B2PLYP-D3BJ")--------------------------------------------------------------------------

  Memory set to 134.110 GiB by Python driver.
gradient() will perform gradient computation by finite difference of analytic energies.

         ----------------------------------------------------------
                                   FINDIF
                     R. A. King and Jonathon Misiewicz
         ---------------------------------------------------------

  Using finite-differences of energies to determine gradients.
    Generating geometries for use with 3-point formula.
    Displacement size will be 5.00e-03.
    Number of atoms is 2.
    Number of symmetric SALCs is 1.
    Translations projected? 1. Rotations projected? 1.
    Number of geometries (including reference) is 3.

  //>>>>>>>>>>>>>>>>>>>>>>>>>>>>>>>>>>>//
  //    Loading displacement 1 of 3    //
  //<<<<<<<<<<<<<<<<<<<<<<<<<<<<<<<<<<<//

*** tstart() called on bp1-compute00149.data.bp.acrc.priv
*** at Mon Apr 19 15:37:07 2021

   => Loading Basis Set <=

    Name: AUG-CC-PV(Q+D)Z
    Role: ORBITAL
    Keyword: BASIS
    atoms 1-2 entry N          line   379 file /work/zw18965/.conda/envs/p4env/share/psi4/basis/aug-cc-pv_qpd_z.gbs 


         ---------------------------------------------------------
                                   SCF
               by Justin Turney, Rob Parrish, Andy Simmonett
                          and Daniel G. A. Smith
                              RKS Reference
                       24 Threads, 137329 MiB Core
         ---------------------------------------------------------

  ==> Geometry <==

    Molecular point group: d2h
    Full point group: D_inf_h

    Geometry (in Angstrom), charge = 0, multiplicity = 1:

       Center              X                  Y                   Z               Mass       
    ------------   -----------------  -----------------  -----------------  -----------------
         N            0.549269328753     0.000000000000     0.000000000000    14.003074004430
         N           -0.549269328753    -0.000000000000     0.000000000000    14.003074004430

  Running in d2h symmetry.

  Rotational constants: A = ************  B =      1.99514  C =      1.99514 [cm^-1]
  Rotational constants: A = ************  B =  59812.66075  C =  59812.66075 [MHz]
  Nuclear repulsion =   23.603796867465611

  Charge       = 0
  Multiplicity = 1
  Electrons    = 14
  Nalpha       = 7
  Nbeta        = 7

  ==> Algorithm <==

  SCF Algorithm Type is DF.
  DIIS enabled.
  MOM disabled.
  Fractional occupation disabled.
  Guess Type is SAD.
  Energy threshold   = 1.00e-08
  Density threshold  = 1.00e-08
  Integral threshold = 0.00e+00

  ==> Primary Basis <==

  Basis Set: AUG-CC-PV(Q+D)Z
    Blend: AUG-CC-PV(Q+D)Z
    Number of shells: 40
    Number of basis function: 160
    Number of Cartesian functions: 210
    Spherical Harmonics?: true
    Max angular momentum: 4

  ==> DFT Potential <==

   => Composite Functional: B2PLYP-D3BJ <= 

    B2PLYP Double Hybrid Exchange-Correlation Functional

    S. Grimme, J. Chem. Phys., 124, 034108, 2006


    Deriv               =              1
    GGA                 =           TRUE
    Meta                =          FALSE

    Exchange Hybrid     =           TRUE
    MP2 Hybrid          =           TRUE

   => Exchange Functionals <=

    0.4700     XC_GGA_X_B88

   => Exact (HF) Exchange <=

    0.5300               HF 

   => Correlation Functionals <=

    0.7300     XC_GGA_C_LYP

   => MP2 Correlation <=

    0.2700       MP2 

   => Molecular Quadrature <=

    Radial Scheme          =       TREUTLER
    Pruning Scheme         =           FLAT
    Nuclear Scheme         =       TREUTLER

    BS radius alpha        =              1
    Pruning alpha          =              1
    Radial Points          =             75
    Spherical Points       =            302
    Total Points           =          45300
    Total Blocks           =            426
    Max Points             =            256
    Max Functions          =            160

   => B2PLYP-D3(BJ): Empirical Dispersion <=

    Grimme's -D3 (BJ-damping) Dispersion Correction
    Grimme S.; Ehrlich S.; Goerigk L. (2011), J. Comput. Chem., 32: 1456
    Parametrisation from:    L. Goerigk, S. Grimme, Phys. Chem. Chem. Phys. 13, 6670-6688, 2011

        s6 =       0.640000
        s8 =       0.914700
        a1 =       0.306500
        a2 =       5.057000

   => Loading Basis Set <=

    Name: (AUG-CC-PV(Q+D)Z AUX)
    Role: JKFIT
    Keyword: DF_BASIS_SCF
    atoms 1-2 entry N          line   248 file /work/zw18965/.conda/envs/p4env/share/psi4/basis/aug-cc-pvqz-jkfit.gbs 

  ==> Pre-Iterations <==

   -------------------------------------------------------
    Irrep   Nso     Nmo     Nalpha   Nbeta   Ndocc  Nsocc
   -------------------------------------------------------
     Ag        31      31       0       0       0       0
     B1g       19      19       0       0       0       0
     B2g       19      19       0       0       0       0
     B3g       11      11       0       0       0       0
     Au        11      11       0       0       0       0
     B1u       19      19       0       0       0       0
     B2u       19      19       0       0       0       0
     B3u       31      31       0       0       0       0
   -------------------------------------------------------
    Total     160     160       7       7       7       0
   -------------------------------------------------------

  ==> Integral Setup <==

  DFHelper Memory: AOs need 0.066 GiB; user supplied 100.392 GiB. Using in-core AOs.

  ==> MemDFJK: Density-Fitted J/K Matrices <==

    J tasked:                   Yes
    K tasked:                   Yes
    wK tasked:                   No
    OpenMP threads:              24
    Memory [MiB]:            102801
    Algorithm:                 Core
    Schwarz Cutoff:           1E-12
    Mask sparsity (%):       0.0000
    Fitting Condition:        1E-10

   => Auxiliary Basis Set <=

  Basis Set: (AUG-CC-PV(Q+D)Z AUX)
    Blend: AUG-CC-PVQZ-JKFIT
    Number of shells: 68
    Number of basis function: 284
    Number of Cartesian functions: 396
    Spherical Harmonics?: true
    Max angular momentum: 5

  Cached 100.0% of DFT collocation blocks in 0.191 [GiB].

  Minimum eigenvalue in the overlap matrix is 3.2207725221E-05.
  Using Symmetric Orthogonalization.

  SCF Guess: Superposition of Atomic Densities via on-the-fly atomic UHF.

  ==> Iterations <==

                           Total Energy        Delta E     RMS |[F,P]|

   @DF-RKS iter SAD:  -108.68301177143752   -1.08683e+02   0.00000e+00 
   @DF-RKS iter   1:  -109.36195557151770   -6.78944e-01   3.93451e-03 DIIS
   @DF-RKS iter   2:  -109.37749542176060   -1.55399e-02   1.89519e-03 DIIS
   @DF-RKS iter   3:  -109.38231011409444   -4.81469e-03   9.88391e-05 DIIS
   @DF-RKS iter   4:  -109.38232329178135   -1.31777e-05   1.43299e-05 DIIS
   @DF-RKS iter   5:  -109.38232355612617   -2.64345e-07   1.52454e-06 DIIS
   @DF-RKS iter   6:  -109.38232356395469   -7.82852e-09   1.18392e-07 DIIS
   @DF-RKS iter   7:  -109.38232356401470   -6.00124e-11   6.44641e-09 DIIS
  Energy and wave function converged.


  ==> Post-Iterations <==

    Orbital Energies [Eh]
    ---------------------

    Doubly Occupied:                                                      

       1Ag   -14.951159     1B3u  -14.948622     2Ag    -1.272844  
       2B3u   -0.651941     1B1u   -0.532676     1B2u   -0.532676  
       3Ag    -0.520483  

    Virtual:                                                              

       1B1g    0.035140     1B2g    0.035140     3B3u    0.053746  
       4Ag     0.067685     2B2u    0.078792     2B1u    0.078792  
       5Ag     0.109850     2B1g    0.126006     2B2g    0.126006  
       4B3u    0.209154     6Ag     0.259074     1B3g    0.259074  
       7Ag     0.309949     5B3u    0.358813     3B1g    0.367663  
       3B2g    0.367663     3B2u    0.374549     3B1u    0.374549  
       6B3u    0.376054     1Au     0.376054     4B1u    0.474039  
       4B2u    0.474039     7B3u    0.550969     8Ag     0.558666  
       9Ag     0.704636     4B1g    0.768000     4B2g    0.768000  
       8B3u    0.789705     5B2u    0.855800     5B1u    0.855800  
       2B3g    0.884209    10Ag     0.884209     6B2u    0.948626  
       6B1u    0.948626     9B3u    0.971864     2Au     0.971864  
      10B3u    1.075788    11Ag     1.083729     5B1g    1.096509  
       5B2g    1.096509     6B1g    1.098210     6B2g    1.098210  
      12Ag     1.103492     3B3g    1.103492    11B3u    1.304136  
       7B1u    1.460856     7B2u    1.460856    13Ag     1.473829  
      12B3u    1.581861     3Au     1.581861     7B1g    1.631039  
       7B2g    1.631039    13B3u    1.685332     8B1u    1.915832  
       8B2u    1.915832     4B3g    2.522153    14Ag     2.522153  
      15Ag     2.531660     9B1u    2.653848     9B2u    2.653848  
      16Ag     2.662362     5B3g    2.662362    17Ag     2.686205  
       8B1g    2.756311     8B2g    2.756311    14B3u    2.785807  
      10B2u    2.868589    10B1u    2.868589    15B3u    2.943024  
       4Au     2.943025    16B3u    2.953281     5Au     2.966884  
      17B3u    2.966885    11B1u    2.970248    11B2u    2.970248  
       9B2g    2.987917     9B1g    2.987917    12B1u    2.994571  
      12B2u    2.994571    18Ag     2.995147     6B3g    2.995147  
      19Ag     3.180559    10B1g    3.182261    10B2g    3.182261  
      18B3u    3.250265     6Au     3.250266    19B3u    3.357503  
      20Ag     3.383656    11B1g    3.404111    11B2g    3.404111  
      21Ag     3.679005     7B3g    3.679005    12B2g    3.744675  
      12B1g    3.744675    13B2u    4.584415    13B1u    4.584415  
       7Au     4.939446    20B3u    4.939446    21B3u    5.027004  
      22Ag     5.306360    22B3u    5.507946    13B1g    5.532019  
      13B2g    5.532019    14B1u    7.503148    14B2u    7.503148  
       8B3g    7.561192    23Ag     7.561192    15B1u    7.712063  
      15B2u    7.712063     9B3g    7.793016    24Ag     7.793030  
      25Ag     7.828237    14B1g    8.057651    14B2g    8.057651  
       8Au     8.116693    23B3u    8.116709    16B1u    8.196702  
      16B2u    8.196702    26Ag     8.499904    15B1g    8.558773  
      15B2g    8.558773    24B3u    8.583934     9Au     8.583943  
      16B2g    8.639726    16B1g    8.639726    17B1u    8.787935  
      17B2u    8.787935    25B3u    8.874533    27Ag     9.017676  
      10B3g    9.017681    26B3u    9.035427    17B2g    9.085036  
      17B1g    9.085036    28Ag     9.144510    29Ag     9.258271  
      11B3g    9.258282    18B2u    9.409850    18B1u    9.409850  
      27B3u   10.026142    10Au    10.026150    11Au    10.288235  
      28B3u   10.288237    19B2u   10.454355    19B1u   10.454355  
      18B1g   10.833488    18B2g   10.833488    29B3u   10.995600  
      30Ag    12.592300    19B1g   12.852424    19B2g   12.852424  
      30B3u   13.693570    31B3u   32.400484    31Ag    32.795367  

    Final Occupation by Irrep:
             Ag   B1g   B2g   B3g    Au   B1u   B2u   B3u 
    DOCC [     3,    0,    0,    0,    0,    1,    1,    2 ]

  @DF-RKS Final Energy:  -109.38232356401470

   => Energetics <=

    Nuclear Repulsion Energy =             23.6037968674656113
    One-Electron Energy =                -194.4280238132552086
    Two-Electron Energy =                  67.9966415688281671
    DFT Exchange-Correlation Energy =      -6.5544091770532642
    Empirical Dispersion Energy =          -0.0003290100000000
    VV10 Nonlocal Energy =                  0.0000000000000000
    Total Energy =                       -109.3823235640146976

Computation Completed


Properties will be evaluated at   0.000000,   0.000000,   0.000000 [a0]

Properties computed using the SCF density matrix

  Nuclear Dipole Moment: [e a0]
     X:    -0.0000      Y:     0.0000      Z:     0.0000

  Electronic Dipole Moment: [e a0]
     X:     0.0000      Y:     0.0000      Z:     0.0000

  Dipole Moment: [e a0]
     X:    -0.0000      Y:     0.0000      Z:     0.0000     Total:     0.0000

  Dipole Moment: [D]
     X:    -0.0000      Y:     0.0000      Z:     0.0000     Total:     0.0000


*** tstop() called on bp1-compute00149.data.bp.acrc.priv at Mon Apr 19 15:37:09 2021
Module time:
	user time   =      32.19 seconds =       0.54 minutes
	system time =       1.49 seconds =       0.02 minutes
	total time  =          2 seconds =       0.03 minutes
Total time:
	user time   =      32.19 seconds =       0.54 minutes
	system time =       1.49 seconds =       0.02 minutes
	total time  =          2 seconds =       0.03 minutes

*** tstart() called on bp1-compute00149.data.bp.acrc.priv
*** at Mon Apr 19 15:37:09 2021

   => Loading Basis Set <=

    Name: (AUG-CC-PV(Q+D)Z AUX)
    Role: RIFIT
    Keyword: DF_BASIS_MP2
    atoms 1-2 entry N          line   258 file /work/zw18965/.conda/envs/p4env/share/psi4/basis/aug-cc-pvqz-ri.gbs 

	 --------------------------------------------------------
	                          DF-MP2                         
	      2nd-Order Density-Fitted Moller-Plesset Theory     
	              RMP2 Wavefunction,  24 Threads             
	                                                         
	        Rob Parrish, Justin Turney, Andy Simmonett,      
	           Ed Hohenstein, and C. David Sherrill          
	 --------------------------------------------------------

   => Auxiliary Basis Set <=

  Basis Set: (AUG-CC-PV(Q+D)Z AUX)
    Blend: AUG-CC-PVQZ-RI
    Number of shells: 72
    Number of basis function: 336
    Number of Cartesian functions: 474
    Spherical Harmonics?: true
    Max angular momentum: 5

	 --------------------------------------------------------
	                 NBF =   160, NAUX =   336
	 --------------------------------------------------------
	   CLASS    FOCC     OCC    AOCC    AVIR     VIR    FVIR
	   PAIRS       0       7       7     153     153       0
	 --------------------------------------------------------

	-----------------------------------------------------------
	 ==================> DF-MP2 Energies <==================== 
	-----------------------------------------------------------
	 Reference Energy          =    -109.3823235640146976 [Eh]
	 Singles Energy            =      -0.0000000000000000 [Eh]
	 Same-Spin Energy          =      -0.1342881188398962 [Eh]
	 Opposite-Spin Energy      =      -0.4219874589009958 [Eh]
	 Correlation Energy        =      -0.5562755777408919 [Eh]
	 Total Energy              =    -109.9385991417555886 [Eh]
	-----------------------------------------------------------
	 ================> DF-SCS-MP2 Energies <================== 
	-----------------------------------------------------------
	 SCS Same-Spin Scale       =       0.3333333333333333 [-]
	 SCS Opposite-Spin Scale   =       1.2000000000000000 [-]
	 SCS Same-Spin Energy      =      -0.0447627062799654 [Eh]
	 SCS Opposite-Spin Energy  =      -0.5063849506811949 [Eh]
	 SCS Correlation Energy    =      -0.5511476569611603 [Eh]
	 SCS Total Energy          =    -109.9334712209758607 [Eh]
	-----------------------------------------------------------



    B2PLYP-D3BJ Energy Summary
    --------------------------
    DFT Reference Energy                  =  -109.3823235640146976
    Scaled MP2 Correlation                =    -0.1501944059900408
    @Final double-hybrid DFT total energy =  -109.5325179700047329


*** tstop() called on bp1-compute00149.data.bp.acrc.priv at Mon Apr 19 15:37:09 2021
Module time:
	user time   =       9.36 seconds =       0.16 minutes
	system time =       0.38 seconds =       0.01 minutes
	total time  =          0 seconds =       0.00 minutes
Total time:
	user time   =      41.56 seconds =       0.69 minutes
	system time =       1.87 seconds =       0.03 minutes
	total time  =          2 seconds =       0.03 minutes

  //>>>>>>>>>>>>>>>>>>>>>>>>>>>>>>>>>>>//
  //    Loading displacement 2 of 3    //
  //<<<<<<<<<<<<<<<<<<<<<<<<<<<<<<<<<<<//

*** tstart() called on bp1-compute00149.data.bp.acrc.priv
*** at Mon Apr 19 15:37:09 2021

   => Loading Basis Set <=

    Name: AUG-CC-PV(Q+D)Z
    Role: ORBITAL
    Keyword: BASIS
    atoms 1-2 entry N          line   379 file /work/zw18965/.conda/envs/p4env/share/psi4/basis/aug-cc-pv_qpd_z.gbs 


         ---------------------------------------------------------
                                   SCF
               by Justin Turney, Rob Parrish, Andy Simmonett
                          and Daniel G. A. Smith
                              RKS Reference
                       24 Threads, 137329 MiB Core
         ---------------------------------------------------------

  ==> Geometry <==

    Molecular point group: d2h
    Full point group: D_inf_h

    Geometry (in Angstrom), charge = 0, multiplicity = 1:

       Center              X                  Y                   Z               Mass       
    ------------   -----------------  -----------------  -----------------  -----------------
         N            0.548769358176     0.000000000000     0.000000000000    14.003074004430
         N           -0.548769358176    -0.000000000000     0.000000000000    14.003074004430

  Running in d2h symmetry.

  Rotational constants: A = ************  B =      1.99877  C =      1.99877 [cm^-1]
  Rotational constants: A = ************  B =  59921.69816  C =  59921.69816 [MHz]
  Nuclear repulsion =   23.625301719673992

  Charge       = 0
  Multiplicity = 1
  Electrons    = 14
  Nalpha       = 7
  Nbeta        = 7

  ==> Algorithm <==

  SCF Algorithm Type is DF.
  DIIS enabled.
  MOM disabled.
  Fractional occupation disabled.
  Guess Type is SAD.
  Energy threshold   = 1.00e-08
  Density threshold  = 1.00e-08
  Integral threshold = 0.00e+00

  ==> Primary Basis <==

  Basis Set: AUG-CC-PV(Q+D)Z
    Blend: AUG-CC-PV(Q+D)Z
    Number of shells: 40
    Number of basis function: 160
    Number of Cartesian functions: 210
    Spherical Harmonics?: true
    Max angular momentum: 4

  ==> DFT Potential <==

   => Composite Functional: B2PLYP-D3BJ <= 

    B2PLYP Double Hybrid Exchange-Correlation Functional

    S. Grimme, J. Chem. Phys., 124, 034108, 2006


    Deriv               =              1
    GGA                 =           TRUE
    Meta                =          FALSE

    Exchange Hybrid     =           TRUE
    MP2 Hybrid          =           TRUE

   => Exchange Functionals <=

    0.4700     XC_GGA_X_B88

   => Exact (HF) Exchange <=

    0.5300               HF 

   => Correlation Functionals <=

    0.7300     XC_GGA_C_LYP

   => MP2 Correlation <=

    0.2700       MP2 

   => Molecular Quadrature <=

    Radial Scheme          =       TREUTLER
    Pruning Scheme         =           FLAT
    Nuclear Scheme         =       TREUTLER

    BS radius alpha        =              1
    Pruning alpha          =              1
    Radial Points          =             75
    Spherical Points       =            302
    Total Points           =          45300
    Total Blocks           =            426
    Max Points             =            256
    Max Functions          =            160

   => B2PLYP-D3(BJ): Empirical Dispersion <=

    Grimme's -D3 (BJ-damping) Dispersion Correction
    Grimme S.; Ehrlich S.; Goerigk L. (2011), J. Comput. Chem., 32: 1456
    Parametrisation from:    L. Goerigk, S. Grimme, Phys. Chem. Chem. Phys. 13, 6670-6688, 2011

        s6 =       0.640000
        s8 =       0.914700
        a1 =       0.306500
        a2 =       5.057000

   => Loading Basis Set <=

    Name: (AUG-CC-PV(Q+D)Z AUX)
    Role: JKFIT
    Keyword: DF_BASIS_SCF
    atoms 1-2 entry N          line   248 file /work/zw18965/.conda/envs/p4env/share/psi4/basis/aug-cc-pvqz-jkfit.gbs 

  ==> Pre-Iterations <==

   -------------------------------------------------------
    Irrep   Nso     Nmo     Nalpha   Nbeta   Ndocc  Nsocc
   -------------------------------------------------------
     Ag        31      31       0       0       0       0
     B1g       19      19       0       0       0       0
     B2g       19      19       0       0       0       0
     B3g       11      11       0       0       0       0
     Au        11      11       0       0       0       0
     B1u       19      19       0       0       0       0
     B2u       19      19       0       0       0       0
     B3u       31      31       0       0       0       0
   -------------------------------------------------------
    Total     160     160       7       7       7       0
   -------------------------------------------------------

  ==> Integral Setup <==

  DFHelper Memory: AOs need 0.066 GiB; user supplied 100.392 GiB. Using in-core AOs.

  ==> MemDFJK: Density-Fitted J/K Matrices <==

    J tasked:                   Yes
    K tasked:                   Yes
    wK tasked:                   No
    OpenMP threads:              24
    Memory [MiB]:            102801
    Algorithm:                 Core
    Schwarz Cutoff:           1E-12
    Mask sparsity (%):       0.0000
    Fitting Condition:        1E-10

   => Auxiliary Basis Set <=

  Basis Set: (AUG-CC-PV(Q+D)Z AUX)
    Blend: AUG-CC-PVQZ-JKFIT
    Number of shells: 68
    Number of basis function: 284
    Number of Cartesian functions: 396
    Spherical Harmonics?: true
    Max angular momentum: 5

  Cached 100.0% of DFT collocation blocks in 0.191 [GiB].

  Minimum eigenvalue in the overlap matrix is 3.2103333973E-05.
  Using Symmetric Orthogonalization.

  SCF Guess: Superposition of Atomic Densities via on-the-fly atomic UHF.

  ==> Iterations <==

                           Total Energy        Delta E     RMS |[F,P]|

   @DF-RKS iter SAD:  -108.68503617840832   -1.08685e+02   0.00000e+00 
   @DF-RKS iter   1:  -109.36194889961820   -6.76913e-01   3.94884e-03 DIIS
   @DF-RKS iter   2:  -109.37757739009348   -1.56285e-02   1.90271e-03 DIIS
   @DF-RKS iter   3:  -109.38242900592425   -4.85162e-03   9.89811e-05 DIIS
   @DF-RKS iter   4:  -109.38244220446104   -1.31985e-05   1.42860e-05 DIIS
   @DF-RKS iter   5:  -109.38244246704029   -2.62579e-07   1.52375e-06 DIIS
   @DF-RKS iter   6:  -109.38244247483350   -7.79320e-09   1.18243e-07 DIIS
   @DF-RKS iter   7:  -109.38244247489344   -5.99414e-11   6.44611e-09 DIIS
  Energy and wave function converged.


  ==> Post-Iterations <==

    Orbital Energies [Eh]
    ---------------------

    Doubly Occupied:                                                      

       1Ag   -14.950843     1B3u  -14.948287     2Ag    -1.273484  
       2B3u   -0.651646     1B1u   -0.533038     1B2u   -0.533038  
       3Ag    -0.520548  

    Virtual:                                                              

       1B1g    0.035538     1B2g    0.035538     3B3u    0.053757  
       4Ag     0.067700     2B2u    0.078780     2B1u    0.078780  
       5Ag     0.109857     2B1g    0.126088     2B2g    0.126088  
       4B3u    0.209178     6Ag     0.259091     1B3g    0.259091  
       7Ag     0.309922     5B3u    0.358897     3B1g    0.367725  
       3B2g    0.367725     3B1u    0.374547     3B2u    0.374547  
       6B3u    0.376044     1Au     0.376044     4B1u    0.473943  
       4B2u    0.473943     7B3u    0.551122     8Ag     0.558656  
       9Ag     0.704666     4B1g    0.768211     4B2g    0.768211  
       8B3u    0.790745     5B2u    0.855835     5B1u    0.855835  
       2B3g    0.884218    10Ag     0.884218     6B2u    0.948602  
       6B1u    0.948602     9B3u    0.971729     2Au     0.971729  
      10B3u    1.076456    11Ag     1.083934     5B1g    1.096659  
       5B2g    1.096659     6B2g    1.098286     6B1g    1.098286  
      12Ag     1.103590     3B3g    1.103590    11B3u    1.304212  
       7B2u    1.461412     7B1u    1.461412    13Ag     1.473381  
      12B3u    1.582336     3Au     1.582336     7B1g    1.631068  
       7B2g    1.631068    13B3u    1.686416     8B1u    1.915513  
       8B2u    1.915513     4B3g    2.522124    14Ag     2.522125  
      15Ag     2.532136     9B1u    2.654121     9B2u    2.654121  
      16Ag     2.662318     5B3g    2.662318    17Ag     2.686975  
       8B1g    2.757086     8B2g    2.757086    14B3u    2.785901  
      10B1u    2.869451    10B2u    2.869451    15B3u    2.943200  
       4Au     2.943201    16B3u    2.953128     5Au     2.967272  
      17B3u    2.967273    11B2u    2.970496    11B1u    2.970496  
       9B1g    2.987696     9B2g    2.987696    12B1u    2.994695  
      12B2u    2.994695    18Ag     2.994986     6B3g    2.994986  
      19Ag     3.179608    10B1g    3.182194    10B2g    3.182194  
      18B3u    3.250180     6Au     3.250180    19B3u    3.358616  
      20Ag     3.384682    11B1g    3.405094    11B2g    3.405094  
      21Ag     3.680523     7B3g    3.680523    12B1g    3.746102  
      12B2g    3.746102    13B1u    4.585285    13B2u    4.585285  
       7Au     4.941576    20B3u    4.941576    21B3u    5.030429  
      22Ag     5.310957    22B3u    5.507310    13B1g    5.533748  
      13B2g    5.533748    14B1u    7.502337    14B2u    7.502337  
       8B3g    7.562046    23Ag     7.562047    15B1u    7.712281  
      15B2u    7.712281     9B3g    7.792498    24Ag     7.792512  
      25Ag     7.828157    14B1g    8.056402    14B2g    8.056402  
       8Au     8.117381    23B3u    8.117397    16B2u    8.198025  
      16B1u    8.198025    26Ag     8.499517    15B1g    8.559724  
      15B2g    8.559724    24B3u    8.582274     9Au     8.582283  
      16B1g    8.640430    16B2g    8.640430    17B2u    8.788090  
      17B1u    8.788090    25B3u    8.876028    27Ag     9.018073  
      10B3g    9.018078    26B3u    9.038589    17B1g    9.087150  
      17B2g    9.087150    28Ag     9.144174    29Ag     9.259324  
      11B3g    9.259334    18B1u    9.409807    18B2u    9.409807  
      27B3u   10.029354    10Au    10.029362    11Au    10.293296  
      28B3u   10.293297    19B1u   10.459728    19B2u   10.459728  
      18B1g   10.837252    18B2g   10.837252    29B3u   10.999038  
      30Ag    12.599587    19B1g   12.859605    19B2g   12.859605  
      30B3u   13.696267    31B3u   32.419650    31Ag    32.799849  

    Final Occupation by Irrep:
             Ag   B1g   B2g   B3g    Au   B1u   B2u   B3u 
    DOCC [     3,    0,    0,    0,    0,    1,    1,    2 ]

  @DF-RKS Final Energy:  -109.38244247489344

   => Energetics <=

    Nuclear Repulsion Energy =             23.6253017196739918
    One-Electron Energy =                -194.4698774917400783
    Two-Electron Energy =                  68.0174948865033713
    DFT Exchange-Correlation Energy =      -6.5550325793307156
    Empirical Dispersion Energy =          -0.0003290100000000
    VV10 Nonlocal Energy =                  0.0000000000000000
    Total Energy =                       -109.3824424748934376

Computation Completed


Properties will be evaluated at   0.000000,   0.000000,   0.000000 [a0]

Properties computed using the SCF density matrix

  Nuclear Dipole Moment: [e a0]
     X:     0.0000      Y:     0.0000      Z:     0.0000

  Electronic Dipole Moment: [e a0]
     X:     0.0000      Y:     0.0000      Z:     0.0000

  Dipole Moment: [e a0]
     X:     0.0000      Y:     0.0000      Z:     0.0000     Total:     0.0000

  Dipole Moment: [D]
     X:     0.0000      Y:     0.0000      Z:     0.0000     Total:     0.0000


*** tstop() called on bp1-compute00149.data.bp.acrc.priv at Mon Apr 19 15:37:11 2021
Module time:
	user time   =      31.94 seconds =       0.53 minutes
	system time =       1.57 seconds =       0.03 minutes
	total time  =          2 seconds =       0.03 minutes
Total time:
	user time   =      74.03 seconds =       1.23 minutes
	system time =       3.46 seconds =       0.06 minutes
	total time  =          4 seconds =       0.07 minutes

*** tstart() called on bp1-compute00149.data.bp.acrc.priv
*** at Mon Apr 19 15:37:11 2021

   => Loading Basis Set <=

    Name: (AUG-CC-PV(Q+D)Z AUX)
    Role: RIFIT
    Keyword: DF_BASIS_MP2
    atoms 1-2 entry N          line   258 file /work/zw18965/.conda/envs/p4env/share/psi4/basis/aug-cc-pvqz-ri.gbs 

	 --------------------------------------------------------
	                          DF-MP2                         
	      2nd-Order Density-Fitted Moller-Plesset Theory     
	              RMP2 Wavefunction,  24 Threads             
	                                                         
	        Rob Parrish, Justin Turney, Andy Simmonett,      
	           Ed Hohenstein, and C. David Sherrill          
	 --------------------------------------------------------

   => Auxiliary Basis Set <=

  Basis Set: (AUG-CC-PV(Q+D)Z AUX)
    Blend: AUG-CC-PVQZ-RI
    Number of shells: 72
    Number of basis function: 336
    Number of Cartesian functions: 474
    Spherical Harmonics?: true
    Max angular momentum: 5

	 --------------------------------------------------------
	                 NBF =   160, NAUX =   336
	 --------------------------------------------------------
	   CLASS    FOCC     OCC    AOCC    AVIR     VIR    FVIR
	   PAIRS       0       7       7     153     153       0
	 --------------------------------------------------------

	-----------------------------------------------------------
	 ==================> DF-MP2 Energies <==================== 
	-----------------------------------------------------------
	 Reference Energy          =    -109.3824424748934376 [Eh]
	 Singles Energy            =      -0.0000000000000000 [Eh]
	 Same-Spin Energy          =      -0.1341603326062949 [Eh]
	 Opposite-Spin Energy      =      -0.4216914140327990 [Eh]
	 Correlation Energy        =      -0.5558517466390939 [Eh]
	 Total Energy              =    -109.9382942215325301 [Eh]
	-----------------------------------------------------------
	 ================> DF-SCS-MP2 Energies <================== 
	-----------------------------------------------------------
	 SCS Same-Spin Scale       =       0.3333333333333333 [-]
	 SCS Opposite-Spin Scale   =       1.2000000000000000 [-]
	 SCS Same-Spin Energy      =      -0.0447201108687650 [Eh]
	 SCS Opposite-Spin Energy  =      -0.5060296968393587 [Eh]
	 SCS Correlation Energy    =      -0.5507498077081237 [Eh]
	 SCS Total Energy          =    -109.9331922826015671 [Eh]
	-----------------------------------------------------------



    B2PLYP-D3BJ Energy Summary
    --------------------------
    DFT Reference Energy                  =  -109.3824424748934376
    Scaled MP2 Correlation                =    -0.1500799715925553
    @Final double-hybrid DFT total energy =  -109.5325224464859986


*** tstop() called on bp1-compute00149.data.bp.acrc.priv at Mon Apr 19 15:37:12 2021
Module time:
	user time   =       9.89 seconds =       0.16 minutes
	system time =       0.43 seconds =       0.01 minutes
	total time  =          1 seconds =       0.02 minutes
Total time:
	user time   =      83.93 seconds =       1.40 minutes
	system time =       3.89 seconds =       0.06 minutes
	total time  =          5 seconds =       0.08 minutes

  //>>>>>>>>>>>>>>>>>>>>>>>>>>>>>>>>>>>//
  //    Loading displacement 3 of 3    //
  //<<<<<<<<<<<<<<<<<<<<<<<<<<<<<<<<<<<//

*** tstart() called on bp1-compute00149.data.bp.acrc.priv
*** at Mon Apr 19 15:37:12 2021

   => Loading Basis Set <=

    Name: AUG-CC-PV(Q+D)Z
    Role: ORBITAL
    Keyword: BASIS
    atoms 1-2 entry N          line   379 file /work/zw18965/.conda/envs/p4env/share/psi4/basis/aug-cc-pv_qpd_z.gbs 


         ---------------------------------------------------------
                                   SCF
               by Justin Turney, Rob Parrish, Andy Simmonett
                          and Daniel G. A. Smith
                              RKS Reference
                       24 Threads, 137329 MiB Core
         ---------------------------------------------------------

  ==> Geometry <==

    Molecular point group: d2h
    Full point group: D_inf_h

    Geometry (in Angstrom), charge = 0, multiplicity = 1:

       Center              X                  Y                   Z               Mass       
    ------------   -----------------  -----------------  -----------------  -----------------
         N            0.549769299330     0.000000000000     0.000000000000    14.003074004430
         N           -0.549769299330    -0.000000000000     0.000000000000    14.003074004430

  Running in d2h symmetry.

  Rotational constants: A = ************  B =      1.99151  C =      1.99151 [cm^-1]
  Rotational constants: A = ************  B =  59703.92070  C =  59703.92070 [MHz]
  Nuclear repulsion =   23.582331129094193

  Charge       = 0
  Multiplicity = 1
  Electrons    = 14
  Nalpha       = 7
  Nbeta        = 7

  ==> Algorithm <==

  SCF Algorithm Type is DF.
  DIIS enabled.
  MOM disabled.
  Fractional occupation disabled.
  Guess Type is SAD.
  Energy threshold   = 1.00e-08
  Density threshold  = 1.00e-08
  Integral threshold = 0.00e+00

  ==> Primary Basis <==

  Basis Set: AUG-CC-PV(Q+D)Z
    Blend: AUG-CC-PV(Q+D)Z
    Number of shells: 40
    Number of basis function: 160
    Number of Cartesian functions: 210
    Spherical Harmonics?: true
    Max angular momentum: 4

  ==> DFT Potential <==

   => Composite Functional: B2PLYP-D3BJ <= 

    B2PLYP Double Hybrid Exchange-Correlation Functional

    S. Grimme, J. Chem. Phys., 124, 034108, 2006


    Deriv               =              1
    GGA                 =           TRUE
    Meta                =          FALSE

    Exchange Hybrid     =           TRUE
    MP2 Hybrid          =           TRUE

   => Exchange Functionals <=

    0.4700     XC_GGA_X_B88

   => Exact (HF) Exchange <=

    0.5300               HF 

   => Correlation Functionals <=

    0.7300     XC_GGA_C_LYP

   => MP2 Correlation <=

    0.2700       MP2 

   => Molecular Quadrature <=

    Radial Scheme          =       TREUTLER
    Pruning Scheme         =           FLAT
    Nuclear Scheme         =       TREUTLER

    BS radius alpha        =              1
    Pruning alpha          =              1
    Radial Points          =             75
    Spherical Points       =            302
    Total Points           =          45300
    Total Blocks           =            428
    Max Points             =            255
    Max Functions          =            160

   => B2PLYP-D3(BJ): Empirical Dispersion <=

    Grimme's -D3 (BJ-damping) Dispersion Correction
    Grimme S.; Ehrlich S.; Goerigk L. (2011), J. Comput. Chem., 32: 1456
    Parametrisation from:    L. Goerigk, S. Grimme, Phys. Chem. Chem. Phys. 13, 6670-6688, 2011

        s6 =       0.640000
        s8 =       0.914700
        a1 =       0.306500
        a2 =       5.057000

   => Loading Basis Set <=

    Name: (AUG-CC-PV(Q+D)Z AUX)
    Role: JKFIT
    Keyword: DF_BASIS_SCF
    atoms 1-2 entry N          line   248 file /work/zw18965/.conda/envs/p4env/share/psi4/basis/aug-cc-pvqz-jkfit.gbs 

  ==> Pre-Iterations <==

   -------------------------------------------------------
    Irrep   Nso     Nmo     Nalpha   Nbeta   Ndocc  Nsocc
   -------------------------------------------------------
     Ag        31      31       0       0       0       0
     B1g       19      19       0       0       0       0
     B2g       19      19       0       0       0       0
     B3g       11      11       0       0       0       0
     Au        11      11       0       0       0       0
     B1u       19      19       0       0       0       0
     B2u       19      19       0       0       0       0
     B3u       31      31       0       0       0       0
   -------------------------------------------------------
    Total     160     160       7       7       7       0
   -------------------------------------------------------

  ==> Integral Setup <==

  DFHelper Memory: AOs need 0.066 GiB; user supplied 100.392 GiB. Using in-core AOs.

  ==> MemDFJK: Density-Fitted J/K Matrices <==

    J tasked:                   Yes
    K tasked:                   Yes
    wK tasked:                   No
    OpenMP threads:              24
    Memory [MiB]:            102801
    Algorithm:                 Core
    Schwarz Cutoff:           1E-12
    Mask sparsity (%):       0.0000
    Fitting Condition:        1E-10

   => Auxiliary Basis Set <=

  Basis Set: (AUG-CC-PV(Q+D)Z AUX)
    Blend: AUG-CC-PVQZ-JKFIT
    Number of shells: 68
    Number of basis function: 284
    Number of Cartesian functions: 396
    Spherical Harmonics?: true
    Max angular momentum: 5

  Cached 100.0% of DFT collocation blocks in 0.191 [GiB].

  Minimum eigenvalue in the overlap matrix is 3.2312376888E-05.
  Using Symmetric Orthogonalization.

  SCF Guess: Superposition of Atomic Densities via on-the-fly atomic UHF.

  ==> Iterations <==

                           Total Energy        Delta E     RMS |[F,P]|

   @DF-RKS iter SAD:  -108.68098817467353   -1.08681e+02   0.00000e+00 
   @DF-RKS iter   1:  -109.36195587807752   -6.80968e-01   3.92026e-03 DIIS
   @DF-RKS iter   2:  -109.37740771149828   -1.54518e-02   1.88771e-03 DIIS
   @DF-RKS iter   3:  -109.38218576701038   -4.77806e-03   9.86993e-05 DIIS
   @DF-RKS iter   4:  -109.38219892450064   -1.31575e-05   1.43736e-05 DIIS
   @DF-RKS iter   5:  -109.38219919061767   -2.66117e-07   1.52535e-06 DIIS
   @DF-RKS iter   6:  -109.38219919848098   -7.86331e-09   1.18541e-07 DIIS
   @DF-RKS iter   7:  -109.38219919854137   -6.03961e-11   6.44680e-09 DIIS
  Energy and wave function converged.


  ==> Post-Iterations <==

    Orbital Energies [Eh]
    ---------------------

    Doubly Occupied:                                                      

       1Ag   -14.951476     1B3u  -14.948955     2Ag    -1.272205  
       2B3u   -0.652237     1B2u   -0.532316     1B1u   -0.532316  
       3Ag    -0.520418  

    Virtual:                                                              

       1B2g    0.034743     1B1g    0.034743     3B3u    0.053736  
       4Ag     0.067670     2B2u    0.078805     2B1u    0.078805  
       5Ag     0.109843     2B2g    0.125925     2B1g    0.125925  
       4B3u    0.209130     6Ag     0.259056     1B3g    0.259056  
       7Ag     0.309976     5B3u    0.358728     3B1g    0.367601  
       3B2g    0.367601     3B2u    0.374551     3B1u    0.374551  
       6B3u    0.376064     1Au     0.376064     4B2u    0.474135  
       4B1u    0.474135     7B3u    0.550813     8Ag     0.558677  
       9Ag     0.704606     4B1g    0.767789     4B2g    0.767789  
       8B3u    0.788663     5B2u    0.855764     5B1u    0.855764  
       2B3g    0.884200    10Ag     0.884200     6B2u    0.948650  
       6B1u    0.948650     9B3u    0.972000     2Au     0.972000  
      10B3u    1.075124    11Ag     1.083524     5B1g    1.096359  
       5B2g    1.096359     6B2g    1.098134     6B1g    1.098134  
      12Ag     1.103394     3B3g    1.103394    11B3u    1.304062  
       7B2u    1.460300     7B1u    1.460300    13Ag     1.474277  
      12B3u    1.581386     3Au     1.581386     7B2g    1.631011  
       7B1g    1.631011    13B3u    1.684255     8B2u    1.916151  
       8B1u    1.916151     4B3g    2.522181    14Ag     2.522182  
      15Ag     2.531181     9B1u    2.653575     9B2u    2.653575  
      16Ag     2.662405     5B3g    2.662405    17Ag     2.685436  
       8B2g    2.755533     8B1g    2.755533    14B3u    2.785714  
      10B1u    2.867728    10B2u    2.867728    15B3u    2.942851  
       4Au     2.942851    16B3u    2.953437     5Au     2.966497  
      17B3u    2.966497    11B1u    2.970002    11B2u    2.970002  
       9B2g    2.988138     9B1g    2.988138    12B2u    2.994448  
      12B1u    2.994448    18Ag     2.995307     6B3g    2.995308  
      19Ag     3.181507    10B2g    3.182325    10B1g    3.182325  
      18B3u    3.250349     6Au     3.250350    19B3u    3.356396  
      20Ag     3.382634    11B2g    3.403137    11B1g    3.403137  
      21Ag     3.677489     7B3g    3.677490    12B2g    3.743250  
      12B1g    3.743250    13B1u    4.583544    13B2u    4.583544  
       7Au     4.937316    20B3u    4.937316    21B3u    5.023577  
      22Ag     5.301765    22B3u    5.508592    13B2g    5.530286  
      13B1g    5.530286    14B2u    7.503964    14B1u    7.503964  
       8B3g    7.560342    23Ag     7.560342    15B2u    7.711841  
      15B1u    7.711841     9B3g    7.793532    24Ag     7.793547  
      25Ag     7.828294    14B2g    8.058916    14B1g    8.058916  
       8Au     8.116007    23B3u    8.116022    16B1u    8.195376  
      16B2u    8.195376    26Ag     8.500297    15B2g    8.557825  
      15B1g    8.557825    24B3u    8.585585     9Au     8.585594  
      16B2g    8.639012    16B1g    8.639012    17B1u    8.787780  
      17B2u    8.787780    25B3u    8.872924    27Ag     9.017274  
      10B3g    9.017279    26B3u    9.032385    17B2g    9.082936  
      17B1g    9.082936    28Ag     9.144865    29Ag     9.257230  
      11B3g    9.257241    18B1u    9.409897    18B2u    9.409897  
      27B3u   10.022938    10Au    10.022946    11Au    10.283186  
      28B3u   10.283187    19B2u   10.448994    19B1u   10.448994  
      18B2g   10.829718    18B1g   10.829718    29B3u   10.992153  
      30Ag    12.585025    19B2g   12.845250    19B1g   12.845250  
      30B3u   13.690880    31B3u   32.381441    31Ag    32.790789  

    Final Occupation by Irrep:
             Ag   B1g   B2g   B3g    Au   B1u   B2u   B3u 
    DOCC [     3,    0,    0,    0,    0,    1,    1,    2 ]

  @DF-RKS Final Energy:  -109.38219919854137

   => Energetics <=

    Nuclear Repulsion Energy =             23.5823311290941930
    One-Electron Energy =                -194.3862360012416275
    Two-Electron Energy =                  67.9758218924547322
    DFT Exchange-Correlation Energy =      -6.5537872088486697
    Empirical Dispersion Energy =          -0.0003290100000000
    VV10 Nonlocal Energy =                  0.0000000000000000
    Total Energy =                       -109.3821991985413717

Computation Completed


Properties will be evaluated at   0.000000,   0.000000,   0.000000 [a0]

Properties computed using the SCF density matrix

  Nuclear Dipole Moment: [e a0]
     X:     0.0000      Y:     0.0000      Z:     0.0000

  Electronic Dipole Moment: [e a0]
     X:     0.0000      Y:     0.0000      Z:     0.0000

  Dipole Moment: [e a0]
     X:     0.0000      Y:     0.0000      Z:     0.0000     Total:     0.0000

  Dipole Moment: [D]
     X:     0.0000      Y:     0.0000      Z:     0.0000     Total:     0.0000


*** tstop() called on bp1-compute00149.data.bp.acrc.priv at Mon Apr 19 15:37:13 2021
Module time:
	user time   =      31.96 seconds =       0.53 minutes
	system time =       1.50 seconds =       0.03 minutes
	total time  =          1 seconds =       0.02 minutes
Total time:
	user time   =     116.04 seconds =       1.93 minutes
	system time =       5.41 seconds =       0.09 minutes
	total time  =          6 seconds =       0.10 minutes

*** tstart() called on bp1-compute00149.data.bp.acrc.priv
*** at Mon Apr 19 15:37:13 2021

   => Loading Basis Set <=

    Name: (AUG-CC-PV(Q+D)Z AUX)
    Role: RIFIT
    Keyword: DF_BASIS_MP2
    atoms 1-2 entry N          line   258 file /work/zw18965/.conda/envs/p4env/share/psi4/basis/aug-cc-pvqz-ri.gbs 

	 --------------------------------------------------------
	                          DF-MP2                         
	      2nd-Order Density-Fitted Moller-Plesset Theory     
	              RMP2 Wavefunction,  24 Threads             
	                                                         
	        Rob Parrish, Justin Turney, Andy Simmonett,      
	           Ed Hohenstein, and C. David Sherrill          
	 --------------------------------------------------------

   => Auxiliary Basis Set <=

  Basis Set: (AUG-CC-PV(Q+D)Z AUX)
    Blend: AUG-CC-PVQZ-RI
    Number of shells: 72
    Number of basis function: 336
    Number of Cartesian functions: 474
    Spherical Harmonics?: true
    Max angular momentum: 5

	 --------------------------------------------------------
	                 NBF =   160, NAUX =   336
	 --------------------------------------------------------
	   CLASS    FOCC     OCC    AOCC    AVIR     VIR    FVIR
	   PAIRS       0       7       7     153     153       0
	 --------------------------------------------------------

	-----------------------------------------------------------
	 ==================> DF-MP2 Energies <==================== 
	-----------------------------------------------------------
	 Reference Energy          =    -109.3821991985413717 [Eh]
	 Singles Energy            =      -0.0000000000000000 [Eh]
	 Same-Spin Energy          =      -0.1344162712523981 [Eh]
	 Opposite-Spin Energy      =      -0.4222841932081074 [Eh]
	 Correlation Energy        =      -0.5567004644605055 [Eh]
	 Total Energy              =    -109.9388996630018767 [Eh]
	-----------------------------------------------------------
	 ================> DF-SCS-MP2 Energies <================== 
	-----------------------------------------------------------
	 SCS Same-Spin Scale       =       0.3333333333333333 [-]
	 SCS Opposite-Spin Scale   =       1.2000000000000000 [-]
	 SCS Same-Spin Energy      =      -0.0448054237507994 [Eh]
	 SCS Opposite-Spin Energy  =      -0.5067410318497289 [Eh]
	 SCS Correlation Energy    =      -0.5515464556005282 [Eh]
	 SCS Total Energy          =    -109.9337456541419016 [Eh]
	-----------------------------------------------------------



    B2PLYP-D3BJ Energy Summary
    --------------------------
    DFT Reference Energy                  =  -109.3821991985413717
    Scaled MP2 Correlation                =    -0.1503091254043365
    @Final double-hybrid DFT total energy =  -109.5325083239457058


*** tstop() called on bp1-compute00149.data.bp.acrc.priv at Mon Apr 19 15:37:14 2021
Module time:
	user time   =       9.66 seconds =       0.16 minutes
	system time =       0.38 seconds =       0.01 minutes
	total time  =          1 seconds =       0.02 minutes
Total time:
	user time   =     125.71 seconds =       2.10 minutes
	system time =       5.79 seconds =       0.10 minutes
	total time  =          7 seconds =       0.12 minutes

         ----------------------------------------------------------
                                   FINDIF
                     R. A. King and Jonathon Misiewicz
         ---------------------------------------------------------

  Computing gradient from energies.
    Using 3-point formula.
    Energy without displacement: -109.5325179700
    Check energies below for precision!
    Forces are for mass-weighted, symmetry-adapted cartesians (in au).

     Coord      Energy(-1)        Energy(+1)            Force
        0   -109.5325224465   -109.5325083239      0.0014122540


-------------------------------------------------------------
  ## New Matrix (Symmetry 0) ##
  Irrep: 1 Size: 2 x 3

                 1                   2                   3

    1     0.00373688313894     0.00000000000000     0.00000000000000
    2    -0.00373688313894     0.00000000000000     0.00000000000000




			-----------------------------------------
			 OPTKING 2.0: for geometry optimizations 
			  - R.A. King,  Bethel University        
			-----------------------------------------

	Internal coordinates to be generated automatically.
	Detected frag 1 with atoms:  1 2
	---Fragment 1 Bond Connectivity---
	 1 : 2
	 2 : 1

	---Fragment 1 Geometry and Gradient---
	 N           1.0379686005        0.0000000000        0.0000000000
	 N          -1.0379686005       -0.0000000000        0.0000000000
	             0.0037368831        0.0000000000        0.0000000000
	            -0.0037368831        0.0000000000        0.0000000000

	Previous optimization step data not found.  Starting new optimization.

	---Fragment 1 Intrafragment Coordinates---
	 - Coordinate -           - BOHR/RAD -       - ANG/DEG -
	 R(1,2)           =         2.075937	       1.098539

	Current energy   :      -109.5325179700

	Generating empirical Hessian (Schlegel '84) for each fragment.
	Taking RFO optimization step.
	Going to follow RFO solution 1.
	Using RFO vector 1.
	Norm of target step-size    0.00210
	Projected energy change by RFO approximation:        -0.0000056375

	Back-transformation to cartesian coordinates...
	Successfully converged to displaced geometry.

	--- Internal Coordinate Step in ANG or DEG, aJ/ANG or AJ/DEG ---
	 ---------------------------------------------------------------------------
	   Coordinate                Previous        Force       Change         New 
	   ----------                --------       ------       ------       ------
	    1 R(1,2)          =      1.098539    -0.030787    -0.001110     1.097429
	 ---------------------------------------------------------------------------
	Successfully symmetrized geometry.

  ==> Convergence Check <==

  Measures of convergence in internal coordinates in au.
  Criteria marked as inactive (o), active & met (*), and active & unmet ( ).
  --------------------------------------------------------------------------------------------- ~
   Step     Total Energy     Delta E     MAX Force     RMS Force      MAX Disp      RMS Disp    ~
  --------------------------------------------------------------------------------------------- ~
    Convergence Criteria    1.00e-06 *    3.00e-04 *             o    1.20e-03 *             o  ~
  --------------------------------------------------------------------------------------------- ~
      1    -109.53251797   -1.10e+02      3.74e-03      3.74e-03 o    2.10e-03      2.10e-03 o  ~
  ---------------------------------------------------------------------------------------------

	Writing optimization data to binary file.
	Structure for next step:
	Cartesian Geometry (in Angstrom)
	    N     0.5487144862   0.0000000000   0.0000000000
	    N    -0.5487144862  -0.0000000000   0.0000000000
			--------------------------
			 OPTKING Finished Execution 
			--------------------------

    Structure for next step:
    Molecular point group: d2h
    Full point group: D_inf_h

    Geometry (in Angstrom), charge = 0, multiplicity = 1:

    N            0.548714488388     0.000000000000     0.000000000000
    N           -0.548714488388    -0.000000000000     0.000000000000

gradient() will perform gradient computation by finite difference of analytic energies.

         ----------------------------------------------------------
                                   FINDIF
                     R. A. King and Jonathon Misiewicz
         ---------------------------------------------------------

  Using finite-differences of energies to determine gradients.
    Generating geometries for use with 3-point formula.
    Displacement size will be 5.00e-03.
    Number of atoms is 2.
    Number of symmetric SALCs is 1.
    Translations projected? 1. Rotations projected? 1.
    Number of geometries (including reference) is 3.

  //>>>>>>>>>>>>>>>>>>>>>>>>>>>>>>>>>>>//
  //    Loading displacement 1 of 3    //
  //<<<<<<<<<<<<<<<<<<<<<<<<<<<<<<<<<<<//

*** tstart() called on bp1-compute00149.data.bp.acrc.priv
*** at Mon Apr 19 15:37:14 2021

   => Loading Basis Set <=

    Name: AUG-CC-PV(Q+D)Z
    Role: ORBITAL
    Keyword: BASIS
    atoms 1-2 entry N          line   379 file /work/zw18965/.conda/envs/p4env/share/psi4/basis/aug-cc-pv_qpd_z.gbs 


         ---------------------------------------------------------
                                   SCF
               by Justin Turney, Rob Parrish, Andy Simmonett
                          and Daniel G. A. Smith
                              RKS Reference
                       24 Threads, 137329 MiB Core
         ---------------------------------------------------------

  ==> Geometry <==

    Molecular point group: d2h
    Full point group: D_inf_h

    Geometry (in Angstrom), charge = 0, multiplicity = 1:

       Center              X                  Y                   Z               Mass       
    ------------   -----------------  -----------------  -----------------  -----------------
         N            0.548714488388     0.000000000000     0.000000000000    14.003074004430
         N           -0.548714488388    -0.000000000000     0.000000000000    14.003074004430

  Running in d2h symmetry.

  Rotational constants: A = ************  B =      1.99917  C =      1.99917 [cm^-1]
  Rotational constants: A = ************  B =  59933.68274  C =  59933.68274 [MHz]
  Nuclear repulsion =   23.627664178327894

  Charge       = 0
  Multiplicity = 1
  Electrons    = 14
  Nalpha       = 7
  Nbeta        = 7

  ==> Algorithm <==

  SCF Algorithm Type is DF.
  DIIS enabled.
  MOM disabled.
  Fractional occupation disabled.
  Guess Type is READ.
  Energy threshold   = 1.00e-08
  Density threshold  = 1.00e-08
  Integral threshold = 0.00e+00

  ==> Primary Basis <==

  Basis Set: AUG-CC-PV(Q+D)Z
    Blend: AUG-CC-PV(Q+D)Z
    Number of shells: 40
    Number of basis function: 160
    Number of Cartesian functions: 210
    Spherical Harmonics?: true
    Max angular momentum: 4

  ==> DFT Potential <==

   => Composite Functional: B2PLYP-D3BJ <= 

    B2PLYP Double Hybrid Exchange-Correlation Functional

    S. Grimme, J. Chem. Phys., 124, 034108, 2006


    Deriv               =              1
    GGA                 =           TRUE
    Meta                =          FALSE

    Exchange Hybrid     =           TRUE
    MP2 Hybrid          =           TRUE

   => Exchange Functionals <=

    0.4700     XC_GGA_X_B88

   => Exact (HF) Exchange <=

    0.5300               HF 

   => Correlation Functionals <=

    0.7300     XC_GGA_C_LYP

   => MP2 Correlation <=

    0.2700       MP2 

   => Molecular Quadrature <=

    Radial Scheme          =       TREUTLER
    Pruning Scheme         =           FLAT
    Nuclear Scheme         =       TREUTLER

    BS radius alpha        =              1
    Pruning alpha          =              1
    Radial Points          =             75
    Spherical Points       =            302
    Total Points           =          45300
    Total Blocks           =            426
    Max Points             =            256
    Max Functions          =            160

   => B2PLYP-D3(BJ): Empirical Dispersion <=

    Grimme's -D3 (BJ-damping) Dispersion Correction
    Grimme S.; Ehrlich S.; Goerigk L. (2011), J. Comput. Chem., 32: 1456
    Parametrisation from:    L. Goerigk, S. Grimme, Phys. Chem. Chem. Phys. 13, 6670-6688, 2011

        s6 =       0.640000
        s8 =       0.914700
        a1 =       0.306500
        a2 =       5.057000

   => Loading Basis Set <=

    Name: (AUG-CC-PV(Q+D)Z AUX)
    Role: JKFIT
    Keyword: DF_BASIS_SCF
    atoms 1-2 entry N          line   248 file /work/zw18965/.conda/envs/p4env/share/psi4/basis/aug-cc-pvqz-jkfit.gbs 

   => Loading Basis Set <=

    Name: AUG-CC-PV(Q+D)Z
    Role: ORBITAL
    Keyword: BASIS
    atoms 1-2 entry N          line   379 file /work/zw18965/.conda/envs/p4env/share/psi4/basis/aug-cc-pv_qpd_z.gbs 

  Reading orbitals from file 180, no projection.

  ==> Pre-Iterations <==

   -------------------------------------------------------
    Irrep   Nso     Nmo     Nalpha   Nbeta   Ndocc  Nsocc
   -------------------------------------------------------
     Ag        31      31       0       0       0       0
     B1g       19      19       0       0       0       0
     B2g       19      19       0       0       0       0
     B3g       11      11       0       0       0       0
     Au        11      11       0       0       0       0
     B1u       19      19       0       0       0       0
     B2u       19      19       0       0       0       0
     B3u       31      31       0       0       0       0
   -------------------------------------------------------
    Total     160     160       7       7       7       0
   -------------------------------------------------------

  ==> Integral Setup <==

  DFHelper Memory: AOs need 0.066 GiB; user supplied 100.392 GiB. Using in-core AOs.

  ==> MemDFJK: Density-Fitted J/K Matrices <==

    J tasked:                   Yes
    K tasked:                   Yes
    wK tasked:                   No
    OpenMP threads:              24
    Memory [MiB]:            102801
    Algorithm:                 Core
    Schwarz Cutoff:           1E-12
    Mask sparsity (%):       0.0000
    Fitting Condition:        1E-10

   => Auxiliary Basis Set <=

  Basis Set: (AUG-CC-PV(Q+D)Z AUX)
    Blend: AUG-CC-PVQZ-JKFIT
    Number of shells: 68
    Number of basis function: 284
    Number of Cartesian functions: 396
    Spherical Harmonics?: true
    Max angular momentum: 5

  Cached 100.0% of DFT collocation blocks in 0.191 [GiB].

  Minimum eigenvalue in the overlap matrix is 3.2091893252E-05.
  Using Symmetric Orthogonalization.

  SCF Guess: Orbitals guess was supplied from a previous computation.

  ==> Iterations <==

                           Total Energy        Delta E     RMS |[F,P]|

   @DF-RKS iter   0:  -109.38347140530354   -1.09383e+02   9.47592e-05 
   @DF-RKS iter   1:  -109.38245514762136    1.01626e-03   5.24104e-06 DIIS
   @DF-RKS iter   2:  -109.38245518715239   -3.95310e-08   1.91777e-06 DIIS
   @DF-RKS iter   3:  -109.38245519097708   -3.82470e-09   2.90195e-07 DIIS
   @DF-RKS iter   4:  -109.38245519110779   -1.30711e-10   7.23412e-08 DIIS
   @DF-RKS iter   5:  -109.38245519111527   -7.47491e-12   6.26690e-09 DIIS
  Energy and wave function converged.


  ==> Post-Iterations <==

    Orbital Energies [Eh]
    ---------------------

    Doubly Occupied:                                                      

       1Ag   -14.950808     1B3u  -14.948251     2Ag    -1.273554  
       2B3u   -0.651613     1B1u   -0.533077     1B2u   -0.533077  
       3Ag    -0.520555  

    Virtual:                                                              

       1B1g    0.035582     1B2g    0.035582     3B3u    0.053758  
       4Ag     0.067701     2B1u    0.078778     2B2u    0.078778  
       5Ag     0.109857     2B1g    0.126097     2B2g    0.126097  
       4B3u    0.209180     6Ag     0.259093     1B3g    0.259093  
       7Ag     0.309919     5B3u    0.358906     3B1g    0.367731  
       3B2g    0.367731     3B2u    0.374546     3B1u    0.374546  
       6B3u    0.376043     1Au     0.376043     4B2u    0.473932  
       4B1u    0.473932     7B3u    0.551139     8Ag     0.558655  
       9Ag     0.704669     4B1g    0.768234     4B2g    0.768234  
       8B3u    0.790859     5B2u    0.855839     5B1u    0.855839  
       2B3g    0.884219    10Ag     0.884219     6B1u    0.948599  
       6B2u    0.948599     9B3u    0.971714     2Au     0.971714  
      10B3u    1.076529    11Ag     1.083956     5B1g    1.096676  
       5B2g    1.096676     6B2g    1.098294     6B1g    1.098294  
      12Ag     1.103601     3B3g    1.103601    11B3u    1.304220  
       7B2u    1.461473     7B1u    1.461473    13Ag     1.473332  
      12B3u    1.582388     3Au     1.582388     7B1g    1.631071  
       7B2g    1.631071    13B3u    1.686536     8B2u    1.915478  
       8B1u    1.915478     4B3g    2.522121    14Ag     2.522122  
      15Ag     2.532188     9B1u    2.654151     9B2u    2.654151  
      16Ag     2.662313     5B3g    2.662313    17Ag     2.687060  
       8B2g    2.757171     8B1g    2.757171    14B3u    2.785911  
      10B2u    2.869545    10B1u    2.869545    15B3u    2.943219  
       4Au     2.943220    16B3u    2.953111     5Au     2.967315  
      17B3u    2.967315    11B2u    2.970523    11B1u    2.970523  
       9B2g    2.987672     9B1g    2.987672    12B2u    2.994709  
      12B1u    2.994709    18Ag     2.994968     6B3g    2.994969  
      19Ag     3.179503    10B2g    3.182186    10B1g    3.182186  
      18B3u    3.250171     6Au     3.250171    19B3u    3.358738  
      20Ag     3.384795    11B1g    3.405202    11B2g    3.405202  
      21Ag     3.680690     7B3g    3.680690    12B2g    3.746259  
      12B1g    3.746259    13B2u    4.585380    13B1u    4.585380  
       7Au     4.941809    20B3u    4.941809    21B3u    5.030805  
      22Ag     5.311461    22B3u    5.507241    13B2g    5.533937  
      13B1g    5.533937    14B1u    7.502248    14B2u    7.502248  
       8B3g    7.562140    23Ag     7.562141    15B1u    7.712305  
      15B2u    7.712305     9B3g    7.792441    24Ag     7.792455  
      25Ag     7.828147    14B2g    8.056265    14B1g    8.056265  
       8Au     8.117457    23B3u    8.117473    16B2u    8.198170  
      16B1u    8.198170    26Ag     8.499475    15B1g    8.559829  
      15B2g    8.559829    24B3u    8.582092     9Au     8.582101  
      16B2g    8.640507    16B1g    8.640507    17B2u    8.788108  
      17B1u    8.788108    25B3u    8.876186    27Ag     9.018116  
      10B3g    9.018121    26B3u    9.038943    17B2g    9.087383  
      17B1g    9.087383    28Ag     9.144138    29Ag     9.259440  
      11B3g    9.259450    18B1u    9.409803    18B2u    9.409803  
      27B3u   10.029707    10Au    10.029715    11Au    10.293852  
      28B3u   10.293853    19B2u   10.460318    19B1u   10.460318  
      18B2g   10.837665    18B1g   10.837665    29B3u   10.999415  
      30Ag    12.600387    19B1g   12.860394    19B2g   12.860394  
      30B3u   13.696563    31B3u   32.421761    31Ag    32.800335  

    Final Occupation by Irrep:
             Ag   B1g   B2g   B3g    Au   B1u   B2u   B3u 
    DOCC [     3,    0,    0,    0,    0,    1,    1,    2 ]

  @DF-RKS Final Energy:  -109.38245519111527

   => Energetics <=

    Nuclear Repulsion Energy =             23.6276641783278940
    One-Electron Energy =                -194.4744729496733839
    Two-Electron Energy =                  68.0197835645376614
    DFT Exchange-Correlation Energy =      -6.5551009743074538
    Empirical Dispersion Energy =          -0.0003290100000000
    VV10 Nonlocal Energy =                  0.0000000000000000
    Total Energy =                       -109.3824551911152696

Computation Completed


Properties will be evaluated at   0.000000,   0.000000,   0.000000 [a0]

Properties computed using the SCF density matrix

  Nuclear Dipole Moment: [e a0]
     X:     0.0000      Y:     0.0000      Z:     0.0000

  Electronic Dipole Moment: [e a0]
     X:     0.0000      Y:     0.0000      Z:     0.0000

  Dipole Moment: [e a0]
     X:     0.0000      Y:     0.0000      Z:     0.0000     Total:     0.0000

  Dipole Moment: [D]
     X:     0.0000      Y:     0.0000      Z:     0.0000     Total:     0.0000


*** tstop() called on bp1-compute00149.data.bp.acrc.priv at Mon Apr 19 15:37:15 2021
Module time:
	user time   =      22.92 seconds =       0.38 minutes
	system time =       1.31 seconds =       0.02 minutes
	total time  =          1 seconds =       0.02 minutes
Total time:
	user time   =     148.97 seconds =       2.48 minutes
	system time =       7.12 seconds =       0.12 minutes
	total time  =          8 seconds =       0.13 minutes

*** tstart() called on bp1-compute00149.data.bp.acrc.priv
*** at Mon Apr 19 15:37:15 2021

   => Loading Basis Set <=

    Name: (AUG-CC-PV(Q+D)Z AUX)
    Role: RIFIT
    Keyword: DF_BASIS_MP2
    atoms 1-2 entry N          line   258 file /work/zw18965/.conda/envs/p4env/share/psi4/basis/aug-cc-pvqz-ri.gbs 

	 --------------------------------------------------------
	                          DF-MP2                         
	      2nd-Order Density-Fitted Moller-Plesset Theory     
	              RMP2 Wavefunction,  24 Threads             
	                                                         
	        Rob Parrish, Justin Turney, Andy Simmonett,      
	           Ed Hohenstein, and C. David Sherrill          
	 --------------------------------------------------------

   => Auxiliary Basis Set <=

  Basis Set: (AUG-CC-PV(Q+D)Z AUX)
    Blend: AUG-CC-PVQZ-RI
    Number of shells: 72
    Number of basis function: 336
    Number of Cartesian functions: 474
    Spherical Harmonics?: true
    Max angular momentum: 5

	 --------------------------------------------------------
	                 NBF =   160, NAUX =   336
	 --------------------------------------------------------
	   CLASS    FOCC     OCC    AOCC    AVIR     VIR    FVIR
	   PAIRS       0       7       7     153     153       0
	 --------------------------------------------------------

	-----------------------------------------------------------
	 ==================> DF-MP2 Energies <==================== 
	-----------------------------------------------------------
	 Reference Energy          =    -109.3824551911152696 [Eh]
	 Singles Energy            =      -0.0000000000000000 [Eh]
	 Same-Spin Energy          =      -0.1341463300873965 [Eh]
	 Opposite-Spin Energy      =      -0.4216589642387122 [Eh]
	 Correlation Energy        =      -0.5558052943261087 [Eh]
	 Total Energy              =    -109.9382604854413756 [Eh]
	-----------------------------------------------------------
	 ================> DF-SCS-MP2 Energies <================== 
	-----------------------------------------------------------
	 SCS Same-Spin Scale       =       0.3333333333333333 [-]
	 SCS Opposite-Spin Scale   =       1.2000000000000000 [-]
	 SCS Same-Spin Energy      =      -0.0447154433624655 [Eh]
	 SCS Opposite-Spin Energy  =      -0.5059907570864546 [Eh]
	 SCS Correlation Energy    =      -0.5507062004489200 [Eh]
	 SCS Total Energy          =    -109.9331613915641839 [Eh]
	-----------------------------------------------------------



    B2PLYP-D3BJ Energy Summary
    --------------------------
    DFT Reference Energy                  =  -109.3824551911152696
    Scaled MP2 Correlation                =    -0.1500674294680494
    @Final double-hybrid DFT total energy =  -109.5325226205833218


*** tstop() called on bp1-compute00149.data.bp.acrc.priv at Mon Apr 19 15:37:16 2021
Module time:
	user time   =       9.86 seconds =       0.16 minutes
	system time =       0.43 seconds =       0.01 minutes
	total time  =          1 seconds =       0.02 minutes
Total time:
	user time   =     158.84 seconds =       2.65 minutes
	system time =       7.55 seconds =       0.13 minutes
	total time  =          9 seconds =       0.15 minutes

  //>>>>>>>>>>>>>>>>>>>>>>>>>>>>>>>>>>>//
  //    Loading displacement 2 of 3    //
  //<<<<<<<<<<<<<<<<<<<<<<<<<<<<<<<<<<<//

*** tstart() called on bp1-compute00149.data.bp.acrc.priv
*** at Mon Apr 19 15:37:16 2021

   => Loading Basis Set <=

    Name: AUG-CC-PV(Q+D)Z
    Role: ORBITAL
    Keyword: BASIS
    atoms 1-2 entry N          line   379 file /work/zw18965/.conda/envs/p4env/share/psi4/basis/aug-cc-pv_qpd_z.gbs 


         ---------------------------------------------------------
                                   SCF
               by Justin Turney, Rob Parrish, Andy Simmonett
                          and Daniel G. A. Smith
                              RKS Reference
                       24 Threads, 137329 MiB Core
         ---------------------------------------------------------

  ==> Geometry <==

    Molecular point group: d2h
    Full point group: D_inf_h

    Geometry (in Angstrom), charge = 0, multiplicity = 1:

       Center              X                  Y                   Z               Mass       
    ------------   -----------------  -----------------  -----------------  -----------------
         N            0.548214517811     0.000000000000     0.000000000000    14.003074004430
         N           -0.548214517811    -0.000000000000     0.000000000000    14.003074004430

  Running in d2h symmetry.

  Rotational constants: A = ************  B =      2.00282  C =      2.00282 [cm^-1]
  Rotational constants: A = ************  B =  60043.05139  C =  60043.05139 [MHz]
  Nuclear repulsion =   23.649212562242315

  Charge       = 0
  Multiplicity = 1
  Electrons    = 14
  Nalpha       = 7
  Nbeta        = 7

  ==> Algorithm <==

  SCF Algorithm Type is DF.
  DIIS enabled.
  MOM disabled.
  Fractional occupation disabled.
  Guess Type is READ.
  Energy threshold   = 1.00e-08
  Density threshold  = 1.00e-08
  Integral threshold = 0.00e+00

  ==> Primary Basis <==

  Basis Set: AUG-CC-PV(Q+D)Z
    Blend: AUG-CC-PV(Q+D)Z
    Number of shells: 40
    Number of basis function: 160
    Number of Cartesian functions: 210
    Spherical Harmonics?: true
    Max angular momentum: 4

  ==> DFT Potential <==

   => Composite Functional: B2PLYP-D3BJ <= 

    B2PLYP Double Hybrid Exchange-Correlation Functional

    S. Grimme, J. Chem. Phys., 124, 034108, 2006


    Deriv               =              1
    GGA                 =           TRUE
    Meta                =          FALSE

    Exchange Hybrid     =           TRUE
    MP2 Hybrid          =           TRUE

   => Exchange Functionals <=

    0.4700     XC_GGA_X_B88

   => Exact (HF) Exchange <=

    0.5300               HF 

   => Correlation Functionals <=

    0.7300     XC_GGA_C_LYP

   => MP2 Correlation <=

    0.2700       MP2 

   => Molecular Quadrature <=

    Radial Scheme          =       TREUTLER
    Pruning Scheme         =           FLAT
    Nuclear Scheme         =       TREUTLER

    BS radius alpha        =              1
    Pruning alpha          =              1
    Radial Points          =             75
    Spherical Points       =            302
    Total Points           =          45300
    Total Blocks           =            426
    Max Points             =            256
    Max Functions          =            160

   => B2PLYP-D3(BJ): Empirical Dispersion <=

    Grimme's -D3 (BJ-damping) Dispersion Correction
    Grimme S.; Ehrlich S.; Goerigk L. (2011), J. Comput. Chem., 32: 1456
    Parametrisation from:    L. Goerigk, S. Grimme, Phys. Chem. Chem. Phys. 13, 6670-6688, 2011

        s6 =       0.640000
        s8 =       0.914700
        a1 =       0.306500
        a2 =       5.057000

   => Loading Basis Set <=

    Name: (AUG-CC-PV(Q+D)Z AUX)
    Role: JKFIT
    Keyword: DF_BASIS_SCF
    atoms 1-2 entry N          line   248 file /work/zw18965/.conda/envs/p4env/share/psi4/basis/aug-cc-pvqz-jkfit.gbs 

   => Loading Basis Set <=

    Name: AUG-CC-PV(Q+D)Z
    Role: ORBITAL
    Keyword: BASIS
    atoms 1-2 entry N          line   379 file /work/zw18965/.conda/envs/p4env/share/psi4/basis/aug-cc-pv_qpd_z.gbs 

  Reading orbitals from file 180, no projection.

  ==> Pre-Iterations <==

   -------------------------------------------------------
    Irrep   Nso     Nmo     Nalpha   Nbeta   Ndocc  Nsocc
   -------------------------------------------------------
     Ag        31      31       0       0       0       0
     B1g       19      19       0       0       0       0
     B2g       19      19       0       0       0       0
     B3g       11      11       0       0       0       0
     Au        11      11       0       0       0       0
     B1u       19      19       0       0       0       0
     B2u       19      19       0       0       0       0
     B3u       31      31       0       0       0       0
   -------------------------------------------------------
    Total     160     160       7       7       7       0
   -------------------------------------------------------

  ==> Integral Setup <==

  DFHelper Memory: AOs need 0.066 GiB; user supplied 100.392 GiB. Using in-core AOs.

  ==> MemDFJK: Density-Fitted J/K Matrices <==

    J tasked:                   Yes
    K tasked:                   Yes
    wK tasked:                   No
    OpenMP threads:              24
    Memory [MiB]:            102801
    Algorithm:                 Core
    Schwarz Cutoff:           1E-12
    Mask sparsity (%):       0.0000
    Fitting Condition:        1E-10

   => Auxiliary Basis Set <=

  Basis Set: (AUG-CC-PV(Q+D)Z AUX)
    Blend: AUG-CC-PVQZ-JKFIT
    Number of shells: 68
    Number of basis function: 284
    Number of Cartesian functions: 396
    Spherical Harmonics?: true
    Max angular momentum: 5

  Cached 100.0% of DFT collocation blocks in 0.191 [GiB].

  Minimum eigenvalue in the overlap matrix is 3.1987789539E-05.
  Using Symmetric Orthogonalization.

  SCF Guess: Orbitals guess was supplied from a previous computation.

  ==> Iterations <==

                           Total Energy        Delta E     RMS |[F,P]|

   @DF-RKS iter   0:  -109.38347934312353   -1.09383e+02   8.56315e-05 
   @DF-RKS iter   1:  -109.38256796869869    9.11374e-04   4.71073e-06 DIIS
   @DF-RKS iter   2:  -109.38256800056186   -3.18632e-08   1.71068e-06 DIIS
   @DF-RKS iter   3:  -109.38256800359024   -3.02838e-09   2.61199e-07 DIIS
   @DF-RKS iter   4:  -109.38256800369568   -1.05445e-10   6.53267e-08 DIIS
   @DF-RKS iter   5:  -109.38256800370199   -6.30962e-12   5.64073e-09 DIIS
  Energy and wave function converged.


  ==> Post-Iterations <==

    Orbital Energies [Eh]
    ---------------------

    Doubly Occupied:                                                      

       1Ag   -14.950491     1B3u  -14.947916     2Ag    -1.274194  
       2B3u   -0.651317     1B1u   -0.533439     1B2u   -0.533439  
       3Ag    -0.520620  

    Virtual:                                                              

       1B2g    0.035979     1B1g    0.035979     3B3u    0.053769  
       4Ag     0.067716     2B2u    0.078766     2B1u    0.078766  
       5Ag     0.109864     2B2g    0.126180     2B1g    0.126180  
       4B3u    0.209204     6Ag     0.259110     1B3g    0.259110  
       7Ag     0.309892     5B3u    0.358990     3B2g    0.367794  
       3B1g    0.367794     3B2u    0.374544     3B1u    0.374544  
       6B3u    0.376032     1Au     0.376032     4B1u    0.473836  
       4B2u    0.473836     7B3u    0.551290     8Ag     0.558644  
       9Ag     0.704700     4B2g    0.768446     4B1g    0.768446  
       8B3u    0.791897     5B1u    0.855875     5B2u    0.855875  
       2B3g    0.884228    10Ag     0.884228     6B2u    0.948575  
       6B1u    0.948575     9B3u    0.971579     2Au     0.971579  
      10B3u    1.077202    11Ag     1.084161     5B2g    1.096826  
       5B1g    1.096826     6B2g    1.098369     6B1g    1.098369  
      12Ag     1.103699     3B3g    1.103699    11B3u    1.304297  
       7B2u    1.462029     7B1u    1.462029    13Ag     1.472885  
      12B3u    1.582862     3Au     1.582862     7B2g    1.631102  
       7B1g    1.631102    13B3u    1.687627     8B2u    1.915161  
       8B1u    1.915161     4B3g    2.522094    14Ag     2.522094  
      15Ag     2.532661     9B1u    2.654424     9B2u    2.654424  
      16Ag     2.662269     5B3g    2.662269    17Ag     2.687831  
       8B2g    2.757944     8B1g    2.757944    14B3u    2.786005  
      10B2u    2.870408    10B1u    2.870408    15B3u    2.943397  
       4Au     2.943398    16B3u    2.952960     5Au     2.967703  
      17B3u    2.967704    11B1u    2.970771    11B2u    2.970771  
       9B2g    2.987450     9B1g    2.987450    18Ag     2.994806  
       6B3g    2.994806    12B2u    2.994834    12B1u    2.994834  
      19Ag     3.178549    10B2g    3.182116    10B1g    3.182116  
      18B3u    3.250084     6Au     3.250084    19B3u    3.359856  
      20Ag     3.385824    11B2g    3.406196    11B1g    3.406196  
      21Ag     3.682210     7B3g    3.682210    12B1g    3.747688  
      12B2g    3.747688    13B2u    4.586248    13B1u    4.586248  
       7Au     4.943940    20B3u    4.943940    21B3u    5.034230  
      22Ag     5.316061    22B3u    5.506614    13B2g    5.535661  
      13B1g    5.535661    14B1u    7.501443    14B2u    7.501443  
       8B3g    7.562999    23Ag     7.563000    15B2u    7.712519  
      15B1u    7.712519     9B3g    7.791921    24Ag     7.791935  
      25Ag     7.828044    14B2g    8.055032    14B1g    8.055032  
       8Au     8.118148    23B3u    8.118164    16B1u    8.199491  
      16B2u    8.199491    26Ag     8.499093    15B2g    8.560783  
      15B1g    8.560783    24B3u    8.580423     9Au     8.580432  
      16B2g    8.641200    16B1g    8.641200    17B2u    8.788263  
      17B1u    8.788263    25B3u    8.877558    27Ag     9.018507  
      10B3g    9.018512    26B3u    9.042233    17B1g    9.089514  
      17B2g    9.089514    28Ag     9.143822    29Ag     9.260504  
      11B3g    9.260515    18B1u    9.409767    18B2u    9.409767  
      27B3u   10.032928    10Au    10.032936    11Au    10.298924  
      28B3u   10.298926    19B1u   10.465703    19B2u   10.465703  
      18B2g   10.841425    18B1g   10.841425    29B3u   11.002845  
      30Ag    12.607688    19B2g   12.867586    19B1g   12.867586  
      30B3u   13.699266    31B3u   32.441064    31Ag    32.804708  

    Final Occupation by Irrep:
             Ag   B1g   B2g   B3g    Au   B1u   B2u   B3u 
    DOCC [     3,    0,    0,    0,    0,    1,    1,    2 ]

  @DF-RKS Final Energy:  -109.38256800370199

   => Energetics <=

    Nuclear Repulsion Energy =             23.6492125622423153
    One-Electron Energy =                -194.5164000511424547
    Two-Electron Energy =                  68.0406744777603905
    DFT Exchange-Correlation Energy =      -6.5557259825622447
    Empirical Dispersion Energy =          -0.0003290100000000
    VV10 Nonlocal Energy =                  0.0000000000000000
    Total Energy =                       -109.3825680037019907

Computation Completed


Properties will be evaluated at   0.000000,   0.000000,   0.000000 [a0]

Properties computed using the SCF density matrix

  Nuclear Dipole Moment: [e a0]
     X:    -0.0000      Y:     0.0000      Z:     0.0000

  Electronic Dipole Moment: [e a0]
     X:     0.0000      Y:     0.0000      Z:     0.0000

  Dipole Moment: [e a0]
     X:    -0.0000      Y:     0.0000      Z:     0.0000     Total:     0.0000

  Dipole Moment: [D]
     X:    -0.0000      Y:     0.0000      Z:     0.0000     Total:     0.0000


*** tstop() called on bp1-compute00149.data.bp.acrc.priv at Mon Apr 19 15:37:17 2021
Module time:
	user time   =      23.46 seconds =       0.39 minutes
	system time =       1.14 seconds =       0.02 minutes
	total time  =          1 seconds =       0.02 minutes
Total time:
	user time   =     182.52 seconds =       3.04 minutes
	system time =       8.69 seconds =       0.14 minutes
	total time  =         10 seconds =       0.17 minutes

*** tstart() called on bp1-compute00149.data.bp.acrc.priv
*** at Mon Apr 19 15:37:17 2021

   => Loading Basis Set <=

[...]
    GGA                 =           TRUE
    Meta                =          FALSE

    Exchange Hybrid     =           TRUE
    MP2 Hybrid          =           TRUE

   => Exchange Functionals <=

    0.4700     XC_GGA_X_B88

   => Exact (HF) Exchange <=

    0.5300               HF 

   => Correlation Functionals <=

    0.7300     XC_GGA_C_LYP

   => MP2 Correlation <=

    0.2700       MP2 

   => Molecular Quadrature <=

    Radial Scheme          =       TREUTLER
    Pruning Scheme         =           FLAT
    Nuclear Scheme         =       TREUTLER

    BS radius alpha        =              1
    Pruning alpha          =              1
    Radial Points          =             75
    Spherical Points       =            302
    Total Points           =          45300
    Total Blocks           =            426
    Max Points             =            256
    Max Functions          =            160

   => B2PLYP-D3(BJ): Empirical Dispersion <=

    Grimme's -D3 (BJ-damping) Dispersion Correction
    Grimme S.; Ehrlich S.; Goerigk L. (2011), J. Comput. Chem., 32: 1456
    Parametrisation from:    L. Goerigk, S. Grimme, Phys. Chem. Chem. Phys. 13, 6670-6688, 2011

        s6 =       0.640000
        s8 =       0.914700
        a1 =       0.306500
        a2 =       5.057000

   => Loading Basis Set <=

    Name: (AUG-CC-PV(Q+D)Z AUX)
    Role: JKFIT
    Keyword: DF_BASIS_SCF
    atoms 1-2 entry N          line   248 file /work/zw18965/.conda/envs/p4env/share/psi4/basis/aug-cc-pvqz-jkfit.gbs 

  ==> Pre-Iterations <==

   -------------------------------------------------------
    Irrep   Nso     Nmo     Nalpha   Nbeta   Ndocc  Nsocc
   -------------------------------------------------------
     Ag        31      31       0       0       0       0
     B1g       19      19       0       0       0       0
     B2g       19      19       0       0       0       0
     B3g       11      11       0       0       0       0
     Au        11      11       0       0       0       0
     B1u       19      19       0       0       0       0
     B2u       19      19       0       0       0       0
     B3u       31      31       0       0       0       0
   -------------------------------------------------------
    Total     160     160       7       7       7       0
   -------------------------------------------------------

  ==> Integral Setup <==

  DFHelper Memory: AOs need 0.066 GiB; user supplied 100.392 GiB. Using in-core AOs.

  ==> MemDFJK: Density-Fitted J/K Matrices <==

    J tasked:                   Yes
    K tasked:                   Yes
    wK tasked:                   No
    OpenMP threads:              24
    Memory [MiB]:            102801
    Algorithm:                 Core
    Schwarz Cutoff:           1E-12
    Mask sparsity (%):       0.0000
    Fitting Condition:        1E-10

   => Auxiliary Basis Set <=

  Basis Set: (AUG-CC-PV(Q+D)Z AUX)
    Blend: AUG-CC-PVQZ-JKFIT
    Number of shells: 68
    Number of basis function: 284
    Number of Cartesian functions: 396
    Spherical Harmonics?: true
    Max angular momentum: 5

  Cached 100.0% of DFT collocation blocks in 0.191 [GiB].

  Minimum eigenvalue in the overlap matrix is 3.2170092276E-05.
  Using Symmetric Orthogonalization.

  SCF Guess: Superposition of Atomic Densities via on-the-fly atomic UHF.

  ==> Iterations <==

                           Total Energy        Delta E     RMS |[F,P]|

   @DF-RKS iter SAD:  -108.68374089523778   -1.08684e+02   0.00000e+00 
   @DF-RKS iter   1:  -109.36195390394836   -6.78213e-01   3.93967e-03 DIIS
   @DF-RKS iter   2:  -109.37752561145459   -1.55717e-02   1.89790e-03 DIIS
   @DF-RKS iter   3:  -109.38235357093801   -4.82796e-03   9.88900e-05 DIIS
   @DF-RKS iter   4:  -109.38236675605950   -1.31851e-05   1.43141e-05 DIIS
   @DF-RKS iter   5:  -109.38236701976778   -2.63708e-07   1.52426e-06 DIIS
   @DF-RKS iter   6:  -109.38236702758334   -7.81556e-09   1.18338e-07 DIIS
   @DF-RKS iter   7:  -109.38236702764350   -6.01545e-11   6.44629e-09 DIIS
   @DF-RKS iter   8:  -109.38236702764381   -3.12639e-13   5.11077e-10 DIIS
   @DF-RKS iter   9:  -109.38236702764378    2.84217e-14   4.66842e-11 DIIS
  Energy and wave function converged.


  ==> Post-Iterations <==

    Orbital Energies [Eh]
    ---------------------

    Doubly Occupied:                                                      

       1Ag   -14.951045     1B3u  -14.948501     2Ag    -1.273075  
       2B3u   -0.651835     1B2u   -0.532806     1B1u   -0.532806  
       3Ag    -0.520507  

    Virtual:                                                              

       1B1g    0.035284     1B2g    0.035284     3B3u    0.053750  
       4Ag     0.067690     2B2u    0.078788     2B1u    0.078788  
       5Ag     0.109852     2B1g    0.126036     2B2g    0.126036  
       4B3u    0.209162     6Ag     0.259080     1B3g    0.259080  
       7Ag     0.309939     5B3u    0.358843     3B1g    0.367685  
       3B2g    0.367685     3B1u    0.374548     3B2u    0.374548  
       6B3u    0.376050     1Au     0.376050     4B2u    0.474004  
       4B1u    0.474004     7B3u    0.551024     8Ag     0.558663  
       9Ag     0.704647     4B1g    0.768076     4B2g    0.768076  
       8B3u    0.790080     5B2u    0.855812     5B1u    0.855812  
       2B3g    0.884212    10Ag     0.884212     6B1u    0.948617  
       6B2u    0.948617     9B3u    0.971816     2Au     0.971816  
      10B3u    1.076028    11Ag     1.083803     5B1g    1.096563  
       5B2g    1.096563     6B2g    1.098237     6B1g    1.098237  
      12Ag     1.103528     3B3g    1.103528    11B3u    1.304164  
       7B2u    1.461057     7B1u    1.461057    13Ag     1.473668  
      12B3u    1.582032     3Au     1.582032     7B1g    1.631050  
       7B2g    1.631050    13B3u    1.685722     8B2u    1.915717  
       8B1u    1.915717     4B3g    2.522142    14Ag     2.522143  
      15Ag     2.531832     9B2u    2.653946     9B1u    2.653946  
      16Ag     2.662346     5B3g    2.662346    17Ag     2.686483  
       8B1g    2.756591     8B2g    2.756591    14B3u    2.785841  
      10B2u    2.868899    10B1u    2.868899    15B3u    2.943087  
       4Au     2.943088    16B3u    2.953226     5Au     2.967024  
      17B3u    2.967025    11B2u    2.970337    11B1u    2.970337  
       9B2g    2.987838     9B1g    2.987838    12B2u    2.994616  
      12B1u    2.994616    18Ag     2.995089     6B3g    2.995089  
      19Ag     3.180216    10B1g    3.182237    10B2g    3.182237  
      18B3u    3.250235     6Au     3.250235    19B3u    3.357903  
      20Ag     3.384025    11B1g    3.404464    11B2g    3.404464  
      21Ag     3.679552     7B3g    3.679552    12B2g    3.745189  
      12B1g    3.745189    13B2u    4.584729    13B1u    4.584729  
       7Au     4.940213    20B3u    4.940213    21B3u    5.028238  
      22Ag     5.308016    22B3u    5.507716    13B1g    5.532642  
      13B2g    5.532642    14B2u    7.502855    14B1u    7.502855  
       8B3g    7.561499    23Ag     7.561500    15B1u    7.712142  
      15B2u    7.712142     9B3g    7.792829    24Ag     7.792844  
      25Ag     7.828211    14B1g    8.057200    14B2g    8.057200  
       8Au     8.116941    23B3u    8.116956    16B1u    8.197179  
      16B2u    8.197179    26Ag     8.499764    15B1g    8.559116  
      15B2g    8.559116    24B3u    8.583337     9Au     8.583346  
      16B1g    8.639981    16B2g    8.639981    17B2u    8.787991  
      17B1u    8.787991    25B3u    8.875084    27Ag     9.017820  
      10B3g    9.017824    26B3u    9.036553    17B1g    9.085796  
      17B2g    9.085796    28Ag     9.144387    29Ag     9.258649  
      11B3g    9.258660    18B2u    9.409834    18B1u    9.409834  
      27B3u   10.027298    10Au    10.027306    11Au    10.290057  
      28B3u   10.290058    19B2u   10.456289    19B1u   10.456289  
      18B1g   10.834844    18B2g   10.834844    29B3u   10.996839  
      30Ag    12.594923    19B1g   12.855010    19B2g   12.855010  
      30B3u   13.694541    31B3u   32.407374    31Ag    32.796993  

    Final Occupation by Irrep:
             Ag   B1g   B2g   B3g    Au   B1u   B2u   B3u 
    DOCC [     3,    0,    0,    0,    0,    1,    1,    2 ]

  @DF-RKS Final Energy:  -109.38236702764378

   => Energetics <=

    Nuclear Repulsion Energy =             23.6115386652344874
    One-Electron Energy =                -194.4430922431941440
    Two-Electron Energy =                  68.0041491208840228
    DFT Exchange-Correlation Energy =      -6.5546335605681438
    Empirical Dispersion Energy =          -0.0003290100000000
    VV10 Nonlocal Energy =                  0.0000000000000000
    Total Energy =                       -109.3823670276437809

Computation Completed


Properties will be evaluated at   0.000000,   0.000000,   0.000000 [a0]

Properties computed using the SCF density matrix

  Nuclear Dipole Moment: [e a0]
     X:    -0.0000      Y:    -0.0000      Z:     0.0000

  Electronic Dipole Moment: [e a0]
     X:     0.0000      Y:     0.0000      Z:     0.0000

  Dipole Moment: [e a0]
     X:    -0.0000      Y:    -0.0000      Z:     0.0000     Total:     0.0000

  Dipole Moment: [D]
     X:    -0.0000      Y:    -0.0000      Z:     0.0000     Total:     0.0000


*** tstop() called on bp1-compute00149.data.bp.acrc.priv at Mon Apr 19 15:37:37 2021
Module time:
	user time   =      33.18 seconds =       0.55 minutes
	system time =       1.35 seconds =       0.02 minutes
	total time  =          2 seconds =       0.03 minutes
Total time:
	user time   =     572.56 seconds =       9.54 minutes
	system time =      25.81 seconds =       0.43 minutes
	total time  =         30 seconds =       0.50 minutes

*** tstart() called on bp1-compute00149.data.bp.acrc.priv
*** at Mon Apr 19 15:37:37 2021

   => Loading Basis Set <=

    Name: (AUG-CC-PV(Q+D)Z AUX)
    Role: RIFIT
    Keyword: DF_BASIS_MP2
    atoms 1-2 entry N          line   258 file /work/zw18965/.conda/envs/p4env/share/psi4/basis/aug-cc-pvqz-ri.gbs 

	 --------------------------------------------------------
	                          DF-MP2                         
	      2nd-Order Density-Fitted Moller-Plesset Theory     
	              RMP2 Wavefunction,  24 Threads             
	                                                         
	        Rob Parrish, Justin Turney, Andy Simmonett,      
	           Ed Hohenstein, and C. David Sherrill          
	 --------------------------------------------------------

   => Auxiliary Basis Set <=

  Basis Set: (AUG-CC-PV(Q+D)Z AUX)
    Blend: AUG-CC-PVQZ-RI
    Number of shells: 72
    Number of basis function: 336
    Number of Cartesian functions: 474
    Spherical Harmonics?: true
    Max angular momentum: 5

	 --------------------------------------------------------
	                 NBF =   160, NAUX =   336
	 --------------------------------------------------------
	   CLASS    FOCC     OCC    AOCC    AVIR     VIR    FVIR
	   PAIRS       0       7       7     153     153       0
	 --------------------------------------------------------

	-----------------------------------------------------------
	 ==================> DF-MP2 Energies <==================== 
	-----------------------------------------------------------
	 Reference Energy          =    -109.3823670276437809 [Eh]
	 Singles Energy            =      -0.0000000000000000 [Eh]
	 Same-Spin Energy          =      -0.1342420459685377 [Eh]
	 Opposite-Spin Energy      =      -0.4218807392366055 [Eh]
	 Correlation Energy        =      -0.5561227852051431 [Eh]
	 Total Energy              =    -109.9384898128489283 [Eh]
	-----------------------------------------------------------
	 ================> DF-SCS-MP2 Energies <================== 
	-----------------------------------------------------------
	 SCS Same-Spin Scale       =       0.3333333333333333 [-]
	 SCS Opposite-Spin Scale   =       1.2000000000000000 [-]
	 SCS Same-Spin Energy      =      -0.0447473486561792 [Eh]
	 SCS Opposite-Spin Energy  =      -0.5062568870839266 [Eh]
	 SCS Correlation Energy    =      -0.5510042357401058 [Eh]
	 SCS Total Energy          =    -109.9333712633838900 [Eh]
	-----------------------------------------------------------



    B2PLYP-D3BJ Energy Summary
    --------------------------
    DFT Reference Energy                  =  -109.3823670276437809
    Scaled MP2 Correlation                =    -0.1501531520053886
    @Final double-hybrid DFT total energy =  -109.5325201796491683


*** tstop() called on bp1-compute00149.data.bp.acrc.priv at Mon Apr 19 15:37:38 2021
Module time:
	user time   =       9.52 seconds =       0.16 minutes
	system time =       0.41 seconds =       0.01 minutes
	total time  =          1 seconds =       0.02 minutes
Total time:
	user time   =     582.09 seconds =       9.70 minutes
	system time =      26.22 seconds =       0.44 minutes
	total time  =         31 seconds =       0.52 minutes

         ----------------------------------------------------------
                                   FINDIF
                     R. A. King and Jonathon Misiewicz
         ---------------------------------------------------------

  Computing second-derivative from energies using projected, 
  symmetry-adapted, cartesian coordinates.

  3 energies passed in, including the reference geometry.
    Using 3-point formula.
    Energy without displacement: -109.5325227846
    Check energies below for precision!
    0: -1 :      -109.5325201668
    0: 1  :      -109.5325201796

-------------------------------------------------------------


  ==> Harmonic Vibrational Analysis <==

  non-mass-weighted Hessian:       Symmetric? True   Hermitian? True   Lin Dep Dim?  5 (0)
  projection of translations (True) and rotations (True) removed 5 degrees of freedom (5)
  total projector:                 Symmetric? True   Hermitian? True   Lin Dep Dim?  5 (5)
  mass-weighted Hessian:           Symmetric? True   Hermitian? True   Lin Dep Dim?  5 (0)
  pre-proj  low-frequency mode:    0.0000  [cm^-1]
  pre-proj  low-frequency mode:    0.0000  [cm^-1]
  pre-proj  low-frequency mode:    0.0000  [cm^-1]
  pre-proj  low-frequency mode:    0.0000  [cm^-1]
  pre-proj  low-frequency mode:    0.0000  [cm^-1]
  pre-proj  all modes:['0.0000' '0.0000' '0.0000' '0.0000' '0.0000' '2349.5344']
  projected mass-weighted Hessian: Symmetric? True   Hermitian? True   Lin Dep Dim?  5 (5)
  post-proj low-frequency mode:    0.0000i [cm^-1] (TR)
  post-proj low-frequency mode:    0.0000i [cm^-1] (TR)
  post-proj low-frequency mode:    0.0000i [cm^-1] (TR)
  post-proj low-frequency mode:    0.0000  [cm^-1] (TR)
  post-proj low-frequency mode:    0.0000  [cm^-1] (TR)
  post-proj  all modes:['0.0000i' '0.0000i' '0.0000i' '0.0000' '0.0000' '2349.5344']

  Vibration                       6           
  Freq [cm^-1]                2349.5344       
  Irrep                           Ag          
  Reduced mass [u]             14.0031        
  Force const [mDyne/A]        45.5446        
  Turning point v=0 [a0]        0.0605        
  RMS dev v=0 [a0 u^1/2]        0.1601        
  Char temp [K]               3380.4569       
  ----------------------------------------------------------------------------------
      1   N                0.71  0.00  0.00   
      2   N               -0.71 -0.00 -0.00   

  ==> Thermochemistry Components <==

  Entropy, S
    Electronic S            0.000 [cal/(mol K)]        0.000 [J/(mol K)]       0.00000000 [mEh/K] (multiplicity = 1)
    Translational S        35.924 [cal/(mol K)]      150.307 [J/(mol K)]       0.05724883 [mEh/K] (mol. weight = 28.0061 [u], P = 101325.00 [Pa])
    Rotational S            9.832 [cal/(mol K)]       41.136 [J/(mol K)]       0.01566769 [mEh/K] (symmetry no. = 2)
    Vibrational S           0.000 [cal/(mol K)]        0.001 [J/(mol K)]       0.00000047 [mEh/K]
  Total S                  45.756 [cal/(mol K)]      191.444 [J/(mol K)]       0.07291698 [mEh/K]
  Correction S              0.000 [cal/(mol K)]        0.000 [J/(mol K)]       0.00000000 [mEh/K]

  Constant volume heat capacity, Cv
    Electronic Cv           0.000 [cal/(mol K)]        0.000 [J/(mol K)]       0.00000000 [mEh/K]
    Translational Cv        2.981 [cal/(mol K)]       12.472 [J/(mol K)]       0.00475022 [mEh/K]
    Rotational Cv           1.987 [cal/(mol K)]        8.314 [J/(mol K)]       0.00316681 [mEh/K]
    Vibrational Cv          0.003 [cal/(mol K)]        0.013 [J/(mol K)]       0.00000485 [mEh/K]
  Total Cv                  4.971 [cal/(mol K)]       20.799 [J/(mol K)]       0.00792188 [mEh/K]
  Correction Cv             0.000 [cal/(mol K)]        0.000 [J/(mol K)]       0.00000000 [mEh/K]

  Constant pressure heat capacity, Cp
    Electronic Cp           0.000 [cal/(mol K)]        0.000 [J/(mol K)]       0.00000000 [mEh/K]
    Translational Cp        4.968 [cal/(mol K)]       20.786 [J/(mol K)]       0.00791703 [mEh/K]
    Rotational Cp           1.987 [cal/(mol K)]        8.314 [J/(mol K)]       0.00316681 [mEh/K]
    Vibrational Cp          0.003 [cal/(mol K)]        0.013 [J/(mol K)]       0.00000485 [mEh/K]
  Total Cp                  6.958 [cal/(mol K)]       29.113 [J/(mol K)]       0.01108869 [mEh/K]
  Correction Cp             0.000 [cal/(mol K)]        0.000 [J/(mol K)]       0.00000000 [mEh/K]

  ==> Thermochemistry Energy Analysis <==

  Raw electronic energy, E0
  Total E0, Electronic energy at well bottom at 0 [K]                 -109.53252278 [Eh]

  Zero-point energy, ZPE_vib = Sum_i nu_i / 2
    Electronic ZPE          0.000 [kcal/mol]        0.000 [kJ/mol]       0.00000000 [Eh]
    Translational ZPE       0.000 [kcal/mol]        0.000 [kJ/mol]       0.00000000 [Eh]
    Rotational ZPE          0.000 [kcal/mol]        0.000 [kJ/mol]       0.00000000 [Eh]
    Vibrational ZPE         3.359 [kcal/mol]       14.053 [kJ/mol]       0.00535263 [Eh]        1174.767 [cm^-1]
  Correction ZPE            3.359 [kcal/mol]       14.053 [kJ/mol]       0.00535263 [Eh]        1174.767 [cm^-1]
  Total ZPE, Electronic energy at 0 [K]                               -109.52717015 [Eh]

  Thermal Energy, E (includes ZPE)
    Electronic E            0.000 [kcal/mol]        0.000 [kJ/mol]       0.00000000 [Eh]
    Translational E         0.889 [kcal/mol]        3.718 [kJ/mol]       0.00141628 [Eh]
    Rotational E            0.592 [kcal/mol]        2.479 [kJ/mol]       0.00094418 [Eh]
    Vibrational E           3.359 [kcal/mol]       14.054 [kJ/mol]       0.00535276 [Eh]
  Correction E              4.840 [kcal/mol]       20.251 [kJ/mol]       0.00771322 [Eh]
  Total E, Electronic energy at  298.15 [K]                           -109.52480956 [Eh]

  Enthalpy, H_trans = E_trans + k_B * T
    Electronic H            0.000 [kcal/mol]        0.000 [kJ/mol]       0.00000000 [Eh]
    Translational H         1.481 [kcal/mol]        6.197 [kJ/mol]       0.00236046 [Eh]
    Rotational H            0.592 [kcal/mol]        2.479 [kJ/mol]       0.00094418 [Eh]
    Vibrational H           3.359 [kcal/mol]       14.054 [kJ/mol]       0.00535276 [Eh]
  Correction H              5.433 [kcal/mol]       22.730 [kJ/mol]       0.00865741 [Eh]
  Total H, Enthalpy at  298.15 [K]                                    -109.52386538 [Eh]

  Gibbs free energy, G = H - T * S
    Electronic G            0.000 [kcal/mol]        0.000 [kJ/mol]       0.00000000 [Eh]
    Translational G        -9.230 [kcal/mol]      -38.617 [kJ/mol]      -0.01470828 [Eh]
    Rotational G           -2.339 [kcal/mol]       -9.786 [kJ/mol]      -0.00372714 [Eh]
    Vibrational G           3.359 [kcal/mol]       14.053 [kJ/mol]       0.00535262 [Eh]
  Correction G             -8.210 [kcal/mol]      -34.349 [kJ/mol]      -0.01308279 [Eh]
  Total G, Free enthalpy at  298.15 [K]                               -109.54560558 [Eh]

    Psi4 stopped on: Monday, 19 April 2021 03:37PM
    Psi4 wall time for execution: 0:00:30.67

*** Psi4 exiting successfully. Buy a developer a beer!
