
    -----------------------------------------------------------------------
          Psi4: An Open-Source Ab Initio Electronic Structure Package
                               Psi4 1.3.2 release

                         Git: Rev {HEAD} ecbda83 


    R. M. Parrish, L. A. Burns, D. G. A. Smith, A. C. Simmonett,
    A. E. DePrince III, E. G. Hohenstein, U. Bozkaya, A. Yu. Sokolov,
    R. Di Remigio, R. M. Richard, J. F. Gonthier, A. M. James,
    H. R. McAlexander, A. Kumar, M. Saitow, X. Wang, B. P. Pritchard,
    P. Verma, H. F. Schaefer III, K. Patkowski, R. A. King, E. F. Valeev,
    F. A. Evangelista, J. M. Turney, T. D. Crawford, and C. D. Sherrill,
    J. Chem. Theory Comput. 13(7) pp 3185--3197 (2017).
    (doi: 10.1021/acs.jctc.7b00174)


                         Additional Contributions by
    P. Kraus, H. Kruse, M. H. Lechner, M. C. Schieber, R. A. Shaw,
    A. Alenaizan, R. Galvelis, Z. L. Glick, S. Lehtola, and J. P. Misiewicz

    -----------------------------------------------------------------------


    Psi4 started on: Tuesday, 27 April 2021 05:43PM

    Process ID: 188102
    Host:       bp1-compute00107.data.bp.acrc.priv
    PSIDATADIR: /work/zw18965/.conda/envs/p4env/share/psi4
    Memory:     500.0 MiB
    Threads:    24
    
  ==> Input File <==

--------------------------------------------------------------------------
memory 144 GB

molecule {
0 1
C 0.0000000000 0.0000000000 0.0000000000
O 0.0000000000 0.0000000000 1.1314000000
}

set dynamic_level 1
set basis cc-pV(T+d)Z
 
optimize("wB97M-V")
frequencies("wB97M-V")
--------------------------------------------------------------------------

  Memory set to 134.110 GiB by Python driver.
gradient() will perform gradient computation by finite difference of analytic energies.

         ----------------------------------------------------------
                                   FINDIF
                     R. A. King and Jonathon Misiewicz
         ---------------------------------------------------------

  Using finite-differences of energies to determine gradients.
    Generating geometries for use with 3-point formula.
    Displacement size will be 5.00e-03.
    Number of atoms is 2.
    Number of symmetric SALCs is 1.
    Translations projected? 1. Rotations projected? 1.
    Number of geometries (including reference) is 3.

  //>>>>>>>>>>>>>>>>>>>>>>>>>>>>>>>>>>>//
  //    Loading displacement 1 of 3    //
  //<<<<<<<<<<<<<<<<<<<<<<<<<<<<<<<<<<<//

*** tstart() called on bp1-compute00107.data.bp.acrc.priv
*** at Tue Apr 27 17:43:29 2021

   => Loading Basis Set <=

    Name: CC-PV(T+D)Z
    Role: ORBITAL
    Keyword: BASIS
    atoms 1 entry C          line   195 file /work/zw18965/.conda/envs/p4env/share/psi4/basis/cc-pv_tpd_z.gbs 
    atoms 2 entry O          line   271 file /work/zw18965/.conda/envs/p4env/share/psi4/basis/cc-pv_tpd_z.gbs 


         ---------------------------------------------------------
                                   SCF
               by Justin Turney, Rob Parrish, Andy Simmonett
                          and Daniel G. A. Smith
                              RKS Reference
                       24 Threads, 137329 MiB Core
         ---------------------------------------------------------

  ==> Geometry <==

    Molecular point group: c2v
    Full point group: C_inf_v

    Geometry (in Angstrom), charge = 0, multiplicity = 1:

       Center              X                  Y                   Z               Mass       
    ------------   -----------------  -----------------  -----------------  -----------------
         C            0.000000000000     0.000000000000    -0.646426204420    12.000000000000
         O            0.000000000000     0.000000000000     0.484973795580    15.994914619570

  Running in c2v symmetry.

  Rotational constants: A = ************  B =      1.92079  C =      1.92079 [cm^-1]
  Rotational constants: A = ************  B =  57583.86692  C =  57583.86692 [MHz]
  Nuclear repulsion =   22.450509202899067

  Charge       = 0
  Multiplicity = 1
  Electrons    = 14
  Nalpha       = 7
  Nbeta        = 7

  ==> Algorithm <==

  SCF Algorithm Type is DF.
  DIIS enabled.
  MOM disabled.
  Fractional occupation disabled.
  Guess Type is SAD.
  Energy threshold   = 1.00e-08
  Density threshold  = 1.00e-08
  Integral threshold = 0.00e+00

  ==> Primary Basis <==

  Basis Set: CC-PV(T+D)Z
    Blend: CC-PV(T+D)Z
    Number of shells: 20
    Number of basis function: 60
    Number of Cartesian functions: 70
    Spherical Harmonics?: true
    Max angular momentum: 3

  ==> DFT Potential <==

   => Composite Functional: WB97M-V <= 

    wB97M-V Hyb-GGA Exchange-Correlation Functional

    N. Mardirossian and M. Head-Gordon, J. Chem. Phys. 144, 214110 (2016)

    Deriv               =              1
    GGA                 =           TRUE
    Meta                =           TRUE

    Exchange Hybrid     =           TRUE
    MP2 Hybrid          =          FALSE

   => Exchange-Correlation Functionals <=

    1.0000   wB97M-V exchange-correlation functional

   => Exact (HF) Exchange <=

    0.8500            HF,LR [omega = 0.3000]
    0.1500               HF 

   => VV10 Non-Local Parameters <=

    VV10 B              =     6.0000E+00
    VV10 C              =     1.0000E-02

   => Molecular Quadrature <=

    Radial Scheme          =       TREUTLER
    Pruning Scheme         =           FLAT
    Nuclear Scheme         =       TREUTLER

    BS radius alpha        =              1
    Pruning alpha          =              1
    Radial Points          =             75
    Spherical Points       =            302
    Total Points           =          43360
    Total Blocks           =            391
    Max Points             =            253
    Max Functions          =             60

   => Loading Basis Set <=

    Name: (CC-PV(T+D)Z AUX)
    Role: JKFIT
    Keyword: DF_BASIS_SCF
    atoms 1 entry C          line   125 file /work/zw18965/.conda/envs/p4env/share/psi4/basis/cc-pvtz-jkfit.gbs 
    atoms 2 entry O          line   229 file /work/zw18965/.conda/envs/p4env/share/psi4/basis/cc-pvtz-jkfit.gbs 

  ==> Pre-Iterations <==

   -------------------------------------------------------
    Irrep   Nso     Nmo     Nalpha   Nbeta   Ndocc  Nsocc
   -------------------------------------------------------
     A1        26      26       0       0       0       0
     A2         6       6       0       0       0       0
     B1        14      14       0       0       0       0
     B2        14      14       0       0       0       0
   -------------------------------------------------------
    Total      60      60       7       7       7       0
   -------------------------------------------------------

  ==> Integral Setup <==

  ==> DiskDFJK: Density-Fitted J/K Matrices <==

    J tasked:                  Yes
    K tasked:                  Yes
    wK tasked:                 Yes
    Omega:               3.000E-01
    OpenMP threads:             24
    Integrals threads:          24
    Memory [MiB]:           102815
    Algorithm:                Core
    Integral Cache:           NONE
    Schwarz Cutoff:          1E-12
    Fitting Condition:       1E-10

   => Auxiliary Basis Set <=

  Basis Set: (CC-PV(T+D)Z AUX)
    Blend: CC-PVTZ-JKFIT
    Number of shells: 50
    Number of basis function: 158
    Number of Cartesian functions: 192
    Spherical Harmonics?: true
    Max angular momentum: 4

  Cached 100.0% of DFT collocation blocks in 0.177 [GiB].

  Minimum eigenvalue in the overlap matrix is 3.0344279295E-03.
  Using Symmetric Orthogonalization.

  SCF Guess: Superposition of Atomic Densities via on-the-fly atomic UHF.

  ==> Iterations <==

                           Total Energy        Delta E     RMS |[F,P]|

   @DF-RKS iter SAD:  -112.60199176840221   -1.12602e+02   0.00000e+00 
   @DF-RKS iter   1:  -113.29884072179679   -6.96849e-01   9.90405e-03 DIIS
   @DF-RKS iter   2:  -113.28127044082346    1.75703e-02   1.21709e-02 DIIS
   @DF-RKS iter   3:  -113.33191681581062   -5.06464e-02   1.44465e-03 DIIS
   @DF-RKS iter   4:  -113.33283555080581   -9.18735e-04   1.86674e-04 DIIS
   @DF-RKS iter   5:  -113.33285305297035   -1.75022e-05   3.15476e-05 DIIS
   @DF-RKS iter   6:  -113.33285368698294   -6.34013e-07   5.69070e-06 DIIS
   @DF-RKS iter   7:  -113.33285372325008   -3.62671e-08   6.38288e-07 DIIS
   @DF-RKS iter   8:  -113.33285372379200   -5.41917e-10   1.57646e-07 DIIS
   @DF-RKS iter   9:  -113.33285372380415   -1.21503e-11   1.14115e-08 DIIS
   @DF-RKS iter  10:  -113.33285372380418   -2.84217e-14   1.35992e-09 DIIS
  Energy and wave function converged.


  ==> Post-Iterations <==

    Orbital Energies [Eh]
    ---------------------

    Doubly Occupied:                                                      

       1A1   -19.438905     2A1   -10.460915     3A1    -1.291150  
       4A1    -0.691320     1B1    -0.581865     1B2    -0.581865  
       5A1    -0.484965  

    Virtual:                                                              

       2B1     0.068494     2B2     0.068494     6A1     0.233073  
       3B1     0.372199     3B2     0.372199     7A1     0.387960  
       8A1     0.635638     9A1     0.696564     4B1     0.712302  
       4B2     0.712302    10A1     0.727343     1A2     0.727344  
       5B2     0.950593     5B1     0.950593    11A1     1.200716  
      12A1     1.406716     2A2     1.605727    13A1     1.605727  
       6B1     1.979435     6B2     1.979435    14A1     2.018772  
       7B2     2.091767     7B1     2.091767    15A1     2.538325  
       8B2     2.718959     8B1     2.718959     3A2     2.900673  
      16A1     2.900674    17A1     3.012849     4A2     3.012854  
       9B1     3.044736     9B2     3.044736    18A1     3.184007  
      10B1     3.330146    10B2     3.330146    19A1     3.455377  
      11B1     4.175140    11B2     4.175140    20A1     4.533499  
      12B1     5.188726    12B2     5.188726    21A1     5.581192  
       5A2     5.581198    22A1     6.218405    13B1     6.331941  
      13B2     6.331941     6A2     6.343430    23A1     6.343442  
      14B1     6.836792    14B2     6.836792    24A1     6.862538  
      25A1     7.097569    26A1    12.334237  

    Final Occupation by Irrep:
             A1    A2    B1    B2 
    DOCC [     5,    0,    1,    1 ]

  @DF-RKS Final Energy:  -113.33285372380418

   => Energetics <=

    Nuclear Repulsion Energy =             22.4505092028990667
    One-Electron Energy =                -198.2002145625431524
    Two-Electron Energy =                  72.4035544894988874
    DFT Exchange-Correlation Energy =     -10.0458238152387036
    Empirical Dispersion Energy =           0.0000000000000000
    VV10 Nonlocal Energy =                  0.0591209615797160
    Total Energy =                       -113.3328537238041775

Computation Completed


Properties will be evaluated at   0.000000,   0.000000,   0.000000 [a0]

Properties computed using the SCF density matrix

  Nuclear Dipole Moment: [e a0]
     X:     0.0000      Y:     0.0000      Z:     0.0023

  Electronic Dipole Moment: [e a0]
     X:     0.0000      Y:     0.0000      Z:     0.0303

  Dipole Moment: [e a0]
     X:     0.0000      Y:     0.0000      Z:     0.0327     Total:     0.0327

  Dipole Moment: [D]
     X:     0.0000      Y:     0.0000      Z:     0.0830     Total:     0.0830


*** tstop() called on bp1-compute00107.data.bp.acrc.priv at Tue Apr 27 17:43:31 2021
Module time:
	user time   =      52.19 seconds =       0.87 minutes
	system time =       2.55 seconds =       0.04 minutes
	total time  =          2 seconds =       0.03 minutes
Total time:
	user time   =      52.19 seconds =       0.87 minutes
	system time =       2.55 seconds =       0.04 minutes
	total time  =          2 seconds =       0.03 minutes

  //>>>>>>>>>>>>>>>>>>>>>>>>>>>>>>>>>>>//
  //    Loading displacement 2 of 3    //
  //<<<<<<<<<<<<<<<<<<<<<<<<<<<<<<<<<<<//

*** tstart() called on bp1-compute00107.data.bp.acrc.priv
*** at Tue Apr 27 17:43:31 2021

   => Loading Basis Set <=

    Name: CC-PV(T+D)Z
    Role: ORBITAL
    Keyword: BASIS
    atoms 1 entry C          line   195 file /work/zw18965/.conda/envs/p4env/share/psi4/basis/cc-pv_tpd_z.gbs 
    atoms 2 entry O          line   271 file /work/zw18965/.conda/envs/p4env/share/psi4/basis/cc-pv_tpd_z.gbs 


         ---------------------------------------------------------
                                   SCF
               by Justin Turney, Rob Parrish, Andy Simmonett
                          and Daniel G. A. Smith
                              RKS Reference
                       24 Threads, 137329 MiB Core
         ---------------------------------------------------------

  ==> Geometry <==

    Molecular point group: c2v
    Full point group: C_inf_v

    Geometry (in Angstrom), charge = 0, multiplicity = 1:

       Center              X                  Y                   Z               Mass       
    ------------   -----------------  -----------------  -----------------  -----------------
         C            0.000000000000     0.000000000000    -0.647003544760    12.000000000000
         O            0.000000000000     0.000000000000     0.485406938504    15.994914619570

  Running in c2v symmetry.

  Rotational constants: A = ************  B =      1.91736  C =      1.91736 [cm^-1]
  Rotational constants: A = ************  B =  57481.14520  C =  57481.14520 [MHz]
  Nuclear repulsion =   22.430475951585748

  Charge       = 0
  Multiplicity = 1
  Electrons    = 14
  Nalpha       = 7
  Nbeta        = 7

  ==> Algorithm <==

  SCF Algorithm Type is DF.
  DIIS enabled.
  MOM disabled.
  Fractional occupation disabled.
  Guess Type is SAD.
  Energy threshold   = 1.00e-08
  Density threshold  = 1.00e-08
  Integral threshold = 0.00e+00

  ==> Primary Basis <==

  Basis Set: CC-PV(T+D)Z
    Blend: CC-PV(T+D)Z
    Number of shells: 20
    Number of basis function: 60
    Number of Cartesian functions: 70
    Spherical Harmonics?: true
    Max angular momentum: 3

  ==> DFT Potential <==

   => Composite Functional: WB97M-V <= 

    wB97M-V Hyb-GGA Exchange-Correlation Functional

    N. Mardirossian and M. Head-Gordon, J. Chem. Phys. 144, 214110 (2016)

    Deriv               =              1
    GGA                 =           TRUE
    Meta                =           TRUE

    Exchange Hybrid     =           TRUE
    MP2 Hybrid          =          FALSE

   => Exchange-Correlation Functionals <=

    1.0000   wB97M-V exchange-correlation functional

   => Exact (HF) Exchange <=

    0.8500            HF,LR [omega = 0.3000]
    0.1500               HF 

   => VV10 Non-Local Parameters <=

    VV10 B              =     6.0000E+00
    VV10 C              =     1.0000E-02

   => Molecular Quadrature <=

    Radial Scheme          =       TREUTLER
    Pruning Scheme         =           FLAT
    Nuclear Scheme         =       TREUTLER

    BS radius alpha        =              1
    Pruning alpha          =              1
    Radial Points          =             75
    Spherical Points       =            302
    Total Points           =          43360
    Total Blocks           =            391
    Max Points             =            253
    Max Functions          =             60

   => Loading Basis Set <=

    Name: (CC-PV(T+D)Z AUX)
    Role: JKFIT
    Keyword: DF_BASIS_SCF
    atoms 1 entry C          line   125 file /work/zw18965/.conda/envs/p4env/share/psi4/basis/cc-pvtz-jkfit.gbs 
    atoms 2 entry O          line   229 file /work/zw18965/.conda/envs/p4env/share/psi4/basis/cc-pvtz-jkfit.gbs 

  ==> Pre-Iterations <==

   -------------------------------------------------------
    Irrep   Nso     Nmo     Nalpha   Nbeta   Ndocc  Nsocc
   -------------------------------------------------------
     A1        26      26       0       0       0       0
     A2         6       6       0       0       0       0
     B1        14      14       0       0       0       0
     B2        14      14       0       0       0       0
   -------------------------------------------------------
    Total      60      60       7       7       7       0
   -------------------------------------------------------

  ==> Integral Setup <==

  ==> DiskDFJK: Density-Fitted J/K Matrices <==

    J tasked:                  Yes
    K tasked:                  Yes
    wK tasked:                 Yes
    Omega:               3.000E-01
    OpenMP threads:             24
    Integrals threads:          24
    Memory [MiB]:           102815
    Algorithm:                Core
    Integral Cache:           NONE
    Schwarz Cutoff:          1E-12
    Fitting Condition:       1E-10

   => Auxiliary Basis Set <=

  Basis Set: (CC-PV(T+D)Z AUX)
    Blend: CC-PVTZ-JKFIT
    Number of shells: 50
    Number of basis function: 158
    Number of Cartesian functions: 192
    Spherical Harmonics?: true
    Max angular momentum: 4

  Cached 100.0% of DFT collocation blocks in 0.177 [GiB].

  Minimum eigenvalue in the overlap matrix is 3.0410579562E-03.
  Using Symmetric Orthogonalization.

  SCF Guess: Superposition of Atomic Densities via on-the-fly atomic UHF.

  ==> Iterations <==

                           Total Energy        Delta E     RMS |[F,P]|

   @DF-RKS iter SAD:  -112.60023832792740   -1.12600e+02   0.00000e+00 
   @DF-RKS iter   1:  -113.29878738587934   -6.98549e-01   9.90401e-03 DIIS
   @DF-RKS iter   2:  -113.28088640075735    1.79010e-02   1.22082e-02 DIIS
   @DF-RKS iter   3:  -113.33189310969244   -5.10067e-02   1.43939e-03 DIIS
   @DF-RKS iter   4:  -113.33280631778310   -9.13208e-04   1.86736e-04 DIIS
   @DF-RKS iter   5:  -113.33282382597257   -1.75082e-05   3.15693e-05 DIIS
   @DF-RKS iter   6:  -113.33282446050443   -6.34532e-07   5.70269e-06 DIIS
   @DF-RKS iter   7:  -113.33282449686254   -3.63581e-08   6.40528e-07 DIIS
   @DF-RKS iter   8:  -113.33282449740803   -5.45484e-10   1.58611e-07 DIIS
   @DF-RKS iter   9:  -113.33282449742023   -1.22071e-11   1.14479e-08 DIIS
   @DF-RKS iter  10:  -113.33282449742048   -2.41585e-13   1.36811e-09 DIIS
  Energy and wave function converged.


  ==> Post-Iterations <==

    Orbital Energies [Eh]
    ---------------------

    Doubly Occupied:                                                      

       1A1   -19.438949     2A1   -10.461289     3A1    -1.290575  
       4A1    -0.691305     1B1    -0.581501     1B2    -0.581501  
       5A1    -0.485052  

    Virtual:                                                              

       2B2     0.068125     2B1     0.068125     6A1     0.233047  
       3B1     0.372182     3B2     0.372182     7A1     0.387953  
       8A1     0.635643     9A1     0.695382     4B2     0.712368  
       4B1     0.712368    10A1     0.727331     1A2     0.727332  
       5B1     0.950188     5B2     0.950188    11A1     1.200505  
      12A1     1.405523     2A2     1.605532    13A1     1.605532  
       6B1     1.978667     6B2     1.978667    14A1     2.019113  
       7B2     2.092094     7B1     2.092094    15A1     2.536939  
       8B2     2.718902     8B1     2.718902     3A2     2.900071  
      16A1     2.900072    17A1     3.012687     4A2     3.012692  
       9B1     3.044535     9B2     3.044535    18A1     3.184296  
      10B1     3.329282    10B2     3.329282    19A1     3.453967  
      11B1     4.174063    11B2     4.174063    20A1     4.530169  
      12B1     5.188666    12B2     5.188666    21A1     5.579818  
       5A2     5.579824    22A1     6.216843    13B1     6.329073  
      13B2     6.329073     6A2     6.343275    23A1     6.343287  
      14B1     6.836788    14B2     6.836788    24A1     6.860374  
      25A1     7.094758    26A1    12.319086  

    Final Occupation by Irrep:
             A1    A2    B1    B2 
    DOCC [     5,    0,    1,    1 ]

  @DF-RKS Final Energy:  -113.33282449742048

   => Energetics <=

    Nuclear Repulsion Energy =             22.4304759515857484
    One-Electron Energy =                -198.1622110931485850
    Two-Electron Energy =                  72.3847593688788606
    DFT Exchange-Correlation Energy =     -10.0449696010974900
    Empirical Dispersion Energy =           0.0000000000000000
    VV10 Nonlocal Energy =                  0.0591208763609924
    Total Energy =                       -113.3328244974204750

Computation Completed


Properties will be evaluated at   0.000000,   0.000000,   0.000000 [a0]

Properties computed using the SCF density matrix

  Nuclear Dipole Moment: [e a0]
     X:     0.0000      Y:     0.0000      Z:     0.0023

  Electronic Dipole Moment: [e a0]
     X:     0.0000      Y:     0.0000      Z:     0.0289

  Dipole Moment: [e a0]
     X:     0.0000      Y:     0.0000      Z:     0.0312     Total:     0.0312

  Dipole Moment: [D]
     X:     0.0000      Y:     0.0000      Z:     0.0793     Total:     0.0793


*** tstop() called on bp1-compute00107.data.bp.acrc.priv at Tue Apr 27 17:43:34 2021
Module time:
	user time   =      54.76 seconds =       0.91 minutes
	system time =       2.47 seconds =       0.04 minutes
	total time  =          3 seconds =       0.05 minutes
Total time:
	user time   =     107.13 seconds =       1.79 minutes
	system time =       5.03 seconds =       0.08 minutes
	total time  =          5 seconds =       0.08 minutes

  //>>>>>>>>>>>>>>>>>>>>>>>>>>>>>>>>>>>//
  //    Loading displacement 3 of 3    //
  //<<<<<<<<<<<<<<<<<<<<<<<<<<<<<<<<<<<//

*** tstart() called on bp1-compute00107.data.bp.acrc.priv
*** at Tue Apr 27 17:43:34 2021

   => Loading Basis Set <=

    Name: CC-PV(T+D)Z
    Role: ORBITAL
    Keyword: BASIS
    atoms 1 entry C          line   195 file /work/zw18965/.conda/envs/p4env/share/psi4/basis/cc-pv_tpd_z.gbs 
    atoms 2 entry O          line   271 file /work/zw18965/.conda/envs/p4env/share/psi4/basis/cc-pv_tpd_z.gbs 


         ---------------------------------------------------------
                                   SCF
               by Justin Turney, Rob Parrish, Andy Simmonett
                          and Daniel G. A. Smith
                              RKS Reference
                       24 Threads, 137329 MiB Core
         ---------------------------------------------------------

  ==> Geometry <==

    Molecular point group: c2v
    Full point group: C_inf_v

    Geometry (in Angstrom), charge = 0, multiplicity = 1:

       Center              X                  Y                   Z               Mass       
    ------------   -----------------  -----------------  -----------------  -----------------
         C            0.000000000000     0.000000000000    -0.645848864080    12.000000000000
         O            0.000000000000     0.000000000000     0.484540652657    15.994914619570

  Running in c2v symmetry.

  Rotational constants: A = ************  B =      1.92423  C =      1.92423 [cm^-1]
  Rotational constants: A = ************  B =  57686.86423  C =  57686.86423 [MHz]
  Nuclear repulsion =   22.470578270654173

  Charge       = 0
  Multiplicity = 1
  Electrons    = 14
  Nalpha       = 7
  Nbeta        = 7

  ==> Algorithm <==

  SCF Algorithm Type is DF.
  DIIS enabled.
  MOM disabled.
  Fractional occupation disabled.
  Guess Type is SAD.
  Energy threshold   = 1.00e-08
  Density threshold  = 1.00e-08
  Integral threshold = 0.00e+00

  ==> Primary Basis <==

  Basis Set: CC-PV(T+D)Z
    Blend: CC-PV(T+D)Z
    Number of shells: 20
    Number of basis function: 60
    Number of Cartesian functions: 70
    Spherical Harmonics?: true
    Max angular momentum: 3

  ==> DFT Potential <==

   => Composite Functional: WB97M-V <= 

    wB97M-V Hyb-GGA Exchange-Correlation Functional

    N. Mardirossian and M. Head-Gordon, J. Chem. Phys. 144, 214110 (2016)

    Deriv               =              1
    GGA                 =           TRUE
    Meta                =           TRUE

    Exchange Hybrid     =           TRUE
    MP2 Hybrid          =          FALSE

   => Exchange-Correlation Functionals <=

    1.0000   wB97M-V exchange-correlation functional

   => Exact (HF) Exchange <=

    0.8500            HF,LR [omega = 0.3000]
    0.1500               HF 

   => VV10 Non-Local Parameters <=

    VV10 B              =     6.0000E+00
    VV10 C              =     1.0000E-02

   => Molecular Quadrature <=

    Radial Scheme          =       TREUTLER
    Pruning Scheme         =           FLAT
    Nuclear Scheme         =       TREUTLER

    BS radius alpha        =              1
    Pruning alpha          =              1
    Radial Points          =             75
    Spherical Points       =            302
    Total Points           =          43360
    Total Blocks           =            390
    Max Points             =            256
    Max Functions          =             60

   => Loading Basis Set <=

    Name: (CC-PV(T+D)Z AUX)
    Role: JKFIT
    Keyword: DF_BASIS_SCF
    atoms 1 entry C          line   125 file /work/zw18965/.conda/envs/p4env/share/psi4/basis/cc-pvtz-jkfit.gbs 
    atoms 2 entry O          line   229 file /work/zw18965/.conda/envs/p4env/share/psi4/basis/cc-pvtz-jkfit.gbs 

  ==> Pre-Iterations <==

   -------------------------------------------------------
    Irrep   Nso     Nmo     Nalpha   Nbeta   Ndocc  Nsocc
   -------------------------------------------------------
     A1        26      26       0       0       0       0
     A2         6       6       0       0       0       0
     B1        14      14       0       0       0       0
     B2        14      14       0       0       0       0
   -------------------------------------------------------
    Total      60      60       7       7       7       0
   -------------------------------------------------------

  ==> Integral Setup <==

  ==> DiskDFJK: Density-Fitted J/K Matrices <==

    J tasked:                  Yes
    K tasked:                  Yes
    wK tasked:                 Yes
    Omega:               3.000E-01
    OpenMP threads:             24
    Integrals threads:          24
    Memory [MiB]:           102815
    Algorithm:                Core
    Integral Cache:           NONE
    Schwarz Cutoff:          1E-12
    Fitting Condition:       1E-10

   => Auxiliary Basis Set <=

  Basis Set: (CC-PV(T+D)Z AUX)
    Blend: CC-PVTZ-JKFIT
    Number of shells: 50
    Number of basis function: 158
    Number of Cartesian functions: 192
    Spherical Harmonics?: true
    Max angular momentum: 4

  Cached 100.0% of DFT collocation blocks in 0.177 [GiB].

  Minimum eigenvalue in the overlap matrix is 3.0278330879E-03.
  Using Symmetric Orthogonalization.

  SCF Guess: Superposition of Atomic Densities via on-the-fly atomic UHF.

  ==> Iterations <==

                           Total Energy        Delta E     RMS |[F,P]|

   @DF-RKS iter SAD:  -112.60374603614154   -1.12604e+02   0.00000e+00 
   @DF-RKS iter   1:  -113.29888824690443   -6.95142e-01   9.90426e-03 DIIS
   @DF-RKS iter   2:  -113.28164629382330    1.72420e-02   1.21338e-02 DIIS
   @DF-RKS iter   3:  -113.33193594704971   -5.02897e-02   1.44991e-03 DIIS
   @DF-RKS iter   4:  -113.33286023123613   -9.24284e-04   1.86612e-04 DIIS
   @DF-RKS iter   5:  -113.33287772760049   -1.74964e-05   3.15256e-05 DIIS
   @DF-RKS iter   6:  -113.33287836108676   -6.33486e-07   5.67878e-06 DIIS
   @DF-RKS iter   7:  -113.33287839726323   -3.61765e-08   6.36066e-07 DIIS
   @DF-RKS iter   8:  -113.33287839780182   -5.38591e-10   1.56691e-07 DIIS
   @DF-RKS iter   9:  -113.33287839781360   -1.17808e-11   1.13752e-08 DIIS
   @DF-RKS iter  10:  -113.33287839781379   -1.84741e-13   1.35177e-09 DIIS
  Energy and wave function converged.


  ==> Post-Iterations <==

    Orbital Energies [Eh]
    ---------------------

    Doubly Occupied:                                                      

       1A1   -19.438860     2A1   -10.460540     3A1    -1.291726  
       4A1    -0.691336     1B1    -0.582229     1B2    -0.582229  
       5A1    -0.484877  

    Virtual:                                                              

       2B2     0.068863     2B1     0.068863     6A1     0.233099  
       3B1     0.372215     3B2     0.372215     7A1     0.387966  
       8A1     0.635632     9A1     0.697744     4B2     0.712237  
       4B1     0.712237    10A1     0.727356     1A2     0.727356  
       5B1     0.950998     5B2     0.950998    11A1     1.200929  
      12A1     1.407915     2A2     1.605923    13A1     1.605923  
       6B2     1.980203     6B1     1.980203    14A1     2.018434  
       7B1     2.091436     7B2     2.091436    15A1     2.539711  
       8B1     2.719015     8B2     2.719015     3A2     2.901276  
      16A1     2.901276    17A1     3.013011     4A2     3.013016  
       9B1     3.044937     9B2     3.044937    18A1     3.183718  
      10B2     3.331013    10B1     3.331013    19A1     3.456789  
      11B1     4.176216    11B2     4.176216    20A1     4.536835  
      12B2     5.188787    12B1     5.188787    21A1     5.582569  
       5A2     5.582576    22A1     6.219944    13B1     6.334811  
      13B2     6.334811     6A2     6.343585    23A1     6.343597  
      14B1     6.836793    14B2     6.836793    24A1     6.864666  
      25A1     7.100464    26A1    12.349395  

    Final Occupation by Irrep:
             A1    A2    B1    B2 
    DOCC [     5,    0,    1,    1 ]

  @DF-RKS Final Energy:  -113.33287839781379

   => Energetics <=

    Nuclear Repulsion Energy =             22.4705782706541726
    One-Electron Energy =                -198.2382785712673012
    Two-Electron Energy =                  72.4223810449225169
    DFT Exchange-Correlation Energy =     -10.0466801909081020
    Empirical Dispersion Energy =           0.0000000000000000
    VV10 Nonlocal Energy =                  0.0591210487849134
    Total Energy =                       -113.3328783978137864

Computation Completed


Properties will be evaluated at   0.000000,   0.000000,   0.000000 [a0]

Properties computed using the SCF density matrix

  Nuclear Dipole Moment: [e a0]
     X:     0.0000      Y:     0.0000      Z:     0.0023

  Electronic Dipole Moment: [e a0]
     X:     0.0000      Y:     0.0000      Z:     0.0318

  Dipole Moment: [e a0]
     X:     0.0000      Y:     0.0000      Z:     0.0341     Total:     0.0341

  Dipole Moment: [D]
     X:     0.0000      Y:     0.0000      Z:     0.0868     Total:     0.0868


*** tstop() called on bp1-compute00107.data.bp.acrc.priv at Tue Apr 27 17:43:36 2021
Module time:
	user time   =      51.73 seconds =       0.86 minutes
	system time =       1.94 seconds =       0.03 minutes
	total time  =          2 seconds =       0.03 minutes
Total time:
	user time   =     159.00 seconds =       2.65 minutes
	system time =       6.98 seconds =       0.12 minutes
	total time  =          7 seconds =       0.12 minutes

         ----------------------------------------------------------
                                   FINDIF
                     R. A. King and Jonathon Misiewicz
         ---------------------------------------------------------

  Computing gradient from energies.
    Using 3-point formula.
    Energy without displacement: -113.3328537238
    Check energies below for precision!
    Forces are for mass-weighted, symmetry-adapted cartesians (in au).

     Coord      Energy(-1)        Energy(+1)            Force
        0   -113.3328244974   -113.3328783978     -0.0053900393


-------------------------------------------------------------
  ## New Matrix (Symmetry 0) ##
  Irrep: 1 Size: 2 x 3

                 1                   2                   3

    1     0.00000000000000     0.00000000000000    -0.01411347462335
    2     0.00000000000000     0.00000000000000     0.01411347462335




			-----------------------------------------
			 OPTKING 2.0: for geometry optimizations 
			  - R.A. King,  Bethel University        
			-----------------------------------------
	At level 1: Red. Int., RFO, no backsteps, dynamic trust

	Internal coordinates to be generated automatically.
	Detected frag 1 with atoms:  1 2
	---Fragment 1 Bond Connectivity---
	 1 : 2
	 2 : 1

	---Fragment 1 Geometry and Gradient---
	 C           0.0000000000        0.0000000000       -1.2215684867
	 O           0.0000000000        0.0000000000        0.9164676517
	             0.0000000000        0.0000000000       -0.0141134746
	             0.0000000000        0.0000000000        0.0141134746

	Previous optimization step data not found.  Starting new optimization.

	---Fragment 1 Intrafragment Coordinates---
	 - Coordinate -           - BOHR/RAD -       - ANG/DEG -
	 R(1,2)           =         2.138036	       1.131400

	Current energy   :      -113.3328537238

	Generating empirical Hessian (Schlegel '84) for each fragment.
	Taking RFO optimization step.
	Going to follow RFO solution 1.
	Using RFO vector 1.
	Norm of target step-size    0.00950
	Projected energy change by RFO approximation:        -0.0000889603

	Back-transformation to cartesian coordinates...
	Successfully converged to displaced geometry.

	--- Internal Coordinate Step in ANG or DEG, aJ/ANG or AJ/DEG ---
	 ---------------------------------------------------------------------------
	   Coordinate                Previous        Force       Change         New 
	   ----------                --------       ------       ------       ------
	    1 R(1,2)          =      1.131400    -0.116277    -0.005029     1.126371
	 ---------------------------------------------------------------------------
	Successfully symmetrized geometry.

  ==> Convergence Check <==

  Measures of convergence in internal coordinates in au.
  Criteria marked as inactive (o), active & met (*), and active & unmet ( ).
  --------------------------------------------------------------------------------------------- ~
   Step     Total Energy     Delta E     MAX Force     RMS Force      MAX Disp      RMS Disp    ~
  --------------------------------------------------------------------------------------------- ~
    Convergence Criteria    1.00e-06 *    3.00e-04 *             o    1.20e-03 *             o  ~
  --------------------------------------------------------------------------------------------- ~
      1    -113.33285372   -1.13e+02      1.41e-02      1.41e-02 o    9.50e-03      9.50e-03 o  ~
  ---------------------------------------------------------------------------------------------

	Writing optimization data to binary file.
	Structure for next step:
	Cartesian Geometry (in Angstrom)
	    C     0.0000000000   0.0000000000  -0.6439117311
	    O     0.0000000000   0.0000000000   0.4824593229
			--------------------------
			 OPTKING Finished Execution 
			--------------------------

    Structure for next step:
    Molecular point group: c2v
    Full point group: C_inf_v

    Geometry (in Angstrom), charge = 0, multiplicity = 1:

    C            0.000000000000     0.000000000000    -0.643552915038
    O            0.000000000000     0.000000000000     0.482818143400

gradient() will perform gradient computation by finite difference of analytic energies.

         ----------------------------------------------------------
                                   FINDIF
                     R. A. King and Jonathon Misiewicz
         ---------------------------------------------------------

  Using finite-differences of energies to determine gradients.
    Generating geometries for use with 3-point formula.
    Displacement size will be 5.00e-03.
    Number of atoms is 2.
    Number of symmetric SALCs is 1.
    Translations projected? 1. Rotations projected? 1.
    Number of geometries (including reference) is 3.

  //>>>>>>>>>>>>>>>>>>>>>>>>>>>>>>>>>>>//
  //    Loading displacement 1 of 3    //
  //<<<<<<<<<<<<<<<<<<<<<<<<<<<<<<<<<<<//

*** tstart() called on bp1-compute00107.data.bp.acrc.priv
*** at Tue Apr 27 17:43:36 2021

   => Loading Basis Set <=

    Name: CC-PV(T+D)Z
    Role: ORBITAL
    Keyword: BASIS
    atoms 1 entry C          line   195 file /work/zw18965/.conda/envs/p4env/share/psi4/basis/cc-pv_tpd_z.gbs 
    atoms 2 entry O          line   271 file /work/zw18965/.conda/envs/p4env/share/psi4/basis/cc-pv_tpd_z.gbs 


         ---------------------------------------------------------
                                   SCF
               by Justin Turney, Rob Parrish, Andy Simmonett
                          and Daniel G. A. Smith
                              RKS Reference
                       24 Threads, 137329 MiB Core
         ---------------------------------------------------------

  ==> Geometry <==

    Molecular point group: c2v
    Full point group: C_inf_v

    Geometry (in Angstrom), charge = 0, multiplicity = 1:

       Center              X                  Y                   Z               Mass       
    ------------   -----------------  -----------------  -----------------  -----------------
         C            0.000000000000     0.000000000000    -0.643552915038    12.000000000000
         O            0.000000000000     0.000000000000     0.482818143400    15.994914619570

  Running in c2v symmetry.

  Rotational constants: A = ************  B =      1.93798  C =      1.93798 [cm^-1]
  Rotational constants: A = ************  B =  58099.20751  C =  58099.20751 [MHz]
  Nuclear repulsion =   22.550744643064970

  Charge       = 0
  Multiplicity = 1
  Electrons    = 14
  Nalpha       = 7
  Nbeta        = 7

  ==> Algorithm <==

  SCF Algorithm Type is DF.
  DIIS enabled.
  MOM disabled.
  Fractional occupation disabled.
  Guess Type is READ.
  Energy threshold   = 1.00e-08
  Density threshold  = 1.00e-08
  Integral threshold = 0.00e+00

  ==> Primary Basis <==

  Basis Set: CC-PV(T+D)Z
    Blend: CC-PV(T+D)Z
    Number of shells: 20
    Number of basis function: 60
    Number of Cartesian functions: 70
    Spherical Harmonics?: true
    Max angular momentum: 3

  ==> DFT Potential <==

   => Composite Functional: WB97M-V <= 

    wB97M-V Hyb-GGA Exchange-Correlation Functional

    N. Mardirossian and M. Head-Gordon, J. Chem. Phys. 144, 214110 (2016)

    Deriv               =              1
    GGA                 =           TRUE
    Meta                =           TRUE

    Exchange Hybrid     =           TRUE
    MP2 Hybrid          =          FALSE

   => Exchange-Correlation Functionals <=

    1.0000   wB97M-V exchange-correlation functional

   => Exact (HF) Exchange <=

    0.8500            HF,LR [omega = 0.3000]
    0.1500               HF 

   => VV10 Non-Local Parameters <=

    VV10 B              =     6.0000E+00
    VV10 C              =     1.0000E-02

   => Molecular Quadrature <=

    Radial Scheme          =       TREUTLER
    Pruning Scheme         =           FLAT
    Nuclear Scheme         =       TREUTLER

    BS radius alpha        =              1
    Pruning alpha          =              1
    Radial Points          =             75
    Spherical Points       =            302
    Total Points           =          43360
    Total Blocks           =            390
    Max Points             =            256
    Max Functions          =             60

   => Loading Basis Set <=

    Name: (CC-PV(T+D)Z AUX)
    Role: JKFIT
    Keyword: DF_BASIS_SCF
    atoms 1 entry C          line   125 file /work/zw18965/.conda/envs/p4env/share/psi4/basis/cc-pvtz-jkfit.gbs 
    atoms 2 entry O          line   229 file /work/zw18965/.conda/envs/p4env/share/psi4/basis/cc-pvtz-jkfit.gbs 

   => Loading Basis Set <=

    Name: CC-PV(T+D)Z
    Role: ORBITAL
    Keyword: BASIS
    atoms 1 entry C          line   195 file /work/zw18965/.conda/envs/p4env/share/psi4/basis/cc-pv_tpd_z.gbs 
    atoms 2 entry O          line   271 file /work/zw18965/.conda/envs/p4env/share/psi4/basis/cc-pv_tpd_z.gbs 

  Reading orbitals from file 180, no projection.

  ==> Pre-Iterations <==

   -------------------------------------------------------
    Irrep   Nso     Nmo     Nalpha   Nbeta   Ndocc  Nsocc
   -------------------------------------------------------
     A1        26      26       0       0       0       0
     A2         6       6       0       0       0       0
     B1        14      14       0       0       0       0
     B2        14      14       0       0       0       0
   -------------------------------------------------------
    Total      60      60       7       7       7       0
   -------------------------------------------------------

  ==> Integral Setup <==

  ==> DiskDFJK: Density-Fitted J/K Matrices <==

    J tasked:                  Yes
    K tasked:                  Yes
    wK tasked:                 Yes
    Omega:               3.000E-01
    OpenMP threads:             24
    Integrals threads:          24
    Memory [MiB]:           102815
    Algorithm:                Core
    Integral Cache:           NONE
    Schwarz Cutoff:          1E-12
    Fitting Condition:       1E-10

   => Auxiliary Basis Set <=

  Basis Set: (CC-PV(T+D)Z AUX)
    Blend: CC-PVTZ-JKFIT
    Number of shells: 50
    Number of basis function: 158
    Number of Cartesian functions: 192
    Spherical Harmonics?: true
    Max angular momentum: 4

  Cached 100.0% of DFT collocation blocks in 0.177 [GiB].

  Minimum eigenvalue in the overlap matrix is 3.0019529724E-03.
  Using Symmetric Orthogonalization.

  SCF Guess: Orbitals guess was supplied from a previous computation.

  ==> Iterations <==

                           Total Energy        Delta E     RMS |[F,P]|

   @DF-RKS iter   0:  -113.33765549030966   -1.13338e+02   6.61575e-04 
   @DF-RKS iter   1:  -113.33291793869348    4.73755e-03   1.73889e-04 DIIS
   @DF-RKS iter   2:  -113.33290845299018    9.48570e-06   2.53574e-04 DIIS
   @DF-RKS iter   3:  -113.33293078873618   -2.23357e-05   1.24568e-05 DIIS
   @DF-RKS iter   4:  -113.33293083326110   -4.45249e-08   3.75636e-06 DIIS
   @DF-RKS iter   5:  -113.33293083973155   -6.47044e-09   4.87338e-07 DIIS
   @DF-RKS iter   6:  -113.33293083988657   -1.55026e-10   6.72380e-08 DIIS
   @DF-RKS iter   7:  -113.33293083988936   -2.78533e-12   8.22964e-09 DIIS
  Energy and wave function converged.


  ==> Post-Iterations <==

    Orbital Energies [Eh]
    ---------------------

    Doubly Occupied:                                                      

       1A1   -19.438676     2A1   -10.459046     3A1    -1.294020  
       4A1    -0.691400     1B1    -0.583682     1B2    -0.583682  
       5A1    -0.484525  

    Virtual:                                                              

       2B2     0.070334     2B1     0.070334     6A1     0.233201  
       3B2     0.372282     3B1     0.372282     7A1     0.387993  
       8A1     0.635608     9A1     0.702429     4B2     0.711976  
       4B1     0.711976    10A1     0.727404     1A2     0.727404  
       5B1     0.952614     5B2     0.952614    11A1     1.201790  
      12A1     1.412746     2A2     1.606708    13A1     1.606708  
       6B2     1.983274     6B1     1.983274    14A1     2.017113  
       7B1     2.090083     7B2     2.090083    15A1     2.545214  
       8B1     2.719239     8B2     2.719239     3A2     2.903673  
      16A1     2.903674    17A1     3.013661     4A2     3.013665  
       9B1     3.045727     9B2     3.045727    18A1     3.182579  
      10B1     3.334504    10B2     3.334504    19A1     3.462425  
      11B2     4.180496    11B1     4.180496    20A1     4.550166  
      12B1     5.189042    12B2     5.189042    21A1     5.588085  
       5A2     5.588092    22A1     6.225836     6A2     6.344202  
      23A1     6.344214    13B1     6.346256    13B2     6.346256  
      14B1     6.836761    14B2     6.836761    24A1     6.872771  
      25A1     7.112824    26A1    12.409730  

    Final Occupation by Irrep:
             A1    A2    B1    B2 
    DOCC [     5,    0,    1,    1 ]

  @DF-RKS Final Energy:  -113.33293083988936

   => Energetics <=

    Nuclear Repulsion Energy =             22.5507446430649701
    One-Electron Energy =                -198.3902521338804945
    Two-Electron Energy =                  72.4975625748714521
    DFT Exchange-Correlation Energy =     -10.0501073394463223
    Empirical Dispersion Energy =           0.0000000000000000
    VV10 Nonlocal Energy =                  0.0591214155010401
    Total Energy =                       -113.3329308398893573

Computation Completed


Properties will be evaluated at   0.000000,   0.000000,   0.000000 [a0]

Properties computed using the SCF density matrix

  Nuclear Dipole Moment: [e a0]
     X:     0.0000      Y:     0.0000      Z:     0.0023

  Electronic Dipole Moment: [e a0]
     X:     0.0000      Y:     0.0000      Z:     0.0376

  Dipole Moment: [e a0]
     X:     0.0000      Y:     0.0000      Z:     0.0399     Total:     0.0399

  Dipole Moment: [D]
     X:     0.0000      Y:     0.0000      Z:     0.1015     Total:     0.1015


*** tstop() called on bp1-compute00107.data.bp.acrc.priv at Tue Apr 27 17:43:38 2021
Module time:
	user time   =      36.78 seconds =       0.61 minutes
	system time =       1.35 seconds =       0.02 minutes
	total time  =          2 seconds =       0.03 minutes
Total time:
	user time   =     196.13 seconds =       3.27 minutes
	system time =       8.34 seconds =       0.14 minutes
	total time  =          9 seconds =       0.15 minutes

  //>>>>>>>>>>>>>>>>>>>>>>>>>>>>>>>>>>>//
  //    Loading displacement 2 of 3    //
  //<<<<<<<<<<<<<<<<<<<<<<<<<<<<<<<<<<<//

*** tstart() called on bp1-compute00107.data.bp.acrc.priv
*** at Tue Apr 27 17:43:38 2021

   => Loading Basis Set <=

    Name: CC-PV(T+D)Z
    Role: ORBITAL
    Keyword: BASIS
    atoms 1 entry C          line   195 file /work/zw18965/.conda/envs/p4env/share/psi4/basis/cc-pv_tpd_z.gbs 
    atoms 2 entry O          line   271 file /work/zw18965/.conda/envs/p4env/share/psi4/basis/cc-pv_tpd_z.gbs 


         ---------------------------------------------------------
                                   SCF
               by Justin Turney, Rob Parrish, Andy Simmonett
                          and Daniel G. A. Smith
                              RKS Reference
                       24 Threads, 137329 MiB Core
         ---------------------------------------------------------

  ==> Geometry <==

    Molecular point group: c2v
    Full point group: C_inf_v

    Geometry (in Angstrom), charge = 0, multiplicity = 1:

       Center              X                  Y                   Z               Mass       
    ------------   -----------------  -----------------  -----------------  -----------------
         C            0.000000000000     0.000000000000    -0.644130255378    12.000000000000
         O            0.000000000000     0.000000000000     0.483251286323    15.994914619570

  Running in c2v symmetry.

  Rotational constants: A = ************  B =      1.93451  C =      1.93451 [cm^-1]
  Rotational constants: A = ************  B =  57995.10439  C =  57995.10439 [MHz]
  Nuclear repulsion =   22.530532186861940

  Charge       = 0
  Multiplicity = 1
  Electrons    = 14
  Nalpha       = 7
  Nbeta        = 7

  ==> Algorithm <==

  SCF Algorithm Type is DF.
  DIIS enabled.
  MOM disabled.
  Fractional occupation disabled.
  Guess Type is READ.
  Energy threshold   = 1.00e-08
  Density threshold  = 1.00e-08
  Integral threshold = 0.00e+00

  ==> Primary Basis <==

  Basis Set: CC-PV(T+D)Z
    Blend: CC-PV(T+D)Z
    Number of shells: 20
    Number of basis function: 60
    Number of Cartesian functions: 70
    Spherical Harmonics?: true
    Max angular momentum: 3

  ==> DFT Potential <==

   => Composite Functional: WB97M-V <= 

    wB97M-V Hyb-GGA Exchange-Correlation Functional

    N. Mardirossian and M. Head-Gordon, J. Chem. Phys. 144, 214110 (2016)

    Deriv               =              1
    GGA                 =           TRUE
    Meta                =           TRUE

    Exchange Hybrid     =           TRUE
    MP2 Hybrid          =          FALSE

   => Exchange-Correlation Functionals <=

    1.0000   wB97M-V exchange-correlation functional

   => Exact (HF) Exchange <=

    0.8500            HF,LR [omega = 0.3000]
    0.1500               HF 

   => VV10 Non-Local Parameters <=

    VV10 B              =     6.0000E+00
    VV10 C              =     1.0000E-02

   => Molecular Quadrature <=

    Radial Scheme          =       TREUTLER
    Pruning Scheme         =           FLAT
    Nuclear Scheme         =       TREUTLER

    BS radius alpha        =              1
    Pruning alpha          =              1
    Radial Points          =             75
    Spherical Points       =            302
    Total Points           =          43360
    Total Blocks           =            389
    Max Points             =            256
    Max Functions          =             60

   => Loading Basis Set <=

    Name: (CC-PV(T+D)Z AUX)
    Role: JKFIT
    Keyword: DF_BASIS_SCF
    atoms 1 entry C          line   125 file /work/zw18965/.conda/envs/p4env/share/psi4/basis/cc-pvtz-jkfit.gbs 
    atoms 2 entry O          line   229 file /work/zw18965/.conda/envs/p4env/share/psi4/basis/cc-pvtz-jkfit.gbs 

   => Loading Basis Set <=

    Name: CC-PV(T+D)Z
    Role: ORBITAL
    Keyword: BASIS
    atoms 1 entry C          line   195 file /work/zw18965/.conda/envs/p4env/share/psi4/basis/cc-pv_tpd_z.gbs 
    atoms 2 entry O          line   271 file /work/zw18965/.conda/envs/p4env/share/psi4/basis/cc-pv_tpd_z.gbs 

  Reading orbitals from file 180, no projection.

  ==> Pre-Iterations <==

   -------------------------------------------------------
    Irrep   Nso     Nmo     Nalpha   Nbeta   Ndocc  Nsocc
   -------------------------------------------------------
     A1        26      26       0       0       0       0
     A2         6       6       0       0       0       0
     B1        14      14       0       0       0       0
     B2        14      14       0       0       0       0
   -------------------------------------------------------
    Total      60      60       7       7       7       0
   -------------------------------------------------------

  ==> Integral Setup <==

  ==> DiskDFJK: Density-Fitted J/K Matrices <==

    J tasked:                  Yes
    K tasked:                  Yes
    wK tasked:                 Yes
    Omega:               3.000E-01
    OpenMP threads:             24
    Integrals threads:          24
    Memory [MiB]:           102815
    Algorithm:                Core
    Integral Cache:           NONE
    Schwarz Cutoff:          1E-12
    Fitting Condition:       1E-10

   => Auxiliary Basis Set <=

  Basis Set: (CC-PV(T+D)Z AUX)
    Blend: CC-PVTZ-JKFIT
    Number of shells: 50
    Number of basis function: 158
    Number of Cartesian functions: 192
    Spherical Harmonics?: true
    Max angular momentum: 4

  Cached 100.0% of DFT collocation blocks in 0.177 [GiB].

  Minimum eigenvalue in the overlap matrix is 3.0084089649E-03.
  Using Symmetric Orthogonalization.

  SCF Guess: Orbitals guess was supplied from a previous computation.

  ==> Iterations <==

                           Total Energy        Delta E     RMS |[F,P]|

   @DF-RKS iter   0:  -113.33198720468116   -1.13332e+02   1.33558e-04 
   @DF-RKS iter   1:  -113.33292406223261   -9.36858e-04   3.50806e-05 DIIS
   @DF-RKS iter   2:  -113.33292366972850    3.92504e-07   5.12975e-05 DIIS
   @DF-RKS iter   3:  -113.33292458501207   -9.15284e-07   2.50190e-06 DIIS
   @DF-RKS iter   4:  -113.33292458680812   -1.79605e-09   7.54012e-07 DIIS
   @DF-RKS iter   5:  -113.33292458706906   -2.60940e-10   9.72055e-08 DIIS
   @DF-RKS iter   6:  -113.33292458707535   -6.29541e-12   1.35380e-08 DIIS
   @DF-RKS iter   7:  -113.33292458707533    2.84217e-14   1.66160e-09 DIIS
  Energy and wave function converged.


  ==> Post-Iterations <==

    Orbital Energies [Eh]
    ---------------------

    Doubly Occupied:                                                      

       1A1   -19.438723     2A1   -10.459422     3A1    -1.293443  
       4A1    -0.691384     1B2    -0.583316     1B1    -0.583316  
       5A1    -0.484614  

    Virtual:                                                              

       2B1     0.069964     2B2     0.069964     6A1     0.233175  
       3B2     0.372265     3B1     0.372265     7A1     0.387986  
       8A1     0.635615     9A1     0.701252     4B1     0.712041  
       4B2     0.712041    10A1     0.727392     1A2     0.727392  
       5B1     0.952207     5B2     0.952207    11A1     1.201571  
      12A1     1.411522     2A2     1.606510    13A1     1.606510  
       6B1     1.982500     6B2     1.982500    14A1     2.017442  
       7B2     2.090429     7B1     2.090429    15A1     2.543831  
       8B2     2.719183     8B1     2.719183     3A2     2.903070  
      16A1     2.903071    17A1     3.013496     4A2     3.013501  
       9B1     3.045529     9B2     3.045529    18A1     3.182864  
      10B2     3.333620    10B1     3.333620    19A1     3.461004  
      11B1     4.179420    11B2     4.179420    20A1     4.546805  
      12B1     5.188976    12B2     5.188976    21A1     5.586692  
       5A2     5.586699    22A1     6.224388    13B1     6.343374  
      13B2     6.343374     6A2     6.344046    23A1     6.344059  
      14B1     6.836774    14B2     6.836774    24A1     6.870787  
      25A1     7.109589    26A1    12.394550  

    Final Occupation by Irrep:
             A1    A2    B1    B2 
    DOCC [     5,    0,    1,    1 ]

  @DF-RKS Final Energy:  -113.33292458707533

   => Energetics <=

    Nuclear Repulsion Energy =             22.5305321868619401
    One-Electron Energy =                -198.3519459382503953
    Two-Electron Energy =                  72.4786101234258666
    DFT Exchange-Correlation Energy =     -10.0492422792765055
    Empirical Dispersion Energy =           0.0000000000000000
    VV10 Nonlocal Energy =                  0.0591213201637662
    Total Energy =                       -113.3329245870753255

Computation Completed


Properties will be evaluated at   0.000000,   0.000000,   0.000000 [a0]

Properties computed using the SCF density matrix

  Nuclear Dipole Moment: [e a0]
     X:     0.0000      Y:     0.0000      Z:     0.0023

  Electronic Dipole Moment: [e a0]
     X:     0.0000      Y:     0.0000      Z:     0.0362

  Dipole Moment: [e a0]
     X:     0.0000      Y:     0.0000      Z:     0.0385     Total:     0.0385

  Dipole Moment: [D]
     X:     0.0000      Y:     0.0000      Z:     0.0978     Total:     0.0978


*** tstop() called on bp1-compute00107.data.bp.acrc.priv at Tue Apr 27 17:43:39 2021
Module time:
	user time   =      38.72 seconds =       0.65 minutes
	system time =       1.58 seconds =       0.03 minutes
	total time  =          1 seconds =       0.02 minutes
Total time:
	user time   =     235.00 seconds =       3.92 minutes
	system time =       9.92 seconds =       0.17 minutes
	total time  =         10 seconds =       0.17 minutes

  //>>>>>>>>>>>>>>>>>>>>>>>>>>>>>>>>>>>//
  //    Loading displacement 3 of 3    //
  //<<<<<<<<<<<<<<<<<<<<<<<<<<<<<<<<<<<//

*** tstart() called on bp1-compute00107.data.bp.acrc.priv
*** at Tue Apr 27 17:43:39 2021

   => Loading Basis Set <=

    Name: CC-PV(T+D)Z
    Role: ORBITAL
    Keyword: BASIS
    atoms 1 entry C          line   195 file /work/zw18965/.conda/envs/p4env/share/psi4/basis/cc-pv_tpd_z.gbs 
    atoms 2 entry O          line   271 file /work/zw18965/.conda/envs/p4env/share/psi4/basis/cc-pv_tpd_z.gbs 


         ---------------------------------------------------------
                                   SCF
               by Justin Turney, Rob Parrish, Andy Simmonett
                          and Daniel G. A. Smith
                              RKS Reference
                       24 Threads, 137329 MiB Core
         ---------------------------------------------------------

  ==> Geometry <==

    Molecular point group: c2v
    Full point group: C_inf_v

    Geometry (in Angstrom), charge = 0, multiplicity = 1:

       Center              X                  Y                   Z               Mass       
    ------------   -----------------  -----------------  -----------------  -----------------
         C            0.000000000000     0.000000000000    -0.642975574698    12.000000000000
         O            0.000000000000     0.000000000000     0.482385000476    15.994914619570

  Running in c2v symmetry.

  Rotational constants: A = ************  B =      1.94146  C =      1.94146 [cm^-1]
  Rotational constants: A = ************  B =  58203.59118  C =  58203.59118 [MHz]
  Nuclear repulsion =   22.570993397587223

  Charge       = 0
  Multiplicity = 1
  Electrons    = 14
  Nalpha       = 7
  Nbeta        = 7

  ==> Algorithm <==

  SCF Algorithm Type is DF.
  DIIS enabled.
  MOM disabled.
  Fractional occupation disabled.
  Guess Type is READ.
  Energy threshold   = 1.00e-08
  Density threshold  = 1.00e-08
  Integral threshold = 0.00e+00

  ==> Primary Basis <==

  Basis Set: CC-PV(T+D)Z
    Blend: CC-PV(T+D)Z
    Number of shells: 20
    Number of basis function: 60
    Number of Cartesian functions: 70
    Spherical Harmonics?: true
    Max angular momentum: 3

  ==> DFT Potential <==

   => Composite Functional: WB97M-V <= 

    wB97M-V Hyb-GGA Exchange-Correlation Functional

    N. Mardirossian and M. Head-Gordon, J. Chem. Phys. 144, 214110 (2016)

    Deriv               =              1
    GGA                 =           TRUE
    Meta                =           TRUE

    Exchange Hybrid     =           TRUE
    MP2 Hybrid          =          FALSE

   => Exchange-Correlation Functionals <=

    1.0000   wB97M-V exchange-correlation functional

   => Exact (HF) Exchange <=

    0.8500            HF,LR [omega = 0.3000]
    0.1500               HF 

   => VV10 Non-Local Parameters <=

    VV10 B              =     6.0000E+00
    VV10 C              =     1.0000E-02

   => Molecular Quadrature <=

    Radial Scheme          =       TREUTLER
    Pruning Scheme         =           FLAT
    Nuclear Scheme         =       TREUTLER

    BS radius alpha        =              1
    Pruning alpha          =              1
    Radial Points          =             75
    Spherical Points       =            302
    Total Points           =          43360
    Total Blocks           =            390
    Max Points             =            256
    Max Functions          =             60

   => Loading Basis Set <=

    Name: (CC-PV(T+D)Z AUX)
    Role: JKFIT
    Keyword: DF_BASIS_SCF
    atoms 1 entry C          line   125 file /work/zw18965/.conda/envs/p4env/share/psi4/basis/cc-pvtz-jkfit.gbs 
    atoms 2 entry O          line   229 file /work/zw18965/.conda/envs/p4env/share/psi4/basis/cc-pvtz-jkfit.gbs 

   => Loading Basis Set <=

    Name: CC-PV(T+D)Z
    Role: ORBITAL
    Keyword: BASIS
    atoms 1 entry C          line   195 file /work/zw18965/.conda/envs/p4env/share/psi4/basis/cc-pv_tpd_z.gbs 
    atoms 2 entry O          line   271 file /work/zw18965/.conda/envs/p4env/share/psi4/basis/cc-pv_tpd_z.gbs 

  Reading orbitals from file 180, no projection.

  ==> Pre-Iterations <==

   -------------------------------------------------------
    Irrep   Nso     Nmo     Nalpha   Nbeta   Ndocc  Nsocc
   -------------------------------------------------------
     A1        26      26       0       0       0       0
     A2         6       6       0       0       0       0
     B1        14      14       0       0       0       0
     B2        14      14       0       0       0       0
   -------------------------------------------------------
    Total      60      60       7       7       7       0
   -------------------------------------------------------

  ==> Integral Setup <==

  ==> DiskDFJK: Density-Fitted J/K Matrices <==

    J tasked:                  Yes
    K tasked:                  Yes
    wK tasked:                 Yes
    Omega:               3.000E-01
    OpenMP threads:             24
    Integrals threads:          24
    Memory [MiB]:           102815
    Algorithm:                Core
    Integral Cache:           NONE
    Schwarz Cutoff:          1E-12
    Fitting Condition:       1E-10

   => Auxiliary Basis Set <=

  Basis Set: (CC-PV(T+D)Z AUX)
    Blend: CC-PVTZ-JKFIT
    Number of shells: 50
    Number of basis function: 158
    Number of Cartesian functions: 192
    Spherical Harmonics?: true
    Max angular momentum: 4

  Cached 100.0% of DFT collocation blocks in 0.177 [GiB].

  Minimum eigenvalue in the overlap matrix is 2.9955316230E-03.
  Using Symmetric Orthogonalization.

  SCF Guess: Orbitals guess was supplied from a previous computation.

  ==> Iterations <==

                           Total Energy        Delta E     RMS |[F,P]|

   @DF-RKS iter   0:  -113.33387133496240   -1.13334e+02   1.33881e-04 
   @DF-RKS iter   1:  -113.33293185797531    9.39477e-04   3.49803e-05 DIIS
   @DF-RKS iter   2:  -113.33293147369753    3.84278e-07   5.10110e-05 DIIS
   @DF-RKS iter   3:  -113.33293237775725   -9.04060e-07   2.49240e-06 DIIS
   @DF-RKS iter   4:  -113.33293237953649   -1.77924e-09   7.50587e-07 DIIS
   @DF-RKS iter   5:  -113.33293237979491   -2.58424e-10   9.70801e-08 DIIS
   @DF-RKS iter   6:  -113.33293237980135   -6.43752e-12   1.34561e-08 DIIS
   @DF-RKS iter   7:  -113.33293237980121    1.42109e-13   1.64048e-09 DIIS
  Energy and wave function converged.


  ==> Post-Iterations <==

    Orbital Energies [Eh]
    ---------------------

    Doubly Occupied:                                                      

       1A1   -19.438628     2A1   -10.458669     3A1    -1.294597  
       4A1    -0.691416     1B1    -0.584049     1B2    -0.584049  
       5A1    -0.484436  

    Virtual:                                                              

       2B1     0.070706     2B2     0.070706     6A1     0.233227  
       3B2     0.372299     3B1     0.372299     7A1     0.388000  
       8A1     0.635602     9A1     0.703604     4B2     0.711910  
       4B1     0.711910    10A1     0.727416     1A2     0.727416  
       5B1     0.953022     5B2     0.953022    11A1     1.202011  
      12A1     1.413976     2A2     1.606908    13A1     1.606908  
       6B2     1.984050     6B1     1.984050    14A1     2.016787  
       7B2     2.089734     7B1     2.089734    15A1     2.546596  
       8B1     2.719296     8B2     2.719296     3A2     2.904277  
      16A1     2.904277    17A1     3.013825     4A2     3.013830  
       9B2     3.045924     9B1     3.045924    18A1     3.182295  
      10B1     3.335392    10B2     3.335392    19A1     3.463847  
      11B1     4.181571    11B2     4.181571    20A1     4.553535  
      12B1     5.189109    12B2     5.189109    21A1     5.589481  
       5A2     5.589488    22A1     6.227261     6A2     6.344358  
      23A1     6.344370    13B2     6.349142    13B1     6.349142  
      14B1     6.836744    14B2     6.836744    24A1     6.874719  
      25A1     7.116142    26A1    12.424915  

    Final Occupation by Irrep:
             A1    A2    B1    B2 
    DOCC [     5,    0,    1,    1 ]

  @DF-RKS Final Energy:  -113.33293237980121

   => Energetics <=

    Nuclear Repulsion Energy =             22.5709933975872232
    One-Electron Energy =                -198.4286191837995830
    Two-Electron Energy =                  72.5165464323594193
    DFT Exchange-Correlation Energy =     -10.0509745384922056
    Empirical Dispersion Energy =           0.0000000000000000
    VV10 Nonlocal Energy =                  0.0591215125439654
    Total Energy =                       -113.3329323798011927

Computation Completed


Properties will be evaluated at   0.000000,   0.000000,   0.000000 [a0]

Properties computed using the SCF density matrix

  Nuclear Dipole Moment: [e a0]
     X:     0.0000      Y:     0.0000      Z:     0.0023

  Electronic Dipole Moment: [e a0]
     X:     0.0000      Y:     0.0000      Z:     0.0391

  Dipole Moment: [e a0]
     X:     0.0000      Y:     0.0000      Z:     0.0414     Total:     0.0414

  Dipole Moment: [D]
     X:     0.0000      Y:     0.0000      Z:     0.1052     Total:     0.1052


*** tstop() called on bp1-compute00107.data.bp.acrc.priv at Tue Apr 27 17:43:41 2021
Module time:
	user time   =      37.16 seconds =       0.62 minutes
	system time =       1.39 seconds =       0.02 minutes
	total time  =          2 seconds =       0.03 minutes
Total time:
	user time   =     272.30 seconds =       4.54 minutes
	system time =      11.31 seconds =       0.19 minutes
	total time  =         12 seconds =       0.20 minutes

         ----------------------------------------------------------
                                   FINDIF
                     R. A. King and Jonathon Misiewicz
         ---------------------------------------------------------

  Computing gradient from energies.
    Using 3-point formula.
    Energy without displacement: -113.3329308399
    Check energies below for precision!
    Forces are for mass-weighted, symmetry-adapted cartesians (in au).

     Coord      Energy(-1)        Energy(+1)            Force
        0   -113.3329245871   -113.3329323798     -0.0007792726


-------------------------------------------------------------
  ## New Matrix (Symmetry 0) ##
  Irrep: 1 Size: 2 x 3

                 1                   2                   3

    1     0.00000000000000     0.00000000000000    -0.00204047562955
    2     0.00000000000000     0.00000000000000     0.00204047562955




			-----------------------------------------
			 OPTKING 2.0: for geometry optimizations 
			  - R.A. King,  Bethel University        
			-----------------------------------------
	At level 1: Red. Int., RFO, no backsteps, dynamic trust

	Previous internal coordinate definitions found.
	---Fragment 1 Geometry and Gradient---
	 C           0.0000000000        0.0000000000       -1.2161387567
	 O           0.0000000000        0.0000000000        0.9123940594
	             0.0000000000        0.0000000000       -0.0020404756
	             0.0000000000        0.0000000000        0.0020404756

	---Fragment 1 Intrafragment Coordinates---
	 - Coordinate -           - BOHR/RAD -       - ANG/DEG -
	 R(1,2)           =         2.128533	       1.126371

	Current energy   :      -113.3329308399

	Energy change for the previous step:
		Projected    :        -0.0000889603
		Actual       :        -0.0000771161
	Energy ratio indicates good step: Trust radius increased to 1.000e+00.


	Performing BFGS update.
	Previous computed or guess Hessian on step 1.
	Steps to be used in Hessian update: 1
	Taking RFO optimization step.
	Going to follow RFO solution 1.
	Using RFO vector 1.
	Norm of target step-size    0.00161
	Projected energy change by RFO approximation:        -0.0000019875

	Back-transformation to cartesian coordinates...
	Successfully converged to displaced geometry.

	--- Internal Coordinate Step in ANG or DEG, aJ/ANG or AJ/DEG ---
	 ---------------------------------------------------------------------------
	   Coordinate                Previous        Force       Change         New 
	   ----------                --------       ------       ------       ------
	    1 R(1,2)          =      1.126371    -0.016811    -0.000850     1.125521
	 ---------------------------------------------------------------------------
	Successfully symmetrized geometry.

  ==> Convergence Check <==

  Measures of convergence in internal coordinates in au.
  Criteria marked as inactive (o), active & met (*), and active & unmet ( ).
  ---------------------------------------------------------------------------------------------
   Step     Total Energy     Delta E     MAX Force     RMS Force      MAX Disp      RMS Disp   
  ---------------------------------------------------------------------------------------------
    Convergence Criteria    1.00e-06 *    3.00e-04 *             o    1.20e-03 *             o
  ---------------------------------------------------------------------------------------------
      2    -113.33293084   -7.71e-05      2.04e-03      2.04e-03 o    1.61e-03      1.61e-03 o  ~
  ---------------------------------------------------------------------------------------------

	Writing optimization data to binary file.
	Structure for next step:
	Cartesian Geometry (in Angstrom)
	    C     0.0000000000   0.0000000000  -0.6431279391
	    O     0.0000000000   0.0000000000   0.4823931681
			--------------------------
			 OPTKING Finished Execution 
			--------------------------

    Structure for next step:
    Molecular point group: c2v
    Full point group: C_inf_v

    Geometry (in Angstrom), charge = 0, multiplicity = 1:

    C            0.000000000000     0.000000000000    -0.643067297352
    O            0.000000000000     0.000000000000     0.482453814338

gradient() will perform gradient computation by finite difference of analytic energies.

         ----------------------------------------------------------
                                   FINDIF
                     R. A. King and Jonathon Misiewicz
         ---------------------------------------------------------

  Using finite-differences of energies to determine gradients.
    Generating geometries for use with 3-point formula.
    Displacement size will be 5.00e-03.
    Number of atoms is 2.
    Number of symmetric SALCs is 1.
    Translations projected? 1. Rotations projected? 1.
    Number of geometries (including reference) is 3.

  //>>>>>>>>>>>>>>>>>>>>>>>>>>>>>>>>>>>//
  //    Loading displacement 1 of 3    //
  //<<<<<<<<<<<<<<<<<<<<<<<<<<<<<<<<<<<//

*** tstart() called on bp1-compute00107.data.bp.acrc.priv
*** at Tue Apr 27 17:43:41 2021

   => Loading Basis Set <=

    Name: CC-PV(T+D)Z
    Role: ORBITAL
    Keyword: BASIS
    atoms 1 entry C          line   195 file /work/zw18965/.conda/envs/p4env/share/psi4/basis/cc-pv_tpd_z.gbs 
    atoms 2 entry O          line   271 file /work/zw18965/.conda/envs/p4env/share/psi4/basis/cc-pv_tpd_z.gbs 


         ---------------------------------------------------------
                                   SCF
               by Justin Turney, Rob Parrish, Andy Simmonett
                          and Daniel G. A. Smith
                              RKS Reference
                       24 Threads, 137329 MiB Core
         ---------------------------------------------------------

  ==> Geometry <==

    Molecular point group: c2v
    Full point group: C_inf_v

    Geometry (in Angstrom), charge = 0, multiplicity = 1:

       Center              X                  Y                   Z               Mass       
    ------------   -----------------  -----------------  -----------------  -----------------
         C            0.000000000000     0.000000000000    -0.643067297352    12.000000000000
         O            0.000000000000     0.000000000000     0.482453814338    15.994914619570

  Running in c2v symmetry.

  Rotational constants: A = ************  B =      1.94091  C =      1.94091 [cm^-1]
  Rotational constants: A = ************  B =  58186.98885  C =  58186.98885 [MHz]
  Nuclear repulsion =   22.567774027824399

  Charge       = 0
  Multiplicity = 1
  Electrons    = 14
  Nalpha       = 7
  Nbeta        = 7

  ==> Algorithm <==

  SCF Algorithm Type is DF.
  DIIS enabled.
  MOM disabled.
  Fractional occupation disabled.
  Guess Type is READ.
  Energy threshold   = 1.00e-08
  Density threshold  = 1.00e-08
  Integral threshold = 0.00e+00

  ==> Primary Basis <==

  Basis Set: CC-PV(T+D)Z
    Blend: CC-PV(T+D)Z
    Number of shells: 20
    Number of basis function: 60
    Number of Cartesian functions: 70
    Spherical Harmonics?: true
    Max angular momentum: 3

  ==> DFT Potential <==

   => Composite Functional: WB97M-V <= 

    wB97M-V Hyb-GGA Exchange-Correlation Functional

    N. Mardirossian and M. Head-Gordon, J. Chem. Phys. 144, 214110 (2016)

    Deriv               =              1
    GGA                 =           TRUE
    Meta                =           TRUE

    Exchange Hybrid     =           TRUE
    MP2 Hybrid          =          FALSE

   => Exchange-Correlation Functionals <=

    1.0000   wB97M-V exchange-correlation functional

   => Exact (HF) Exchange <=

    0.8500            HF,LR [omega = 0.3000]
    0.1500               HF 

   => VV10 Non-Local Parameters <=

    VV10 B              =     6.0000E+00
    VV10 C              =     1.0000E-02

   => Molecular Quadrature <=

    Radial Scheme          =       TREUTLER
    Pruning Scheme         =           FLAT
    Nuclear Scheme         =       TREUTLER

    BS radius alpha        =              1
    Pruning alpha          =              1
    Radial Points          =             75
    Spherical Points       =            302
    Total Points           =          43360
    Total Blocks           =            390
    Max Points             =            256
    Max Functions          =             60

   => Loading Basis Set <=

    Name: (CC-PV(T+D)Z AUX)
    Role: JKFIT
    Keyword: DF_BASIS_SCF
    atoms 1 entry C          line   125 file /work/zw18965/.conda/envs/p4env/share/psi4/basis/cc-pvtz-jkfit.gbs 
    atoms 2 entry O          line   229 file /work/zw18965/.conda/envs/p4env/share/psi4/basis/cc-pvtz-jkfit.gbs 

   => Loading Basis Set <=

    Name: CC-PV(T+D)Z
    Role: ORBITAL
    Keyword: BASIS
    atoms 1 entry C          line   195 file /work/zw18965/.conda/envs/p4env/share/psi4/basis/cc-pv_tpd_z.gbs 
    atoms 2 entry O          line   271 file /work/zw18965/.conda/envs/p4env/share/psi4/basis/cc-pv_tpd_z.gbs 

  Reading orbitals from file 180, no projection.

  ==> Pre-Iterations <==

   -------------------------------------------------------
    Irrep   Nso     Nmo     Nalpha   Nbeta   Ndocc  Nsocc
   -------------------------------------------------------
     A1        26      26       0       0       0       0
     A2         6       6       0       0       0       0
     B1        14      14       0       0       0       0
     B2        14      14       0       0       0       0
   -------------------------------------------------------
    Total      60      60       7       7       7       0
   -------------------------------------------------------

  ==> Integral Setup <==

  ==> DiskDFJK: Density-Fitted J/K Matrices <==

    J tasked:                  Yes
    K tasked:                  Yes
    wK tasked:                 Yes
    Omega:               3.000E-01
    OpenMP threads:             24
    Integrals threads:          24
    Memory [MiB]:           102815
    Algorithm:                Core
    Integral Cache:           NONE
    Schwarz Cutoff:          1E-12
    Fitting Condition:       1E-10

   => Auxiliary Basis Set <=

  Basis Set: (CC-PV(T+D)Z AUX)
    Blend: CC-PVTZ-JKFIT
    Number of shells: 50
    Number of basis function: 158
    Number of Cartesian functions: 192
    Spherical Harmonics?: true
    Max angular momentum: 4

  Cached 100.0% of DFT collocation blocks in 0.177 [GiB].

  Minimum eigenvalue in the overlap matrix is 2.9965494792E-03.
  Using Symmetric Orthogonalization.

  SCF Guess: Orbitals guess was supplied from a previous computation.

  ==> Iterations <==

                           Total Energy        Delta E     RMS |[F,P]|

   @DF-RKS iter   0:  -113.33372212813015   -1.13334e+02   1.12590e-04 
   @DF-RKS iter   1:  -113.33293208207299    7.90046e-04   2.94292e-05 DIIS
   @DF-RKS iter   2:  -113.33293180974987    2.72323e-07   4.29252e-05 DIIS
   @DF-RKS iter   3:  -113.33293244997577   -6.40226e-07   2.09706e-06 DIIS
   @DF-RKS iter   4:  -113.33293245123561   -1.25983e-09   6.31563e-07 DIIS
   @DF-RKS iter   5:  -113.33293245141847   -1.82865e-10   8.16682e-08 DIIS
   @DF-RKS iter   6:  -113.33293245142289   -4.41958e-12   1.13243e-08 DIIS
   @DF-RKS iter   7:  -113.33293245142289    0.00000e+00   1.38136e-09 DIIS
  Energy and wave function converged.


  ==> Post-Iterations <==

    Orbital Energies [Eh]
    ---------------------

    Doubly Occupied:                                                      

       1A1   -19.438636     2A1   -10.458729     3A1    -1.294506  
       4A1    -0.691414     1B2    -0.583990     1B1    -0.583990  
       5A1    -0.484450  

    Virtual:                                                              

       2B1     0.070647     2B2     0.070647     6A1     0.233223  
       3B1     0.372296     3B2     0.372296     7A1     0.387999  
       8A1     0.635603     9A1     0.703418     4B2     0.711920  
       4B1     0.711920    10A1     0.727414     1A2     0.727414  
       5B1     0.952957     5B2     0.952957    11A1     1.201976  
      12A1     1.413780     2A2     1.606876    13A1     1.606876  
       6B1     1.983926     6B2     1.983926    14A1     2.016839  
       7B1     2.089789     7B2     2.089789    15A1     2.546376  
       8B1     2.719287     8B2     2.719287     3A2     2.904181  
      16A1     2.904181    17A1     3.013799     4A2     3.013804  
       9B1     3.045892     9B2     3.045892    18A1     3.182340  
      10B1     3.335251    10B2     3.335251    19A1     3.463621  
      11B2     4.181400    11B1     4.181400    20A1     4.552999  
      12B1     5.189098    12B2     5.189098    21A1     5.589259  
       5A2     5.589266    22A1     6.227036     6A2     6.344333  
      23A1     6.344345    13B2     6.348683    13B1     6.348683  
      14B1     6.836747    14B2     6.836747    24A1     6.874412  
      25A1     7.115610    26A1    12.422502  

    Final Occupation by Irrep:
             A1    A2    B1    B2 
    DOCC [     5,    0,    1,    1 ]

  @DF-RKS Final Energy:  -113.33293245142289

   => Energetics <=

    Nuclear Repulsion Energy =             22.5677740278243988
    One-Electron Energy =                -198.4225196537529143
    Two-Electron Energy =                  72.5135282924952946
    DFT Exchange-Correlation Energy =     -10.0508366149574169
    Empirical Dispersion Energy =           0.0000000000000000
    VV10 Nonlocal Energy =                  0.0591214969677257
    Total Energy =                       -113.3329324514229057

Computation Completed


Properties will be evaluated at   0.000000,   0.000000,   0.000000 [a0]

Properties computed using the SCF density matrix

  Nuclear Dipole Moment: [e a0]
     X:     0.0000      Y:     0.0000      Z:     0.0023

  Electronic Dipole Moment: [e a0]
     X:     0.0000      Y:     0.0000      Z:     0.0388

  Dipole Moment: [e a0]
     X:     0.0000      Y:     0.0000      Z:     0.0412     Total:     0.0412

  Dipole Moment: [D]
     X:     0.0000      Y:     0.0000      Z:     0.1046     Total:     0.1046


*** tstop() called on bp1-compute00107.data.bp.acrc.priv at Tue Apr 27 17:43:42 2021
Module time:
	user time   =      36.18 seconds =       0.60 minutes
	system time =       1.19 seconds =       0.02 minutes
	total time  =          1 seconds =       0.02 minutes
Total time:
	user time   =     308.85 seconds =       5.15 minutes
	system time =      12.53 seconds =       0.21 minutes
	total time  =         13 seconds =       0.22 minutes

  //>>>>>>>>>>>>>>>>>>>>>>>>>>>>>>>>>>>//
  //    Loading displacement 2 of 3    //
  //<<<<<<<<<<<<<<<<<<<<<<<<<<<<<<<<<<<//

*** tstart() called on bp1-compute00107.data.bp.acrc.priv
*** at Tue Apr 27 17:43:42 2021

   => Loading Basis Set <=

    Name: CC-PV(T+D)Z
    Role: ORBITAL
    Keyword: BASIS
    atoms 1 entry C          line   195 file /work/zw18965/.conda/envs/p4env/share/psi4/basis/cc-pv_tpd_z.gbs 
    atoms 2 entry O          line   271 file /work/zw18965/.conda/envs/p4env/share/psi4/basis/cc-pv_tpd_z.gbs 


         ---------------------------------------------------------
                                   SCF
               by Justin Turney, Rob Parrish, Andy Simmonett
                          and Daniel G. A. Smith
                              RKS Reference
                       24 Threads, 137329 MiB Core
         ---------------------------------------------------------

  ==> Geometry <==

    Molecular point group: c2v
    Full point group: C_inf_v

[...]
   @DF-RKS iter  12:  -113.33293016056651    8.52651e-14   1.02450e-11 DIIS
  Energy and wave function converged.


  ==> Post-Iterations <==

    Orbital Energies [Eh]
    ---------------------

    Doubly Occupied:                                                      

       1A1   -19.438683     2A1   -10.459106     3A1    -1.293928  
       4A1    -0.691397     1B2    -0.583624     1B1    -0.583624  
       5A1    -0.484539  

    Virtual:                                                              

       2B2     0.070276     2B1     0.070276     6A1     0.233197  
       3B2     0.372279     3B1     0.372279     7A1     0.387992  
       8A1     0.635609     9A1     0.702242     4B2     0.711986  
       4B1     0.711986    10A1     0.727402     1A2     0.727402  
       5B1     0.952549     5B2     0.952549    11A1     1.201755  
      12A1     1.412551     2A2     1.606677    13A1     1.606677  
       6B2     1.983151     6B1     1.983151    14A1     2.017165  
       7B2     2.090138     7B1     2.090138    15A1     2.544994  
       8B2     2.719231     8B1     2.719231     3A2     2.903578  
      16A1     2.903578    17A1     3.013635     4A2     3.013639  
       9B1     3.045695     9B2     3.045695    18A1     3.182624  
      10B1     3.334363    10B2     3.334363    19A1     3.462199  
      11B1     4.180325    11B2     4.180325    20A1     4.549632  
      12B2     5.189031    12B1     5.189031    21A1     5.587863  
       5A2     5.587870    22A1     6.225607     6A2     6.344177  
      23A1     6.344189    13B1     6.345798    13B2     6.345798  
      14B1     6.836763    14B2     6.836763    24A1     6.872458  
      25A1     7.112304    26A1    12.407318  

    Final Occupation by Irrep:
             A1    A2    B1    B2 
    DOCC [     5,    0,    1,    1 ]

  @DF-RKS Final Energy:  -113.33293016056651

   => Energetics <=

    Nuclear Repulsion Energy =             22.5475310465834120
    One-Electron Energy =                -198.3841621783673475
    Two-Electron Energy =                  72.4945493104387708
    DFT Exchange-Correlation Energy =     -10.0499697393181151
    Empirical Dispersion Energy =           0.0000000000000000
    VV10 Nonlocal Energy =                  0.0591214000967746
    Total Energy =                       -113.3329301605665194

Computation Completed


Properties will be evaluated at   0.000000,   0.000000,   0.000000 [a0]

Properties computed using the SCF density matrix

  Nuclear Dipole Moment: [e a0]
     X:     0.0000      Y:     0.0000      Z:     0.0023

  Electronic Dipole Moment: [e a0]
     X:     0.0000      Y:     0.0000      Z:     0.0374

  Dipole Moment: [e a0]
     X:     0.0000      Y:     0.0000      Z:     0.0397     Total:     0.0397

  Dipole Moment: [D]
     X:     0.0000      Y:     0.0000      Z:     0.1009     Total:     0.1009


*** tstop() called on bp1-compute00107.data.bp.acrc.priv at Tue Apr 27 17:43:57 2021
Module time:
	user time   =      54.42 seconds =       0.91 minutes
	system time =       1.87 seconds =       0.03 minutes
	total time  =          2 seconds =       0.03 minutes
Total time:
	user time   =     650.20 seconds =      10.84 minutes
	system time =      25.23 seconds =       0.42 minutes
	total time  =         28 seconds =       0.47 minutes

  //>>>>>>>>>>>>>>>>>>>>>>>>>>>>>>>>>>>//
  //    Loading displacement 3 of 3    //
  //<<<<<<<<<<<<<<<<<<<<<<<<<<<<<<<<<<<//

*** tstart() called on bp1-compute00107.data.bp.acrc.priv
*** at Tue Apr 27 17:43:57 2021

   => Loading Basis Set <=

    Name: CC-PV(T+D)Z
    Role: ORBITAL
    Keyword: BASIS
    atoms 1 entry C          line   195 file /work/zw18965/.conda/envs/p4env/share/psi4/basis/cc-pv_tpd_z.gbs 
    atoms 2 entry O          line   271 file /work/zw18965/.conda/envs/p4env/share/psi4/basis/cc-pv_tpd_z.gbs 


         ---------------------------------------------------------
                                   SCF
               by Justin Turney, Rob Parrish, Andy Simmonett
                          and Daniel G. A. Smith
                              RKS Reference
                       24 Threads, 137329 MiB Core
         ---------------------------------------------------------

  ==> Geometry <==

    Molecular point group: c2v
    Full point group: C_inf_v

    Geometry (in Angstrom), charge = 0, multiplicity = 1:

       Center              X                  Y                   Z               Mass       
    ------------   -----------------  -----------------  -----------------  -----------------
         C            0.000000000000     0.000000000000    -0.642489957012    12.000000000000
         O            0.000000000000     0.000000000000     0.482020671415    15.994914619570

  Running in c2v symmetry.

  Rotational constants: A = ************  B =      1.94440  C =      1.94440 [cm^-1]
  Rotational constants: A = ************  B =  58291.60929  C =  58291.60929 [MHz]
  Nuclear repulsion =   22.588053389679711

  Charge       = 0
  Multiplicity = 1
  Electrons    = 14
  Nalpha       = 7
  Nbeta        = 7

  ==> Algorithm <==

  SCF Algorithm Type is DF.
  DIIS enabled.
  MOM disabled.
  Fractional occupation disabled.
  Guess Type is SAD.
  Energy threshold   = 1.00e-10
  Density threshold  = 1.00e-10
  Integral threshold = 0.00e+00

  ==> Primary Basis <==

  Basis Set: CC-PV(T+D)Z
    Blend: CC-PV(T+D)Z
    Number of shells: 20
    Number of basis function: 60
    Number of Cartesian functions: 70
    Spherical Harmonics?: true
    Max angular momentum: 3

  ==> DFT Potential <==

   => Composite Functional: WB97M-V <= 

    wB97M-V Hyb-GGA Exchange-Correlation Functional

    N. Mardirossian and M. Head-Gordon, J. Chem. Phys. 144, 214110 (2016)

    Deriv               =              1
    GGA                 =           TRUE
    Meta                =           TRUE

    Exchange Hybrid     =           TRUE
    MP2 Hybrid          =          FALSE

   => Exchange-Correlation Functionals <=

    1.0000   wB97M-V exchange-correlation functional

   => Exact (HF) Exchange <=

    0.8500            HF,LR [omega = 0.3000]
    0.1500               HF 

   => VV10 Non-Local Parameters <=

    VV10 B              =     6.0000E+00
    VV10 C              =     1.0000E-02

   => Molecular Quadrature <=

    Radial Scheme          =       TREUTLER
    Pruning Scheme         =           FLAT
    Nuclear Scheme         =       TREUTLER

    BS radius alpha        =              1
    Pruning alpha          =              1
    Radial Points          =             75
    Spherical Points       =            302
    Total Points           =          43360
    Total Blocks           =            392
    Max Points             =            253
    Max Functions          =             60

   => Loading Basis Set <=

    Name: (CC-PV(T+D)Z AUX)
    Role: JKFIT
    Keyword: DF_BASIS_SCF
    atoms 1 entry C          line   125 file /work/zw18965/.conda/envs/p4env/share/psi4/basis/cc-pvtz-jkfit.gbs 
    atoms 2 entry O          line   229 file /work/zw18965/.conda/envs/p4env/share/psi4/basis/cc-pvtz-jkfit.gbs 

  ==> Pre-Iterations <==

   -------------------------------------------------------
    Irrep   Nso     Nmo     Nalpha   Nbeta   Ndocc  Nsocc
   -------------------------------------------------------
     A1        26      26       0       0       0       0
     A2         6       6       0       0       0       0
     B1        14      14       0       0       0       0
     B2        14      14       0       0       0       0
   -------------------------------------------------------
    Total      60      60       7       7       7       0
   -------------------------------------------------------

  ==> Integral Setup <==

  ==> DiskDFJK: Density-Fitted J/K Matrices <==

    J tasked:                  Yes
    K tasked:                  Yes
    wK tasked:                 Yes
    Omega:               3.000E-01
    OpenMP threads:             24
    Integrals threads:          24
    Memory [MiB]:           102815
    Algorithm:                Core
    Integral Cache:           NONE
    Schwarz Cutoff:          1E-12
    Fitting Condition:       1E-10

   => Auxiliary Basis Set <=

  Basis Set: (CC-PV(T+D)Z AUX)
    Blend: CC-PVTZ-JKFIT
    Number of shells: 50
    Number of basis function: 158
    Number of Cartesian functions: 192
    Spherical Harmonics?: true
    Max angular momentum: 4

  Cached 100.0% of DFT collocation blocks in 0.177 [GiB].

  Minimum eigenvalue in the overlap matrix is 2.9901571835E-03.
  Using Symmetric Orthogonalization.

  SCF Guess: Superposition of Atomic Densities via on-the-fly atomic UHF.

  ==> Iterations <==

                           Total Energy        Delta E     RMS |[F,P]|

   @DF-RKS iter SAD:  -112.61396772904570   -1.12614e+02   0.00000e+00 
   @DF-RKS iter   1:  -113.29904777894377   -6.85080e-01   9.90900e-03 DIIS
   @DF-RKS iter   2:  -113.28367053133830    1.53772e-02   1.19235e-02 DIIS
   @DF-RKS iter   3:  -113.33195488022929   -4.82843e-02   1.48075e-03 DIIS
   @DF-RKS iter   4:  -113.33291186815184   -9.56988e-04   1.86277e-04 DIIS
   @DF-RKS iter   5:  -113.33292933521943   -1.74671e-05   3.13900e-05 DIIS
   @DF-RKS iter   6:  -113.33292996551080   -6.30291e-07   5.61071e-06 DIIS
   @DF-RKS iter   7:  -113.33293000116977   -3.56590e-08   6.23487e-07 DIIS
   @DF-RKS iter   8:  -113.33293000168933   -5.19563e-10   1.51323e-07 DIIS
   @DF-RKS iter   9:  -113.33293000170050   -1.11697e-11   1.11680e-08 DIIS
   @DF-RKS iter  10:  -113.33293000170052   -1.42109e-14   1.30503e-09 DIIS
   @DF-RKS iter  11:  -113.33293000170056   -4.26326e-14   1.37989e-10 DIIS
   @DF-RKS iter  12:  -113.33293000170048    8.52651e-14   1.01574e-11 DIIS
  Energy and wave function converged.


  ==> Post-Iterations <==

    Orbital Energies [Eh]
    ---------------------

    Doubly Occupied:                                                      

       1A1   -19.438588     2A1   -10.458352     3A1    -1.295083  
       4A1    -0.691430     1B1    -0.584357     1B2    -0.584357  
       5A1    -0.484360  

    Virtual:                                                              

       2B2     0.071018     2B1     0.071018     6A1     0.233248  
       3B1     0.372314     3B2     0.372314     7A1     0.388006  
       8A1     0.635596     9A1     0.704592     4B2     0.711854  
       4B1     0.711854    10A1     0.727426     1A2     0.727426  
       5B2     0.953365     5B1     0.953365    11A1     1.202198  
      12A1     1.415016     2A2     1.607076    13A1     1.607076  
       6B1     1.984703     6B2     1.984703    14A1     2.016515  
       7B2     2.089437     7B1     2.089437    15A1     2.547757  
       8B2     2.719343     8B1     2.719343     3A2     2.904785  
      16A1     2.904785    17A1     3.013965     4A2     3.013969  
       9B1     3.046089     9B2     3.046089    18A1     3.182057  
      10B2     3.336142    10B1     3.336142    19A1     3.465045  
      11B1     4.182476    11B2     4.182476    20A1     4.556373  
      12B2     5.189166    12B1     5.189166    21A1     5.590658  
       5A2     5.590665    22A1     6.228443     6A2     6.344489  
      23A1     6.344501    13B1     6.351571    13B2     6.351571  
      14B1     6.836727    14B2     6.836727    24A1     6.876330  
      25A1     7.118999    26A1    12.437691  

    Final Occupation by Irrep:
             A1    A2    B1    B2 
    DOCC [     5,    0,    1,    1 ]

  @DF-RKS Final Energy:  -113.33293000170048

   => Energetics <=

    Nuclear Repulsion Energy =             22.5880533896797111
    One-Electron Energy =                -198.4609383520014489
    Two-Electron Energy =                  72.5325390422598844
    DFT Exchange-Correlation Energy =     -10.0517056774420617
    Empirical Dispersion Energy =           0.0000000000000000
    VV10 Nonlocal Energy =                  0.0591215958034342
    Total Energy =                       -113.3329300017004755

Computation Completed


Properties will be evaluated at   0.000000,   0.000000,   0.000000 [a0]

Properties computed using the SCF density matrix

  Nuclear Dipole Moment: [e a0]
     X:     0.0000      Y:     0.0000      Z:     0.0023

  Electronic Dipole Moment: [e a0]
     X:     0.0000      Y:     0.0000      Z:     0.0403

  Dipole Moment: [e a0]
     X:     0.0000      Y:     0.0000      Z:     0.0426     Total:     0.0426

  Dipole Moment: [D]
     X:     0.0000      Y:     0.0000      Z:     0.1083     Total:     0.1083


*** tstop() called on bp1-compute00107.data.bp.acrc.priv at Tue Apr 27 17:44:00 2021
Module time:
	user time   =      54.40 seconds =       0.91 minutes
	system time =       1.82 seconds =       0.03 minutes
	total time  =          3 seconds =       0.05 minutes
Total time:
	user time   =     704.72 seconds =      11.75 minutes
	system time =      27.06 seconds =       0.45 minutes
	total time  =         31 seconds =       0.52 minutes

         ----------------------------------------------------------
                                   FINDIF
                     R. A. King and Jonathon Misiewicz
         ---------------------------------------------------------

  Computing second-derivative from energies using projected, 
  symmetry-adapted, cartesian coordinates.

  3 energies passed in, including the reference geometry.
    Using 3-point formula.
    Energy without displacement: -113.3329324514
    Check energies below for precision!
    0: -1 :      -113.3329301606
    0: 1  :      -113.3329300017

-------------------------------------------------------------


  ==> Harmonic Vibrational Analysis <==

  non-mass-weighted Hessian:       Symmetric? True   Hermitian? True   Lin Dep Dim?  5 (0)
  projection of translations (True) and rotations (True) removed 5 degrees of freedom (5)
  total projector:                 Symmetric? True   Hermitian? True   Lin Dep Dim?  5 (5)
  mass-weighted Hessian:           Symmetric? True   Hermitian? True   Lin Dep Dim?  5 (0)
  pre-proj  low-frequency mode:    0.0000  [cm^-1]
  pre-proj  low-frequency mode:    0.0000  [cm^-1]
  pre-proj  low-frequency mode:    0.0000  [cm^-1]
  pre-proj  low-frequency mode:    0.0000  [cm^-1]
  pre-proj  low-frequency mode:    0.0000  [cm^-1]
  pre-proj  all modes:['0.0000' '0.0000' '0.0000' '0.0000' '0.0000' '2238.4633']
  projected mass-weighted Hessian: Symmetric? True   Hermitian? True   Lin Dep Dim?  5 (5)
  post-proj low-frequency mode:    0.0000  [cm^-1] (TR)
  post-proj low-frequency mode:    0.0000  [cm^-1] (TR)
  post-proj low-frequency mode:    0.0000  [cm^-1] (TR)
  post-proj low-frequency mode:    0.0000  [cm^-1] (TR)
  post-proj low-frequency mode:    0.0000  [cm^-1] (TR)
  post-proj  all modes:['0.0000' '0.0000' '0.0000' '0.0000' '0.0000' '2238.4633']

  Vibration                       6           
  Freq [cm^-1]                2238.4633       
  Irrep                           A1          
  Reduced mass [u]             13.4388        
  Force const [mDyne/A]        39.6743        
  Turning point v=0 [a0]        0.0633        
  RMS dev v=0 [a0 u^1/2]        0.1640        
  Char temp [K]               3220.6502       
  ----------------------------------------------------------------------------------
      1   C                0.00  0.00  0.80   
      2   O                0.00  0.00 -0.60   

  ==> Thermochemistry Components <==

  Entropy, S
    Electronic S            0.000 [cal/(mol K)]        0.000 [J/(mol K)]       0.00000000 [mEh/K] (multiplicity = 1)
    Translational S        35.923 [cal/(mol K)]      150.302 [J/(mol K)]       0.05724692 [mEh/K] (mol. weight = 27.9949 [u], P = 101325.00 [Pa])
    Rotational S           11.269 [cal/(mol K)]       47.148 [J/(mol K)]       0.01795786 [mEh/K] (symmetry no. = 1)
    Vibrational S           0.000 [cal/(mol K)]        0.002 [J/(mol K)]       0.00000076 [mEh/K]
  Total S                  47.192 [cal/(mol K)]      197.452 [J/(mol K)]       0.07520555 [mEh/K]
  Correction S              0.000 [cal/(mol K)]        0.000 [J/(mol K)]       0.00000000 [mEh/K]

  Constant volume heat capacity, Cv
    Electronic Cv           0.000 [cal/(mol K)]        0.000 [J/(mol K)]       0.00000000 [mEh/K]
    Translational Cv        2.981 [cal/(mol K)]       12.472 [J/(mol K)]       0.00475022 [mEh/K]
    Rotational Cv           1.987 [cal/(mol K)]        8.314 [J/(mol K)]       0.00316681 [mEh/K]
    Vibrational Cv          0.005 [cal/(mol K)]        0.020 [J/(mol K)]       0.00000752 [mEh/K]
  Total Cv                  4.973 [cal/(mol K)]       20.806 [J/(mol K)]       0.00792455 [mEh/K]
  Correction Cv             0.000 [cal/(mol K)]        0.000 [J/(mol K)]       0.00000000 [mEh/K]

  Constant pressure heat capacity, Cp
    Electronic Cp           0.000 [cal/(mol K)]        0.000 [J/(mol K)]       0.00000000 [mEh/K]
    Translational Cp        4.968 [cal/(mol K)]       20.786 [J/(mol K)]       0.00791703 [mEh/K]
    Rotational Cp           1.987 [cal/(mol K)]        8.314 [J/(mol K)]       0.00316681 [mEh/K]
    Vibrational Cp          0.005 [cal/(mol K)]        0.020 [J/(mol K)]       0.00000752 [mEh/K]
  Total Cp                  6.960 [cal/(mol K)]       29.120 [J/(mol K)]       0.01109136 [mEh/K]
  Correction Cp             0.000 [cal/(mol K)]        0.000 [J/(mol K)]       0.00000000 [mEh/K]

  ==> Thermochemistry Energy Analysis <==

  Raw electronic energy, E0
  Total E0, Electronic energy at well bottom at 0 [K]                 -113.33293245 [Eh]

  Zero-point energy, ZPE_vib = Sum_i nu_i / 2
    Electronic ZPE          0.000 [kcal/mol]        0.000 [kJ/mol]       0.00000000 [Eh]
    Translational ZPE       0.000 [kcal/mol]        0.000 [kJ/mol]       0.00000000 [Eh]
    Rotational ZPE          0.000 [kcal/mol]        0.000 [kJ/mol]       0.00000000 [Eh]
    Vibrational ZPE         3.200 [kcal/mol]       13.389 [kJ/mol]       0.00509959 [Eh]        1119.232 [cm^-1]
  Correction ZPE            3.200 [kcal/mol]       13.389 [kJ/mol]       0.00509959 [Eh]        1119.232 [cm^-1]
  Total ZPE, Electronic energy at 0 [K]                               -113.32783286 [Eh]

  Thermal Energy, E (includes ZPE)
    Electronic E            0.000 [kcal/mol]        0.000 [kJ/mol]       0.00000000 [Eh]
    Translational E         0.889 [kcal/mol]        3.718 [kJ/mol]       0.00141628 [Eh]
    Rotational E            0.592 [kcal/mol]        2.479 [kJ/mol]       0.00094418 [Eh]
    Vibrational E           3.200 [kcal/mol]       13.390 [kJ/mol]       0.00509980 [Eh]
  Correction E              4.681 [kcal/mol]       19.587 [kJ/mol]       0.00746026 [Eh]
  Total E, Electronic energy at  298.15 [K]                           -113.32547219 [Eh]

  Enthalpy, H_trans = E_trans + k_B * T
    Electronic H            0.000 [kcal/mol]        0.000 [kJ/mol]       0.00000000 [Eh]
    Translational H         1.481 [kcal/mol]        6.197 [kJ/mol]       0.00236046 [Eh]
    Rotational H            0.592 [kcal/mol]        2.479 [kJ/mol]       0.00094418 [Eh]
    Vibrational H           3.200 [kcal/mol]       13.390 [kJ/mol]       0.00509980 [Eh]
  Correction H              5.274 [kcal/mol]       22.066 [kJ/mol]       0.00840445 [Eh]
  Total H, Enthalpy at  298.15 [K]                                    -113.32452800 [Eh]

  Gibbs free energy, G = H - T * S
    Electronic G            0.000 [kcal/mol]        0.000 [kJ/mol]       0.00000000 [Eh]
    Translational G        -9.229 [kcal/mol]      -38.615 [kJ/mol]      -0.01470771 [Eh]
    Rotational G           -2.767 [kcal/mol]      -11.578 [kJ/mol]      -0.00440995 [Eh]
    Vibrational G           3.200 [kcal/mol]       13.389 [kJ/mol]       0.00509958 [Eh]
  Correction G             -8.796 [kcal/mol]      -36.804 [kJ/mol]      -0.01401809 [Eh]
  Total G, Free enthalpy at  298.15 [K]                               -113.34695054 [Eh]

    Psi4 stopped on: Tuesday, 27 April 2021 05:44PM
    Psi4 wall time for execution: 0:00:31.38

*** Psi4 exiting successfully. Buy a developer a beer!
