
    -----------------------------------------------------------------------
          Psi4: An Open-Source Ab Initio Electronic Structure Package
                               Psi4 1.3.2 release

                         Git: Rev {HEAD} ecbda83 


    R. M. Parrish, L. A. Burns, D. G. A. Smith, A. C. Simmonett,
    A. E. DePrince III, E. G. Hohenstein, U. Bozkaya, A. Yu. Sokolov,
    R. Di Remigio, R. M. Richard, J. F. Gonthier, A. M. James,
    H. R. McAlexander, A. Kumar, M. Saitow, X. Wang, B. P. Pritchard,
    P. Verma, H. F. Schaefer III, K. Patkowski, R. A. King, E. F. Valeev,
    F. A. Evangelista, J. M. Turney, T. D. Crawford, and C. D. Sherrill,
    J. Chem. Theory Comput. 13(7) pp 3185--3197 (2017).
    (doi: 10.1021/acs.jctc.7b00174)


                         Additional Contributions by
    P. Kraus, H. Kruse, M. H. Lechner, M. C. Schieber, R. A. Shaw,
    A. Alenaizan, R. Galvelis, Z. L. Glick, S. Lehtola, and J. P. Misiewicz

    -----------------------------------------------------------------------


    Psi4 started on: Tuesday, 27 April 2021 05:44PM

    Process ID: 284024
    Host:       bp1-compute00145.data.bp.acrc.priv
    PSIDATADIR: /work/zw18965/.conda/envs/p4env/share/psi4
    Memory:     500.0 MiB
    Threads:    24
    
  ==> Input File <==

--------------------------------------------------------------------------
memory 144 GB

molecule {
0 1
C 0.0000000000 0.0000000000 0.0000000000
S 0.0000000000 0.0000000000 1.5576337400
S 0.0000000000 0.0000000000 -1.5576337400
}

set dynamic_level 1
set basis cc-pV(T+d)Z
 
optimize("wB97M-V")
frequencies("wB97M-V")
--------------------------------------------------------------------------

  Memory set to 134.110 GiB by Python driver.
gradient() will perform gradient computation by finite difference of analytic energies.

         ----------------------------------------------------------
                                   FINDIF
                     R. A. King and Jonathon Misiewicz
         ---------------------------------------------------------

  Using finite-differences of energies to determine gradients.
    Generating geometries for use with 3-point formula.
    Displacement size will be 5.00e-03.
    Number of atoms is 3.
    Number of symmetric SALCs is 1.
    Translations projected? 1. Rotations projected? 1.
    Number of geometries (including reference) is 3.

  //>>>>>>>>>>>>>>>>>>>>>>>>>>>>>>>>>>>//
  //    Loading displacement 1 of 3    //
  //<<<<<<<<<<<<<<<<<<<<<<<<<<<<<<<<<<<//

*** tstart() called on bp1-compute00145.data.bp.acrc.priv
*** at Tue Apr 27 17:44:15 2021

   => Loading Basis Set <=

    Name: CC-PV(T+D)Z
    Role: ORBITAL
    Keyword: BASIS
    atoms 1   entry C          line   195 file /work/zw18965/.conda/envs/p4env/share/psi4/basis/cc-pv_tpd_z.gbs 
    atoms 2-3 entry S          line   788 file /work/zw18965/.conda/envs/p4env/share/psi4/basis/cc-pv_tpd_z.gbs 


         ---------------------------------------------------------
                                   SCF
               by Justin Turney, Rob Parrish, Andy Simmonett
                          and Daniel G. A. Smith
                              RKS Reference
                       24 Threads, 137329 MiB Core
         ---------------------------------------------------------

  ==> Geometry <==

    Molecular point group: d2h
    Full point group: D_inf_h

    Geometry (in Angstrom), charge = 0, multiplicity = 1:

       Center              X                  Y                   Z               Mass       
    ------------   -----------------  -----------------  -----------------  -----------------
         C            0.000000000000     0.000000000000     0.000000000000    12.000000000000
         S            0.000000000000     0.000000000000     1.557633740000    31.972071174400
         S            0.000000000000     0.000000000000    -1.557633740000    31.972071174400

  Running in d2h symmetry.

  Rotational constants: A = ************  B =      0.10866  C =      0.10866 [cm^-1]
  Rotational constants: A = ************  B =   3257.50987  C =   3257.50987 [MHz]
  Nuclear repulsion =  108.714072548531220

  Charge       = 0
  Multiplicity = 1
  Electrons    = 38
  Nalpha       = 19
  Nbeta        = 19

  ==> Algorithm <==

  SCF Algorithm Type is DF.
  DIIS enabled.
  MOM disabled.
  Fractional occupation disabled.
  Guess Type is SAD.
  Energy threshold   = 1.00e-08
  Density threshold  = 1.00e-08
  Integral threshold = 0.00e+00

  ==> Primary Basis <==

  Basis Set: CC-PV(T+D)Z
    Blend: CC-PV(T+D)Z
    Number of shells: 36
    Number of basis function: 108
    Number of Cartesian functions: 125
    Spherical Harmonics?: true
    Max angular momentum: 3

  ==> DFT Potential <==

   => Composite Functional: WB97M-V <= 

    wB97M-V Hyb-GGA Exchange-Correlation Functional

    N. Mardirossian and M. Head-Gordon, J. Chem. Phys. 144, 214110 (2016)

    Deriv               =              1
    GGA                 =           TRUE
    Meta                =           TRUE

    Exchange Hybrid     =           TRUE
    MP2 Hybrid          =          FALSE

   => Exchange-Correlation Functionals <=

    1.0000   wB97M-V exchange-correlation functional

   => Exact (HF) Exchange <=

    0.8500            HF,LR [omega = 0.3000]
    0.1500               HF 

   => VV10 Non-Local Parameters <=

    VV10 B              =     6.0000E+00
    VV10 C              =     1.0000E-02

   => Molecular Quadrature <=

    Radial Scheme          =       TREUTLER
    Pruning Scheme         =           FLAT
    Nuclear Scheme         =       TREUTLER

    BS radius alpha        =              1
    Pruning alpha          =              1
    Radial Points          =             75
    Spherical Points       =            302
    Total Points           =          64544
    Total Blocks           =            565
    Max Points             =            256
    Max Functions          =            108

   => Loading Basis Set <=

    Name: (CC-PV(T+D)Z AUX)
    Role: JKFIT
    Keyword: DF_BASIS_SCF
    atoms 1   entry C          line   125 file /work/zw18965/.conda/envs/p4env/share/psi4/basis/cc-pvtz-jkfit.gbs 
    atoms 2-3 entry S          line   613 file /work/zw18965/.conda/envs/p4env/share/psi4/basis/cc-pvtz-jkfit.gbs 

  ==> Pre-Iterations <==

   -------------------------------------------------------
    Irrep   Nso     Nmo     Nalpha   Nbeta   Ndocc  Nsocc
   -------------------------------------------------------
     Ag        25      25       0       0       0       0
     B1g        6       6       0       0       0       0
     B2g       11      11       0       0       0       0
     B3g       11      11       0       0       0       0
     Au         5       5       0       0       0       0
     B1u       22      22       0       0       0       0
     B2u       14      14       0       0       0       0
     B3u       14      14       0       0       0       0
   -------------------------------------------------------
    Total     108     108      19      19      19       0
   -------------------------------------------------------

  ==> Integral Setup <==

  ==> DiskDFJK: Density-Fitted J/K Matrices <==

    J tasked:                  Yes
    K tasked:                  Yes
    wK tasked:                 Yes
    Omega:               3.000E-01
    OpenMP threads:             24
    Integrals threads:          24
    Memory [MiB]:           102536
    Algorithm:                Core
    Integral Cache:           NONE
    Schwarz Cutoff:          1E-12
    Fitting Condition:       1E-10

   => Auxiliary Basis Set <=

  Basis Set: (CC-PV(T+D)Z AUX)
    Blend: CC-PVTZ-JKFIT
    Number of shells: 99
    Number of basis function: 321
    Number of Cartesian functions: 386
    Spherical Harmonics?: true
    Max angular momentum: 4

  Cached 100.0% of DFT collocation blocks in 0.449 [GiB].

  Minimum eigenvalue in the overlap matrix is 8.7363889244E-04.
  Using Symmetric Orthogonalization.

  SCF Guess: Superposition of Atomic Densities via on-the-fly atomic UHF.

  ==> Iterations <==

                           Total Energy        Delta E     RMS |[F,P]|

   @DF-RKS iter SAD:  -834.11663324959250   -8.34117e+02   0.00000e+00 
   @DF-RKS iter   1:  -834.46211204293547   -3.45479e-01   6.49398e-03 DIIS
   @DF-RKS iter   2:  -834.48320741400812   -2.10954e-02   2.76818e-03 DIIS
   @DF-RKS iter   3:  -834.48735009586642   -4.14268e-03   9.15946e-04 DIIS
   @DF-RKS iter   4:  -834.48808315562485   -7.33060e-04   3.10068e-04 DIIS
   @DF-RKS iter   5:  -834.48818895417401   -1.05799e-04   4.54452e-05 DIIS
   @DF-RKS iter   6:  -834.48819177122220   -2.81705e-06   1.63542e-05 DIIS
   @DF-RKS iter   7:  -834.48819212380658   -3.52584e-07   1.24806e-06 DIIS
   @DF-RKS iter   8:  -834.48819212655985   -2.75327e-09   1.60875e-07 DIIS
   @DF-RKS iter   9:  -834.48819212659214   -3.22871e-11   1.10817e-08 DIIS
   @DF-RKS iter  10:  -834.48819212659293   -7.95808e-13   1.12577e-09 DIIS
  Energy and wave function converged.


  ==> Post-Iterations <==

    Orbital Energies [Eh]
    ---------------------

    Doubly Occupied:                                                      

       1B1u  -89.233735     1Ag   -89.233733     2Ag   -10.481016  
       2B1u   -8.149481     3Ag    -8.149462     3B1u   -6.058432  
       4Ag    -6.058430     1B2g   -6.054534     1B3g   -6.054534  
       1B3u   -6.054533     1B2u   -6.054533     5Ag    -0.981811  
       4B1u   -0.887467     6Ag    -0.615152     5B1u   -0.529365  
       2B3u   -0.494066     2B2u   -0.494066     2B2g   -0.357141  
       2B3g   -0.357141  

    Virtual:                                                              

       3B2u    0.003650     3B3u    0.003650     7Ag     0.123920  
       6B1u    0.178197     8Ag     0.277610     7B1u    0.290527  
       9Ag     0.332170     4B3u    0.338016     4B2u    0.338016  
       3B2g    0.356396     3B3g    0.356396     1B1g    0.394291  
      10Ag     0.394292     1Au     0.433699     8B1u    0.433701  
       5B2u    0.464717     5B3u    0.464717     4B3g    0.466162  
       4B2g    0.466162     9B1u    0.633164    11Ag     0.639998  
       6B3u    0.701482     6B2u    0.701482    12Ag     0.821005  
       2B1g    0.821008    10B1u    0.825948    13Ag     0.911067  
      11B1u    1.052234     5B3g    1.209547     5B2g    1.209547  
      14Ag     1.348187    12B1u    1.512524     2Au     1.512530  
      15Ag     1.516139     3B1g    1.516143     6B3g    1.576048  
       6B2g    1.576048    13B1u    1.593245     7B3u    1.616356  
       7B2u    1.616356     3Au     1.660220    14B1u    1.660225  
       8B2u    1.715132     8B3u    1.715132     7B3g    1.725722  
       7B2g    1.725722    16Ag     1.808883     4B1g    1.935117  
      17Ag     1.935121    18Ag     1.965364     8B3g    1.967913  
       8B2g    1.967913     9B2u    1.969135     9B3u    1.969135  
      10B3u    1.984643    10B2u    1.984643    15B1u    2.048167  
      11B3u    2.362072    11B2u    2.362072    16B1u    2.521028  
      12B2u    2.729252    12B3u    2.729252     9B3g    2.757040  
       9B2g    2.757040    19Ag     2.824592    17B1u    3.009382  
       5B1g    3.026705    20Ag     3.026728    18B1u    3.104333  
       4Au     3.104335    10B3g    3.260479    10B2g    3.260479  
      21Ag     3.674501    22Ag     3.745283    13B2u    3.782053  
      13B3u    3.782053    19B1u    4.251820    20B1u    5.095595  
      23Ag     6.752055    21B1u    6.771614     5Au     6.771645  
      24Ag     6.777592     6B1g    6.777624    11B3g    6.810936  
      11B2g    6.810936    14B2u    7.078649    14B3u    7.078649  
      22B1u    8.222757    25Ag     9.124687  

    Final Occupation by Irrep:
             Ag   B1g   B2g   B3g    Au   B1u   B2u   B3u 
    DOCC [     6,    0,    2,    2,    0,    5,    2,    2 ]

  @DF-RKS Final Energy:  -834.48819212659293

   => Energetics <=

    Nuclear Repulsion Energy =            108.7140725485312203
    One-Electron Energy =               -1366.6196720888583513
    Two-Electron Energy =                 466.6908228307446507
    DFT Exchange-Correlation Energy =     -43.4304449246275368
    Empirical Dispersion Energy =           0.0000000000000000
    VV10 Nonlocal Energy =                  0.1570295076170883
    Total Energy =                       -834.4881921265929350

Computation Completed


Properties will be evaluated at   0.000000,   0.000000,   0.000000 [a0]

Properties computed using the SCF density matrix

  Nuclear Dipole Moment: [e a0]
     X:     0.0000      Y:     0.0000      Z:     0.0000

  Electronic Dipole Moment: [e a0]
     X:     0.0000      Y:     0.0000      Z:     0.0000

  Dipole Moment: [e a0]
     X:     0.0000      Y:     0.0000      Z:     0.0000     Total:     0.0000

  Dipole Moment: [D]
     X:     0.0000      Y:     0.0000      Z:     0.0000     Total:     0.0000


*** tstop() called on bp1-compute00145.data.bp.acrc.priv at Tue Apr 27 17:44:19 2021
Module time:
	user time   =      78.20 seconds =       1.30 minutes
	system time =       4.69 seconds =       0.08 minutes
	total time  =          4 seconds =       0.07 minutes
Total time:
	user time   =      78.20 seconds =       1.30 minutes
	system time =       4.69 seconds =       0.08 minutes
	total time  =          4 seconds =       0.07 minutes

  //>>>>>>>>>>>>>>>>>>>>>>>>>>>>>>>>>>>//
  //    Loading displacement 2 of 3    //
  //<<<<<<<<<<<<<<<<<<<<<<<<<<<<<<<<<<<//

*** tstart() called on bp1-compute00145.data.bp.acrc.priv
*** at Tue Apr 27 17:44:19 2021

   => Loading Basis Set <=

    Name: CC-PV(T+D)Z
    Role: ORBITAL
    Keyword: BASIS
    atoms 1   entry C          line   195 file /work/zw18965/.conda/envs/p4env/share/psi4/basis/cc-pv_tpd_z.gbs 
    atoms 2-3 entry S          line   788 file /work/zw18965/.conda/envs/p4env/share/psi4/basis/cc-pv_tpd_z.gbs 


         ---------------------------------------------------------
                                   SCF
               by Justin Turney, Rob Parrish, Andy Simmonett
                          and Daniel G. A. Smith
                              RKS Reference
                       24 Threads, 137329 MiB Core
         ---------------------------------------------------------

  ==> Geometry <==

    Molecular point group: d2h
    Full point group: D_inf_h

    Geometry (in Angstrom), charge = 0, multiplicity = 1:

       Center              X                  Y                   Z               Mass       
    ------------   -----------------  -----------------  -----------------  -----------------
         C            0.000000000000     0.000000000000     0.000000000000    12.000000000000
         S            0.000000000000     0.000000000000     1.557302859820    31.972071174400
         S            0.000000000000     0.000000000000    -1.557302859820    31.972071174400

  Running in d2h symmetry.

  Rotational constants: A = ************  B =      0.10871  C =      0.10871 [cm^-1]
  Rotational constants: A = ************  B =   3258.89427  C =   3258.89427 [MHz]
  Nuclear repulsion =  108.737171030434496

  Charge       = 0
  Multiplicity = 1
  Electrons    = 38
  Nalpha       = 19
  Nbeta        = 19

  ==> Algorithm <==

  SCF Algorithm Type is DF.
  DIIS enabled.
  MOM disabled.
  Fractional occupation disabled.
  Guess Type is SAD.
  Energy threshold   = 1.00e-08
  Density threshold  = 1.00e-08
  Integral threshold = 0.00e+00

  ==> Primary Basis <==

  Basis Set: CC-PV(T+D)Z
    Blend: CC-PV(T+D)Z
    Number of shells: 36
    Number of basis function: 108
    Number of Cartesian functions: 125
    Spherical Harmonics?: true
    Max angular momentum: 3

  ==> DFT Potential <==

   => Composite Functional: WB97M-V <= 

    wB97M-V Hyb-GGA Exchange-Correlation Functional

    N. Mardirossian and M. Head-Gordon, J. Chem. Phys. 144, 214110 (2016)

    Deriv               =              1
    GGA                 =           TRUE
    Meta                =           TRUE

    Exchange Hybrid     =           TRUE
    MP2 Hybrid          =          FALSE

   => Exchange-Correlation Functionals <=

    1.0000   wB97M-V exchange-correlation functional

   => Exact (HF) Exchange <=

    0.8500            HF,LR [omega = 0.3000]
    0.1500               HF 

   => VV10 Non-Local Parameters <=

    VV10 B              =     6.0000E+00
    VV10 C              =     1.0000E-02

   => Molecular Quadrature <=

    Radial Scheme          =       TREUTLER
    Pruning Scheme         =           FLAT
    Nuclear Scheme         =       TREUTLER

    BS radius alpha        =              1
    Pruning alpha          =              1
    Radial Points          =             75
    Spherical Points       =            302
    Total Points           =          64544
    Total Blocks           =            565
    Max Points             =            256
    Max Functions          =            108

   => Loading Basis Set <=

    Name: (CC-PV(T+D)Z AUX)
    Role: JKFIT
    Keyword: DF_BASIS_SCF
    atoms 1   entry C          line   125 file /work/zw18965/.conda/envs/p4env/share/psi4/basis/cc-pvtz-jkfit.gbs 
    atoms 2-3 entry S          line   613 file /work/zw18965/.conda/envs/p4env/share/psi4/basis/cc-pvtz-jkfit.gbs 

  ==> Pre-Iterations <==

   -------------------------------------------------------
    Irrep   Nso     Nmo     Nalpha   Nbeta   Ndocc  Nsocc
   -------------------------------------------------------
     Ag        25      25       0       0       0       0
     B1g        6       6       0       0       0       0
     B2g       11      11       0       0       0       0
     B3g       11      11       0       0       0       0
     Au         5       5       0       0       0       0
     B1u       22      22       0       0       0       0
     B2u       14      14       0       0       0       0
     B3u       14      14       0       0       0       0
   -------------------------------------------------------
    Total     108     108      19      19      19       0
   -------------------------------------------------------

  ==> Integral Setup <==

  ==> DiskDFJK: Density-Fitted J/K Matrices <==

    J tasked:                  Yes
    K tasked:                  Yes
    wK tasked:                 Yes
    Omega:               3.000E-01
    OpenMP threads:             24
    Integrals threads:          24
    Memory [MiB]:           102536
    Algorithm:                Core
    Integral Cache:           NONE
    Schwarz Cutoff:          1E-12
    Fitting Condition:       1E-10

   => Auxiliary Basis Set <=

  Basis Set: (CC-PV(T+D)Z AUX)
    Blend: CC-PVTZ-JKFIT
    Number of shells: 99
    Number of basis function: 321
    Number of Cartesian functions: 386
    Spherical Harmonics?: true
    Max angular momentum: 4

  Cached 100.0% of DFT collocation blocks in 0.449 [GiB].

  Minimum eigenvalue in the overlap matrix is 8.7257550343E-04.
  Using Symmetric Orthogonalization.

  SCF Guess: Superposition of Atomic Densities via on-the-fly atomic UHF.

  ==> Iterations <==

                           Total Energy        Delta E     RMS |[F,P]|

   @DF-RKS iter SAD:  -834.11764384960088   -8.34118e+02   0.00000e+00 
   @DF-RKS iter   1:  -834.46209322759171   -3.44449e-01   6.49752e-03 DIIS
   @DF-RKS iter   2:  -834.48319091600831   -2.10977e-02   2.77427e-03 DIIS
   @DF-RKS iter   3:  -834.48735221299444   -4.16130e-03   9.22695e-04 DIIS
   @DF-RKS iter   4:  -834.48809623871489   -7.44026e-04   3.08740e-04 DIIS
   @DF-RKS iter   5:  -834.48820144260276   -1.05204e-04   4.54815e-05 DIIS
   @DF-RKS iter   6:  -834.48820425893041   -2.81633e-06   1.63448e-05 DIIS
   @DF-RKS iter   7:  -834.48820461111598   -3.52186e-07   1.24839e-06 DIIS
   @DF-RKS iter   8:  -834.48820461387152   -2.75554e-09   1.60887e-07 DIIS
   @DF-RKS iter   9:  -834.48820461390426   -3.27418e-11   1.10736e-08 DIIS
   @DF-RKS iter  10:  -834.48820461390437   -1.13687e-13   1.12594e-09 DIIS
  Energy and wave function converged.


  ==> Post-Iterations <==

    Orbital Energies [Eh]
    ---------------------

    Doubly Occupied:                                                      

       1B1u  -89.233679     1Ag   -89.233677     2Ag   -10.480906  
       2B1u   -8.149442     3Ag    -8.149423     3B1u   -6.058391  
       4Ag    -6.058390     1B3g   -6.054495     1B2g   -6.054495  
       1B2u   -6.054494     1B3u   -6.054494     5Ag    -0.981903  
       4B1u   -0.887526     6Ag    -0.615109     5B1u   -0.529380  
       2B2u   -0.494134     2B3u   -0.494134     2B2g   -0.357133  
       2B3g   -0.357133  

    Virtual:                                                              

       3B2u    0.003716     3B3u    0.003716     7Ag     0.124049  
       6B1u    0.178216     8Ag     0.277586     7B1u    0.290527  
       9Ag     0.332244     4B3u    0.338011     4B2u    0.338011  
       3B3g    0.356393     3B2g    0.356393     1B1g    0.394273  
      10Ag     0.394275     1Au     0.433711     8B1u    0.433712  
       5B2u    0.464761     5B3u    0.464761     4B2g    0.466225  
       4B3g    0.466225     9B1u    0.633315    11Ag     0.640025  
       6B3u    0.701621     6B2u    0.701621    12Ag     0.821085  
       2B1g    0.821088    10B1u    0.826038    13Ag     0.911288  
      11B1u    1.052430     5B3g    1.209629     5B2g    1.209629  
      14Ag     1.348254    12B1u    1.512540     2Au     1.512545  
      15Ag     1.516134     3B1g    1.516138     6B2g    1.576251  
       6B3g    1.576251    13B1u    1.593463     7B3u    1.616448  
       7B2u    1.616448     3Au     1.660261    14B1u    1.660266  
       8B2u    1.715121     8B3u    1.715121     7B3g    1.725726  
       7B2g    1.725726    16Ag     1.808745     4B1g    1.935340  
      17Ag     1.935344    18Ag     1.965654     8B3g    1.967895  
       8B2g    1.967895     9B2u    1.969107     9B3u    1.969107  
      10B2u    1.984864    10B3u    1.984864    15B1u    2.048102  
      11B2u    2.362369    11B3u    2.362369    16B1u    2.521512  
      12B3u    2.729305    12B2u    2.729305     9B3g    2.757338  
       9B2g    2.757338    19Ag     2.825586    17B1u    3.008856  
       5B1g    3.026733    20Ag     3.026756    18B1u    3.104689  
       4Au     3.104691    10B3g    3.260635    10B2g    3.260635  
      21Ag     3.674538    22Ag     3.745365    13B3u    3.782563  
      13B2u    3.782563    19B1u    4.253318    20B1u    5.096757  
      23Ag     6.752651    21B1u    6.771662     5Au     6.771693  
      24Ag     6.777618     6B1g    6.777650    11B3g    6.811104  
      11B2g    6.811104    14B2u    7.079079    14B3u    7.079079  
      22B1u    8.224429    25Ag     9.129073  

    Final Occupation by Irrep:
             Ag   B1g   B2g   B3g    Au   B1u   B2u   B3u 
    DOCC [     6,    0,    2,    2,    0,    5,    2,    2 ]

  @DF-RKS Final Energy:  -834.48820461390437

   => Energetics <=

    Nuclear Repulsion Energy =            108.7371710304344958
    One-Electron Energy =               -1366.6662753587015686
    Two-Electron Energy =                 466.7146607333259567
    DFT Exchange-Correlation Energy =     -43.4307899081470410
    Empirical Dispersion Energy =           0.0000000000000000
    VV10 Nonlocal Energy =                  0.1570288891838791
    Total Energy =                       -834.4882046139044860

Computation Completed


Properties will be evaluated at   0.000000,   0.000000,   0.000000 [a0]

Properties computed using the SCF density matrix

  Nuclear Dipole Moment: [e a0]
     X:     0.0000      Y:     0.0000      Z:     0.0000

  Electronic Dipole Moment: [e a0]
     X:     0.0000      Y:     0.0000      Z:     0.0000

  Dipole Moment: [e a0]
     X:     0.0000      Y:     0.0000      Z:     0.0000     Total:     0.0000

  Dipole Moment: [D]
     X:     0.0000      Y:     0.0000      Z:     0.0000     Total:     0.0000


*** tstop() called on bp1-compute00145.data.bp.acrc.priv at Tue Apr 27 17:44:22 2021
Module time:
	user time   =      78.99 seconds =       1.32 minutes
	system time =       2.68 seconds =       0.04 minutes
	total time  =          3 seconds =       0.05 minutes
Total time:
	user time   =     157.33 seconds =       2.62 minutes
	system time =       7.38 seconds =       0.12 minutes
	total time  =          7 seconds =       0.12 minutes

  //>>>>>>>>>>>>>>>>>>>>>>>>>>>>>>>>>>>//
  //    Loading displacement 3 of 3    //
  //<<<<<<<<<<<<<<<<<<<<<<<<<<<<<<<<<<<//

*** tstart() called on bp1-compute00145.data.bp.acrc.priv
*** at Tue Apr 27 17:44:22 2021

   => Loading Basis Set <=

    Name: CC-PV(T+D)Z
    Role: ORBITAL
    Keyword: BASIS
    atoms 1   entry C          line   195 file /work/zw18965/.conda/envs/p4env/share/psi4/basis/cc-pv_tpd_z.gbs 
    atoms 2-3 entry S          line   788 file /work/zw18965/.conda/envs/p4env/share/psi4/basis/cc-pv_tpd_z.gbs 


         ---------------------------------------------------------
                                   SCF
               by Justin Turney, Rob Parrish, Andy Simmonett
                          and Daniel G. A. Smith
                              RKS Reference
                       24 Threads, 137329 MiB Core
         ---------------------------------------------------------

  ==> Geometry <==

    Molecular point group: d2h
    Full point group: D_inf_h

    Geometry (in Angstrom), charge = 0, multiplicity = 1:

       Center              X                  Y                   Z               Mass       
    ------------   -----------------  -----------------  -----------------  -----------------
         C            0.000000000000     0.000000000000     0.000000000000    12.000000000000
         S            0.000000000000     0.000000000000     1.557964620180    31.972071174400
         S            0.000000000000     0.000000000000    -1.557964620180    31.972071174400

  Running in d2h symmetry.

  Rotational constants: A = ************  B =      0.10861  C =      0.10861 [cm^-1]
  Rotational constants: A = ************  B =   3256.12636  C =   3256.12636 [MHz]
  Nuclear repulsion =  108.690983877928886

  Charge       = 0
  Multiplicity = 1
  Electrons    = 38
  Nalpha       = 19
  Nbeta        = 19

  ==> Algorithm <==

  SCF Algorithm Type is DF.
  DIIS enabled.
  MOM disabled.
  Fractional occupation disabled.
  Guess Type is SAD.
  Energy threshold   = 1.00e-08
  Density threshold  = 1.00e-08
  Integral threshold = 0.00e+00

  ==> Primary Basis <==

  Basis Set: CC-PV(T+D)Z
    Blend: CC-PV(T+D)Z
    Number of shells: 36
    Number of basis function: 108
    Number of Cartesian functions: 125
    Spherical Harmonics?: true
    Max angular momentum: 3

  ==> DFT Potential <==

   => Composite Functional: WB97M-V <= 

    wB97M-V Hyb-GGA Exchange-Correlation Functional

    N. Mardirossian and M. Head-Gordon, J. Chem. Phys. 144, 214110 (2016)

    Deriv               =              1
    GGA                 =           TRUE
    Meta                =           TRUE

    Exchange Hybrid     =           TRUE
    MP2 Hybrid          =          FALSE

   => Exchange-Correlation Functionals <=

    1.0000   wB97M-V exchange-correlation functional

   => Exact (HF) Exchange <=

    0.8500            HF,LR [omega = 0.3000]
    0.1500               HF 

   => VV10 Non-Local Parameters <=

    VV10 B              =     6.0000E+00
    VV10 C              =     1.0000E-02

   => Molecular Quadrature <=

    Radial Scheme          =       TREUTLER
    Pruning Scheme         =           FLAT
    Nuclear Scheme         =       TREUTLER

    BS radius alpha        =              1
    Pruning alpha          =              1
    Radial Points          =             75
    Spherical Points       =            302
    Total Points           =          64544
    Total Blocks           =            565
    Max Points             =            256
    Max Functions          =            108

   => Loading Basis Set <=

    Name: (CC-PV(T+D)Z AUX)
    Role: JKFIT
    Keyword: DF_BASIS_SCF
    atoms 1   entry C          line   125 file /work/zw18965/.conda/envs/p4env/share/psi4/basis/cc-pvtz-jkfit.gbs 
    atoms 2-3 entry S          line   613 file /work/zw18965/.conda/envs/p4env/share/psi4/basis/cc-pvtz-jkfit.gbs 

  ==> Pre-Iterations <==

   -------------------------------------------------------
    Irrep   Nso     Nmo     Nalpha   Nbeta   Ndocc  Nsocc
   -------------------------------------------------------
     Ag        25      25       0       0       0       0
     B1g        6       6       0       0       0       0
     B2g       11      11       0       0       0       0
     B3g       11      11       0       0       0       0
     Au         5       5       0       0       0       0
     B1u       22      22       0       0       0       0
     B2u       14      14       0       0       0       0
     B3u       14      14       0       0       0       0
   -------------------------------------------------------
    Total     108     108      19      19      19       0
   -------------------------------------------------------

  ==> Integral Setup <==

  ==> DiskDFJK: Density-Fitted J/K Matrices <==

    J tasked:                  Yes
    K tasked:                  Yes
    wK tasked:                 Yes
    Omega:               3.000E-01
    OpenMP threads:             24
    Integrals threads:          24
    Memory [MiB]:           102536
    Algorithm:                Core
    Integral Cache:           NONE
    Schwarz Cutoff:          1E-12
    Fitting Condition:       1E-10

   => Auxiliary Basis Set <=

  Basis Set: (CC-PV(T+D)Z AUX)
    Blend: CC-PVTZ-JKFIT
    Number of shells: 99
    Number of basis function: 321
    Number of Cartesian functions: 386
    Spherical Harmonics?: true
    Max angular momentum: 4

  Cached 100.0% of DFT collocation blocks in 0.449 [GiB].

  Minimum eigenvalue in the overlap matrix is 8.7470331953E-04.
  Using Symmetric Orthogonalization.

  SCF Guess: Superposition of Atomic Densities via on-the-fly atomic UHF.

  ==> Iterations <==

                           Total Energy        Delta E     RMS |[F,P]|

   @DF-RKS iter SAD:  -834.11561529703442   -8.34116e+02   0.00000e+00 
   @DF-RKS iter   1:  -834.46213041195642   -3.46515e-01   6.49045e-03 DIIS
   @DF-RKS iter   2:  -834.48322316579345   -2.10928e-02   2.76215e-03 DIIS
   @DF-RKS iter   3:  -834.48734747014714   -4.12430e-03   9.09199e-04 DIIS
   @DF-RKS iter   4:  -834.48806963396089   -7.22164e-04   3.11404e-04 DIIS
   @DF-RKS iter   5:  -834.48817603260738   -1.06399e-04   4.54087e-05 DIIS
   @DF-RKS iter   6:  -834.48817885040671   -2.81780e-06   1.63638e-05 DIIS
   @DF-RKS iter   7:  -834.48817920339479   -3.52988e-07   1.24774e-06 DIIS
   @DF-RKS iter   8:  -834.48817920614715   -2.75236e-09   1.60856e-07 DIIS
   @DF-RKS iter   9:  -834.48817920617898   -3.18323e-11   1.10898e-08 DIIS
   @DF-RKS iter  10:  -834.48817920617955   -5.68434e-13   1.12563e-09 DIIS
  Energy and wave function converged.


  ==> Post-Iterations <==

    Orbital Energies [Eh]
    ---------------------

    Doubly Occupied:                                                      

       1B1u  -89.233790     1Ag   -89.233788     2Ag   -10.481127  
       2B1u   -8.149519     3Ag    -8.149500     3B1u   -6.058473  
       4Ag    -6.058471     1B3g   -6.054573     1B2g   -6.054573  
       1B2u   -6.054572     1B3u   -6.054572     5Ag    -0.981718  
       4B1u   -0.887409     6Ag    -0.615195     5B1u   -0.529349  
       2B3u   -0.493998     2B2u   -0.493998     2B3g   -0.357148  
       2B2g   -0.357148  

    Virtual:                                                              

       3B2u    0.003584     3B3u    0.003584     7Ag     0.123790  
       6B1u    0.178178     8Ag     0.277634     7B1u    0.290526  
       9Ag     0.332095     4B3u    0.338020     4B2u    0.338020  
       3B2g    0.356399     3B3g    0.356399     1B1g    0.394308  
      10Ag     0.394310     1Au     0.433688     8B1u    0.433690  
       5B2u    0.464673     5B3u    0.464673     4B2g    0.466099  
       4B3g    0.466099     9B1u    0.633014    11Ag     0.639970  
       6B2u    0.701344     6B3u    0.701344    12Ag     0.820925  
       2B1g    0.820928    10B1u    0.825859    13Ag     0.910847  
      11B1u    1.052039     5B3g    1.209465     5B2g    1.209465  
      14Ag     1.348120    12B1u    1.512509     2Au     1.512514  
      15Ag     1.516143     3B1g    1.516147     6B3g    1.575847  
       6B2g    1.575847    13B1u    1.593027     7B2u    1.616264  
       7B3u    1.616264     3Au     1.660180    14B1u    1.660184  
       8B2u    1.715144     8B3u    1.715144     7B3g    1.725718  
       7B2g    1.725718    16Ag     1.809020     4B1g    1.934895  
      17Ag     1.934898    18Ag     1.965073     8B3g    1.967931  
       8B2g    1.967931     9B2u    1.969164     9B3u    1.969164  
      10B2u    1.984422    10B3u    1.984422    15B1u    2.048231  
      11B2u    2.361775    11B3u    2.361775    16B1u    2.520545  
      12B3u    2.729200    12B2u    2.729200     9B3g    2.756741  
       9B2g    2.756741    19Ag     2.823599    17B1u    3.009908  
       5B1g    3.026677    20Ag     3.026700    18B1u    3.103977  
       4Au     3.103979    10B2g    3.260323    10B3g    3.260323  
      21Ag     3.674463    22Ag     3.745201    13B2u    3.781543  
      13B3u    3.781543    19B1u    4.250321    20B1u    5.094434  
      23Ag     6.751459    21B1u    6.771565     5Au     6.771597  
      24Ag     6.777566     6B1g    6.777598    11B2g    6.810768  
      11B3g    6.810768    14B3u    7.078220    14B2u    7.078220  
      22B1u    8.221086    25Ag     9.120304  

    Final Occupation by Irrep:
             Ag   B1g   B2g   B3g    Au   B1u   B2u   B3u 
    DOCC [     6,    0,    2,    2,    0,    5,    2,    2 ]

  @DF-RKS Final Energy:  -834.48817920617955

   => Energetics <=

    Nuclear Repulsion Energy =            108.6909838779288862
    One-Electron Energy =               -1366.5730878954245782
    Two-Electron Energy =                 466.6669948650940114
    DFT Exchange-Correlation Energy =     -43.4301001799850326
    Empirical Dispersion Energy =           0.0000000000000000
    VV10 Nonlocal Energy =                  0.1570301262072346
    Total Energy =                       -834.4881792061795522

Computation Completed


Properties will be evaluated at   0.000000,   0.000000,   0.000000 [a0]

Properties computed using the SCF density matrix

  Nuclear Dipole Moment: [e a0]
     X:     0.0000      Y:     0.0000      Z:     0.0000

  Electronic Dipole Moment: [e a0]
     X:     0.0000      Y:     0.0000      Z:     0.0000

  Dipole Moment: [e a0]
     X:     0.0000      Y:     0.0000      Z:     0.0000     Total:     0.0000

  Dipole Moment: [D]
     X:     0.0000      Y:     0.0000      Z:     0.0000     Total:     0.0000


*** tstop() called on bp1-compute00145.data.bp.acrc.priv at Tue Apr 27 17:44:25 2021
Module time:
	user time   =      72.14 seconds =       1.20 minutes
	system time =       2.85 seconds =       0.05 minutes
	total time  =          3 seconds =       0.05 minutes
Total time:
	user time   =     229.60 seconds =       3.83 minutes
	system time =      10.23 seconds =       0.17 minutes
	total time  =         10 seconds =       0.17 minutes

         ----------------------------------------------------------
                                   FINDIF
                     R. A. King and Jonathon Misiewicz
         ---------------------------------------------------------

  Computing gradient from energies.
    Using 3-point formula.
    Energy without displacement: -834.4881921266
    Check energies below for precision!
    Forces are for mass-weighted, symmetry-adapted cartesians (in au).

     Coord      Energy(-1)        Energy(+1)            Force
        0   -834.4882046139   -834.4881792062      0.0025407725


-------------------------------------------------------------
  ## New Matrix (Symmetry 0) ##
  Irrep: 1 Size: 3 x 3

                 1                   2                   3

    1     0.00000000000000     0.00000000000000     0.00000000000000
    2     0.00000000000000     0.00000000000000     0.01015865391043
    3     0.00000000000000     0.00000000000000    -0.01015865391043




			-----------------------------------------
			 OPTKING 2.0: for geometry optimizations 
			  - R.A. King,  Bethel University        
			-----------------------------------------
	At level 1: Red. Int., RFO, no backsteps, dynamic trust

	Internal coordinates to be generated automatically.
	Detected frag 1 with atoms:  1 2 3
	---Fragment 1 Bond Connectivity---
	 1 : 2 3
	 2 : 1
	 3 : 1

	---Fragment 1 Geometry and Gradient---
	 C           0.0000000000        0.0000000000        0.0000000000
	 S           0.0000000000        0.0000000000        2.9435011724
	 S           0.0000000000        0.0000000000       -2.9435011724
	             0.0000000000        0.0000000000        0.0000000000
	             0.0000000000        0.0000000000        0.0101586539
	             0.0000000000        0.0000000000       -0.0101586539

	Previous optimization step data not found.  Starting new optimization.

	---Fragment 1 Intrafragment Coordinates---
	 - Coordinate -           - BOHR/RAD -       - ANG/DEG -
	 R(1,2)           =         2.943501	       1.557634
	 R(1,3)           =         2.943501	       1.557634
	 L(2,1,3)         =         3.141593	     180.000000
	 l(2,1,3)         =         3.141593	     180.000000

	Current energy   :      -834.4881921266

	Generating empirical Hessian (Schlegel '84) for each fragment.
	Taking RFO optimization step.
	Going to follow RFO solution 1.
	Using RFO vector 1.
	Norm of target step-size    0.02378
	Projected energy change by RFO approximation:        -0.0003415101

	Back-transformation to cartesian coordinates...
	Successfully converged to displaced geometry.

	--- Internal Coordinate Step in ANG or DEG, aJ/ANG or AJ/DEG ---
	 ---------------------------------------------------------------------------
	   Coordinate                Previous        Force       Change         New 
	   ----------                --------       ------       ------       ------
	    1 R(1,2)          =      1.557634    -0.083694    -0.008900     1.548734
	    2 R(1,3)          =      1.557634    -0.083694    -0.008900     1.548734
	    3 L(2,1,3)        =    180.000000     0.000000     0.000000   180.000000
	    4 l(2,1,3)        =    180.000000     0.000000     0.000000   180.000000
	 ---------------------------------------------------------------------------
	Successfully symmetrized geometry.

  ==> Convergence Check <==

  Measures of convergence in internal coordinates in au.
  Criteria marked as inactive (o), active & met (*), and active & unmet ( ).
  --------------------------------------------------------------------------------------------- ~
   Step     Total Energy     Delta E     MAX Force     RMS Force      MAX Disp      RMS Disp    ~
  --------------------------------------------------------------------------------------------- ~
    Convergence Criteria    1.00e-06 *    3.00e-04 *             o    1.20e-03 *             o  ~
  --------------------------------------------------------------------------------------------- ~
      1    -834.48819213   -8.34e+02      1.02e-02      7.18e-03 o    1.68e-02      1.19e-02 o  ~
  ---------------------------------------------------------------------------------------------

	Writing optimization data to binary file.
	Structure for next step:
	Cartesian Geometry (in Angstrom)
	    C     0.0000000000   0.0000000000   0.0000000000
	    S     0.0000000000   0.0000000000   1.5487338546
	    S     0.0000000000   0.0000000000  -1.5487338546
			--------------------------
			 OPTKING Finished Execution 
			--------------------------

    Structure for next step:
    Molecular point group: d2h
    Full point group: D_inf_h

    Geometry (in Angstrom), charge = 0, multiplicity = 1:

    C            0.000000000000     0.000000000000     0.000000000000
    S            0.000000000000     0.000000000000     1.548733860723
    S            0.000000000000     0.000000000000    -1.548733860723

gradient() will perform gradient computation by finite difference of analytic energies.

         ----------------------------------------------------------
                                   FINDIF
                     R. A. King and Jonathon Misiewicz
         ---------------------------------------------------------

  Using finite-differences of energies to determine gradients.
    Generating geometries for use with 3-point formula.
    Displacement size will be 5.00e-03.
    Number of atoms is 3.
    Number of symmetric SALCs is 1.
    Translations projected? 1. Rotations projected? 1.
    Number of geometries (including reference) is 3.

  //>>>>>>>>>>>>>>>>>>>>>>>>>>>>>>>>>>>//
  //    Loading displacement 1 of 3    //
  //<<<<<<<<<<<<<<<<<<<<<<<<<<<<<<<<<<<//

*** tstart() called on bp1-compute00145.data.bp.acrc.priv
*** at Tue Apr 27 17:44:25 2021

   => Loading Basis Set <=

    Name: CC-PV(T+D)Z
    Role: ORBITAL
    Keyword: BASIS
    atoms 1   entry C          line   195 file /work/zw18965/.conda/envs/p4env/share/psi4/basis/cc-pv_tpd_z.gbs 
    atoms 2-3 entry S          line   788 file /work/zw18965/.conda/envs/p4env/share/psi4/basis/cc-pv_tpd_z.gbs 


         ---------------------------------------------------------
                                   SCF
               by Justin Turney, Rob Parrish, Andy Simmonett
                          and Daniel G. A. Smith
                              RKS Reference
                       24 Threads, 137329 MiB Core
         ---------------------------------------------------------

  ==> Geometry <==

    Molecular point group: d2h
    Full point group: D_inf_h

    Geometry (in Angstrom), charge = 0, multiplicity = 1:

       Center              X                  Y                   Z               Mass       
    ------------   -----------------  -----------------  -----------------  -----------------
         C            0.000000000000     0.000000000000     0.000000000000    12.000000000000
         S            0.000000000000     0.000000000000     1.548733860723    31.972071174400
         S            0.000000000000     0.000000000000    -1.548733860723    31.972071174400

  Running in d2h symmetry.

  Rotational constants: A = ************  B =      0.10991  C =      0.10991 [cm^-1]
  Rotational constants: A = ************  B =   3295.05634  C =   3295.05634 [MHz]
  Nuclear repulsion =  109.338803592309901

  Charge       = 0
  Multiplicity = 1
  Electrons    = 38
  Nalpha       = 19
  Nbeta        = 19

  ==> Algorithm <==

  SCF Algorithm Type is DF.
  DIIS enabled.
  MOM disabled.
  Fractional occupation disabled.
  Guess Type is READ.
  Energy threshold   = 1.00e-08
  Density threshold  = 1.00e-08
  Integral threshold = 0.00e+00

  ==> Primary Basis <==

  Basis Set: CC-PV(T+D)Z
    Blend: CC-PV(T+D)Z
    Number of shells: 36
    Number of basis function: 108
    Number of Cartesian functions: 125
    Spherical Harmonics?: true
    Max angular momentum: 3

  ==> DFT Potential <==

   => Composite Functional: WB97M-V <= 

    wB97M-V Hyb-GGA Exchange-Correlation Functional

    N. Mardirossian and M. Head-Gordon, J. Chem. Phys. 144, 214110 (2016)

    Deriv               =              1
    GGA                 =           TRUE
    Meta                =           TRUE

    Exchange Hybrid     =           TRUE
    MP2 Hybrid          =          FALSE

   => Exchange-Correlation Functionals <=

    1.0000   wB97M-V exchange-correlation functional

   => Exact (HF) Exchange <=

    0.8500            HF,LR [omega = 0.3000]
    0.1500               HF 

   => VV10 Non-Local Parameters <=

    VV10 B              =     6.0000E+00
    VV10 C              =     1.0000E-02

   => Molecular Quadrature <=

    Radial Scheme          =       TREUTLER
    Pruning Scheme         =           FLAT
    Nuclear Scheme         =       TREUTLER

    BS radius alpha        =              1
    Pruning alpha          =              1
    Radial Points          =             75
    Spherical Points       =            302
    Total Points           =          64536
    Total Blocks           =            566
    Max Points             =            256
    Max Functions          =            108

   => Loading Basis Set <=

    Name: (CC-PV(T+D)Z AUX)
    Role: JKFIT
    Keyword: DF_BASIS_SCF
    atoms 1   entry C          line   125 file /work/zw18965/.conda/envs/p4env/share/psi4/basis/cc-pvtz-jkfit.gbs 
    atoms 2-3 entry S          line   613 file /work/zw18965/.conda/envs/p4env/share/psi4/basis/cc-pvtz-jkfit.gbs 

   => Loading Basis Set <=

    Name: CC-PV(T+D)Z
    Role: ORBITAL
    Keyword: BASIS
    atoms 1   entry C          line   195 file /work/zw18965/.conda/envs/p4env/share/psi4/basis/cc-pv_tpd_z.gbs 
    atoms 2-3 entry S          line   788 file /work/zw18965/.conda/envs/p4env/share/psi4/basis/cc-pv_tpd_z.gbs 

  Reading orbitals from file 180, no projection.

  ==> Pre-Iterations <==

   -------------------------------------------------------
    Irrep   Nso     Nmo     Nalpha   Nbeta   Ndocc  Nsocc
   -------------------------------------------------------
     Ag        25      25       0       0       0       0
     B1g        6       6       0       0       0       0
     B2g       11      11       0       0       0       0
     B3g       11      11       0       0       0       0
     Au         5       5       0       0       0       0
     B1u       22      22       0       0       0       0
     B2u       14      14       0       0       0       0
     B3u       14      14       0       0       0       0
   -------------------------------------------------------
    Total     108     108      19      19      19       0
   -------------------------------------------------------

  ==> Integral Setup <==

  ==> DiskDFJK: Density-Fitted J/K Matrices <==

    J tasked:                  Yes
    K tasked:                  Yes
    wK tasked:                 Yes
    Omega:               3.000E-01
    OpenMP threads:             24
    Integrals threads:          24
    Memory [MiB]:           102535
    Algorithm:                Core
    Integral Cache:           NONE
    Schwarz Cutoff:          1E-12
    Fitting Condition:       1E-10

   => Auxiliary Basis Set <=

  Basis Set: (CC-PV(T+D)Z AUX)
    Blend: CC-PVTZ-JKFIT
    Number of shells: 99
    Number of basis function: 321
    Number of Cartesian functions: 386
    Spherical Harmonics?: true
    Max angular momentum: 4

  Cached 100.0% of DFT collocation blocks in 0.450 [GiB].

  Minimum eigenvalue in the overlap matrix is 8.4539719353E-04.
  Using Symmetric Orthogonalization.

  SCF Guess: Orbitals guess was supplied from a previous computation.

  ==> Iterations <==

                           Total Energy        Delta E     RMS |[F,P]|

   @DF-RKS iter   0:  -834.49843075586068   -8.34498e+02   9.11758e-04 
   @DF-RKS iter   1:  -834.48833749608480    1.00933e-02   1.83490e-04 DIIS
   @DF-RKS iter   2:  -834.48832584803449    1.16481e-05   2.42501e-04 DIIS
   @DF-RKS iter   3:  -834.48837447751555   -4.86295e-05   1.81150e-05 DIIS
   @DF-RKS iter   4:  -834.48837471289028   -2.35375e-07   6.99673e-06 DIIS
   @DF-RKS iter   5:  -834.48837476150152   -4.86112e-08   1.10100e-06 DIIS
   @DF-RKS iter   6:  -834.48837476453070   -3.02919e-09   1.60959e-07 DIIS
   @DF-RKS iter   7:  -834.48837476459892   -6.82121e-11   5.00622e-08 DIIS
   @DF-RKS iter   8:  -834.48837476460176   -2.84217e-12   5.03198e-09 DIIS
  Energy and wave function converged.


  ==> Post-Iterations <==

    Orbital Energies [Eh]
    ---------------------

    Doubly Occupied:                                                      

       1B1u  -89.232220     1Ag   -89.232218     2Ag   -10.478029  
       2B1u   -8.148440     3Ag    -8.148421     3B1u   -6.057329  
       4Ag    -6.057327     1B3g   -6.053481     1B2g   -6.053481  
       1B2u   -6.053480     1B3u   -6.053480     5Ag    -0.984308  
       4B1u   -0.889057     6Ag    -0.614001     5B1u   -0.529765  
       2B2u   -0.495909     2B3u   -0.495909     2B3g   -0.356931  
       2B2g   -0.356931  

    Virtual:                                                              

       3B3u    0.005422     3B2u    0.005422     7Ag     0.127361  
       6B1u    0.178697     8Ag     0.276977     7B1u    0.290536  
       9Ag     0.334256     4B2u    0.337907     4B3u    0.337907  
       3B2g    0.356310     3B3g    0.356310     1B1g    0.393817  
      10Ag     0.393818     1Au     0.434012     8B1u    0.434014  
       5B3u    0.465891     5B2u    0.465891     4B2g    0.467860  
       4B3g    0.467860     9B1u    0.637161    11Ag     0.640789  
       6B3u    0.705264     6B2u    0.705264    12Ag     0.823171  
       2B1g    0.823174    10B1u    0.828305    13Ag     0.917033  
      11B1u    1.057523     5B3g    1.211655     5B2g    1.211655  
      14Ag     1.350040    12B1u    1.512941     2Au     1.512946  
      15Ag     1.516006     3B1g    1.516010     6B2g    1.581627  
       6B3g    1.581627    13B1u    1.599399     7B3u    1.618839  
       7B2u    1.618839     3Au     1.661357    14B1u    1.661361  
       8B3u    1.714818     8B2u    1.714818     7B2g    1.725823  
       7B3g    1.725823    16Ag     1.805227     4B1g    1.941165  
      17Ag     1.941168     8B2g    1.967416     8B3g    1.967416  
       9B3u    1.968354     9B2u    1.968354    18Ag     1.973288  
      10B3u    1.990576    10B2u    1.990576    15B1u    2.046410  
      11B3u    2.370135    11B2u    2.370135    16B1u    2.534094  
      12B3u    2.730680    12B2u    2.730680     9B3g    2.764807  
       9B2g    2.764807    19Ag     2.851409    17B1u    2.995332  
       5B1g    3.027456    20Ag     3.027477    18B1u    3.113956  
       4Au     3.113958    10B2g    3.264908    10B3g    3.264908  
      21Ag     3.675393    22Ag     3.747686    13B3u    3.795897  
      13B2u    3.795897    19B1u    4.292257    20B1u    5.127495  
      23Ag     6.767998    21B1u    6.772942     5Au     6.772973  
      24Ag     6.778299     6B1g    6.778331    11B2g    6.815648  
      11B3g    6.815648    14B3u    7.090290    14B2u    7.090290  
      22B1u    8.267932    25Ag     9.243974  

    Final Occupation by Irrep:
             Ag   B1g   B2g   B3g    Au   B1u   B2u   B3u 
    DOCC [     6,    0,    2,    2,    0,    5,    2,    2 ]

  @DF-RKS Final Energy:  -834.48837476460176

   => Energetics <=

    Nuclear Repulsion Energy =            109.3388035923099011
    One-Electron Energy =               -1367.8798659568899438
    Two-Electron Energy =                 467.3354824400394136
    DFT Exchange-Correlation Energy =     -43.4398077666833657
    Empirical Dispersion Energy =           0.0000000000000000
    VV10 Nonlocal Energy =                  0.1570129266223237
    Total Energy =                       -834.4883747646016445

Computation Completed


Properties will be evaluated at   0.000000,   0.000000,   0.000000 [a0]

Properties computed using the SCF density matrix

  Nuclear Dipole Moment: [e a0]
     X:     0.0000      Y:     0.0000      Z:     0.0000

  Electronic Dipole Moment: [e a0]
     X:     0.0000      Y:     0.0000      Z:     0.0000

  Dipole Moment: [e a0]
     X:     0.0000      Y:     0.0000      Z:     0.0000     Total:     0.0000

  Dipole Moment: [D]
     X:     0.0000      Y:     0.0000      Z:     0.0000     Total:     0.0000


*** tstop() called on bp1-compute00145.data.bp.acrc.priv at Tue Apr 27 17:44:28 2021
Module time:
	user time   =      57.21 seconds =       0.95 minutes
	system time =       1.53 seconds =       0.03 minutes
	total time  =          3 seconds =       0.05 minutes
Total time:
	user time   =     287.19 seconds =       4.79 minutes
	system time =      11.77 seconds =       0.20 minutes
	total time  =         13 seconds =       0.22 minutes

  //>>>>>>>>>>>>>>>>>>>>>>>>>>>>>>>>>>>//
  //    Loading displacement 2 of 3    //
  //<<<<<<<<<<<<<<<<<<<<<<<<<<<<<<<<<<<//

*** tstart() called on bp1-compute00145.data.bp.acrc.priv
*** at Tue Apr 27 17:44:28 2021

   => Loading Basis Set <=

    Name: CC-PV(T+D)Z
    Role: ORBITAL
    Keyword: BASIS
    atoms 1   entry C          line   195 file /work/zw18965/.conda/envs/p4env/share/psi4/basis/cc-pv_tpd_z.gbs 
    atoms 2-3 entry S          line   788 file /work/zw18965/.conda/envs/p4env/share/psi4/basis/cc-pv_tpd_z.gbs 


         ---------------------------------------------------------
                                   SCF
               by Justin Turney, Rob Parrish, Andy Simmonett
                          and Daniel G. A. Smith
                              RKS Reference
                       24 Threads, 137329 MiB Core
         ---------------------------------------------------------

  ==> Geometry <==

    Molecular point group: d2h
    Full point group: D_inf_h

    Geometry (in Angstrom), charge = 0, multiplicity = 1:

       Center              X                  Y                   Z               Mass       
    ------------   -----------------  -----------------  -----------------  -----------------
         C            0.000000000000     0.000000000000     0.000000000000    12.000000000000
         S            0.000000000000     0.000000000000     1.548402980543    31.972071174400
         S            0.000000000000     0.000000000000    -1.548402980543    31.972071174400

  Running in d2h symmetry.

  Rotational constants: A = ************  B =      0.10996  C =      0.10996 [cm^-1]
  Rotational constants: A = ************  B =   3296.46474  C =   3296.46474 [MHz]
  Nuclear repulsion =  109.362168338761848

  Charge       = 0
  Multiplicity = 1
  Electrons    = 38
  Nalpha       = 19
  Nbeta        = 19

  ==> Algorithm <==

  SCF Algorithm Type is DF.
  DIIS enabled.
  MOM disabled.
  Fractional occupation disabled.
  Guess Type is READ.
  Energy threshold   = 1.00e-08
  Density threshold  = 1.00e-08
  Integral threshold = 0.00e+00

  ==> Primary Basis <==

  Basis Set: CC-PV(T+D)Z
    Blend: CC-PV(T+D)Z
    Number of shells: 36
    Number of basis function: 108
    Number of Cartesian functions: 125
    Spherical Harmonics?: true
    Max angular momentum: 3

  ==> DFT Potential <==

   => Composite Functional: WB97M-V <= 

    wB97M-V Hyb-GGA Exchange-Correlation Functional

    N. Mardirossian and M. Head-Gordon, J. Chem. Phys. 144, 214110 (2016)

    Deriv               =              1
    GGA                 =           TRUE
    Meta                =           TRUE

    Exchange Hybrid     =           TRUE
    MP2 Hybrid          =          FALSE

   => Exchange-Correlation Functionals <=

    1.0000   wB97M-V exchange-correlation functional

   => Exact (HF) Exchange <=

    0.8500            HF,LR [omega = 0.3000]
    0.1500               HF 

   => VV10 Non-Local Parameters <=

    VV10 B              =     6.0000E+00
    VV10 C              =     1.0000E-02

   => Molecular Quadrature <=

    Radial Scheme          =       TREUTLER
    Pruning Scheme         =           FLAT
    Nuclear Scheme         =       TREUTLER

    BS radius alpha        =              1
    Pruning alpha          =              1
    Radial Points          =             75
    Spherical Points       =            302
    Total Points           =          64536
    Total Blocks           =            567
    Max Points             =            256
    Max Functions          =            108

   => Loading Basis Set <=

    Name: (CC-PV(T+D)Z AUX)
    Role: JKFIT
    Keyword: DF_BASIS_SCF
    atoms 1   entry C          line   125 file /work/zw18965/.conda/envs/p4env/share/psi4/basis/cc-pvtz-jkfit.gbs 
    atoms 2-3 entry S          line   613 file /work/zw18965/.conda/envs/p4env/share/psi4/basis/cc-pvtz-jkfit.gbs 

   => Loading Basis Set <=

    Name: CC-PV(T+D)Z
    Role: ORBITAL
    Keyword: BASIS
    atoms 1   entry C          line   195 file /work/zw18965/.conda/envs/p4env/share/psi4/basis/cc-pv_tpd_z.gbs 
    atoms 2-3 entry S          line   788 file /work/zw18965/.conda/envs/p4env/share/psi4/basis/cc-pv_tpd_z.gbs 

  Reading orbitals from file 180, no projection.

  ==> Pre-Iterations <==

   -------------------------------------------------------
    Irrep   Nso     Nmo     Nalpha   Nbeta   Ndocc  Nsocc
   -------------------------------------------------------
     Ag        25      25       0       0       0       0
     B1g        6       6       0       0       0       0
     B2g       11      11       0       0       0       0
     B3g       11      11       0       0       0       0
     Au         5       5       0       0       0       0
     B1u       22      22       0       0       0       0
     B2u       14      14       0       0       0       0
     B3u       14      14       0       0       0       0
   -------------------------------------------------------
    Total     108     108      19      19      19       0
   -------------------------------------------------------

  ==> Integral Setup <==

  ==> DiskDFJK: Density-Fitted J/K Matrices <==

    J tasked:                  Yes
    K tasked:                  Yes
    wK tasked:                 Yes
    Omega:               3.000E-01
    OpenMP threads:             24
    Integrals threads:          24
    Memory [MiB]:           102535
    Algorithm:                Core
    Integral Cache:           NONE
    Schwarz Cutoff:          1E-12
    Fitting Condition:       1E-10

   => Auxiliary Basis Set <=

  Basis Set: (CC-PV(T+D)Z AUX)
    Blend: CC-PVTZ-JKFIT
    Number of shells: 99
    Number of basis function: 321
    Number of Cartesian functions: 386
    Spherical Harmonics?: true
    Max angular momentum: 4

  Cached 100.0% of DFT collocation blocks in 0.450 [GiB].

  Minimum eigenvalue in the overlap matrix is 8.4436165079E-04.
  Using Symmetric Orthogonalization.

  SCF Guess: Orbitals guess was supplied from a previous computation.

  ==> Iterations <==

                           Total Energy        Delta E     RMS |[F,P]|

   @DF-RKS iter   0:  -834.48874088162984   -8.34489e+02   3.41480e-05 
   @DF-RKS iter   1:  -834.48837526831289    3.65613e-04   6.71244e-06 DIIS
   @DF-RKS iter   2:  -834.48837525314809    1.51648e-08   8.84911e-06 DIIS
   @DF-RKS iter   3:  -834.48837531792594   -6.47779e-08   6.63677e-07 DIIS
   @DF-RKS iter   4:  -834.48837531824472   -3.18778e-10   2.58228e-07 DIIS
   @DF-RKS iter   5:  -834.48837531830998   -6.52562e-11   4.08709e-08 DIIS
   @DF-RKS iter   6:  -834.48837531831396   -3.97904e-12   5.94185e-09 DIIS
  Energy and wave function converged.


  ==> Post-Iterations <==

    Orbital Energies [Eh]
    ---------------------

    Doubly Occupied:                                                      

       1B1u  -89.232164     1Ag   -89.232161     2Ag   -10.477917  
       2B1u   -8.148401     3Ag    -8.148382     3B1u   -6.057288  
       4Ag    -6.057286     1B2g   -6.053442     1B3g   -6.053442  
       1B3u   -6.053441     1B2u   -6.053441     5Ag    -0.984401  
       4B1u   -0.889117     6Ag    -0.613958     5B1u   -0.529779  
       2B2u   -0.495978     2B3u   -0.495978     2B2g   -0.356924  
       2B3g   -0.356924  

    Virtual:                                                              

       3B2u    0.005488     3B3u    0.005488     7Ag     0.127487  
       6B1u    0.178715     8Ag     0.276953     7B1u    0.290537  
       9Ag     0.334337     4B2u    0.337903     4B3u    0.337903  
       3B3g    0.356307     3B2g    0.356307     1B1g    0.393799  
      10Ag     0.393800     1Au     0.434024     8B1u    0.434026  
       5B2u    0.465934     5B3u    0.465934     4B2g    0.467924  
       4B3g    0.467924     9B1u    0.637307    11Ag     0.640821  
       6B3u    0.705407     6B2u    0.705407    12Ag     0.823252  
       2B1g    0.823255    10B1u    0.828391    13Ag     0.917256  
      11B1u    1.057721     5B2g    1.211730     5B3g    1.211730  
      14Ag     1.350111    12B1u    1.512956     2Au     1.512962  
      15Ag     1.516001     3B1g    1.516005     6B2g    1.581840  
       6B3g    1.581840    13B1u    1.599639     7B3u    1.618932  
       7B2u    1.618932     3Au     1.661401    14B1u    1.661404  
       8B2u    1.714806     8B3u    1.714806     7B3g    1.725827  
       7B2g    1.725827    16Ag     1.805092     4B1g    1.941392  
      17Ag     1.941395     8B2g    1.967397     8B3g    1.967397  
       9B3u    1.968324     9B2u    1.968324    18Ag     1.973587  
      10B3u    1.990796    10B2u    1.990796    15B1u    2.046344  
      11B2u    2.370438    11B3u    2.370438    16B1u    2.534582  
      12B3u    2.730734    12B2u    2.730734     9B2g    2.765085  
       9B3g    2.765085    19Ag     2.852409    17B1u    2.994814  
       5B1g    3.027483    20Ag     3.027505    18B1u    3.114315  
       4Au     3.114317    10B2g    3.265081    10B3g    3.265081  
      21Ag     3.675422    22Ag     3.747783    13B2u    3.796417  
      13B3u    3.796417    19B1u    4.293765    20B1u    5.128707  
      23Ag     6.768587    21B1u    6.772993     5Au     6.773024  
      24Ag     6.778326     6B1g    6.778357    11B3g    6.815831  
      11B2g    6.815831    14B2u    7.090726    14B3u    7.090726  
      22B1u    8.269619    25Ag     9.248460  

    Final Occupation by Irrep:
             Ag   B1g   B2g   B3g    Au   B1u   B2u   B3u 
    DOCC [     6,    0,    2,    2,    0,    5,    2,    2 ]

  @DF-RKS Final Energy:  -834.48837531831396

   => Energetics <=

    Nuclear Repulsion Energy =            109.3621683387618475
    One-Electron Energy =               -1367.9269858869884047
    Two-Electron Energy =                 467.3595891428947766
    DFT Exchange-Correlation Energy =     -43.4401592254492428
    Empirical Dispersion Energy =           0.0000000000000000
    VV10 Nonlocal Energy =                  0.1570123124669635
    Total Energy =                       -834.4883753183141835

Computation Completed


Properties will be evaluated at   0.000000,   0.000000,   0.000000 [a0]

Properties computed using the SCF density matrix

  Nuclear Dipole Moment: [e a0]
     X:     0.0000      Y:     0.0000      Z:     0.0000

  Electronic Dipole Moment: [e a0]
     X:     0.0000      Y:     0.0000      Z:     0.0000

  Dipole Moment: [e a0]
     X:     0.0000      Y:     0.0000      Z:     0.0000     Total:     0.0000

  Dipole Moment: [D]
     X:     0.0000      Y:     0.0000      Z:     0.0000     Total:     0.0000


*** tstop() called on bp1-compute00145.data.bp.acrc.priv at Tue Apr 27 17:44:30 2021
Module time:
	user time   =      54.27 seconds =       0.90 minutes
	system time =       1.80 seconds =       0.03 minutes
	total time  =          2 seconds =       0.03 minutes
Total time:
	user time   =     341.59 seconds =       5.69 minutes
	system time =      13.57 seconds =       0.23 minutes
	total time  =         15 seconds =       0.25 minutes

  //>>>>>>>>>>>>>>>>>>>>>>>>>>>>>>>>>>>//
  //    Loading displacement 3 of 3    //
  //<<<<<<<<<<<<<<<<<<<<<<<<<<<<<<<<<<<//

*** tstart() called on bp1-compute00145.data.bp.acrc.priv
*** at Tue Apr 27 17:44:30 2021

   => Loading Basis Set <=

    Name: CC-PV(T+D)Z
    Role: ORBITAL
    Keyword: BASIS
    atoms 1   entry C          line   195 file /work/zw18965/.conda/envs/p4env/share/psi4/basis/cc-pv_tpd_z.gbs 
    atoms 2-3 entry S          line   788 file /work/zw18965/.conda/envs/p4env/share/psi4/basis/cc-pv_tpd_z.gbs 


         ---------------------------------------------------------
                                   SCF
               by Justin Turney, Rob Parrish, Andy Simmonett
                          and Daniel G. A. Smith
                              RKS Reference
                       24 Threads, 137329 MiB Core
         ---------------------------------------------------------

  ==> Geometry <==

    Molecular point group: d2h
    Full point group: D_inf_h

    Geometry (in Angstrom), charge = 0, multiplicity = 1:

       Center              X                  Y                   Z               Mass       
    ------------   -----------------  -----------------  -----------------  -----------------
         C            0.000000000000     0.000000000000     0.000000000000    12.000000000000
         S            0.000000000000     0.000000000000     1.549064740904    31.972071174400
         S            0.000000000000     0.000000000000    -1.549064740904    31.972071174400

  Running in d2h symmetry.

  Rotational constants: A = ************  B =      0.10986  C =      0.10986 [cm^-1]
  Rotational constants: A = ************  B =   3293.64885  C =   3293.64885 [MHz]
  Nuclear repulsion =  109.315448827276171

  Charge       = 0
  Multiplicity = 1
  Electrons    = 38
  Nalpha       = 19
  Nbeta        = 19

  ==> Algorithm <==

  SCF Algorithm Type is DF.
  DIIS enabled.
  MOM disabled.
  Fractional occupation disabled.
  Guess Type is READ.
  Energy threshold   = 1.00e-08
  Density threshold  = 1.00e-08
  Integral threshold = 0.00e+00

  ==> Primary Basis <==

  Basis Set: CC-PV(T+D)Z
    Blend: CC-PV(T+D)Z
    Number of shells: 36
    Number of basis function: 108
    Number of Cartesian functions: 125
    Spherical Harmonics?: true
    Max angular momentum: 3

  ==> DFT Potential <==

   => Composite Functional: WB97M-V <= 

    wB97M-V Hyb-GGA Exchange-Correlation Functional

    N. Mardirossian and M. Head-Gordon, J. Chem. Phys. 144, 214110 (2016)

    Deriv               =              1
    GGA                 =           TRUE
    Meta                =           TRUE

    Exchange Hybrid     =           TRUE
    MP2 Hybrid          =          FALSE

   => Exchange-Correlation Functionals <=

    1.0000   wB97M-V exchange-correlation functional

   => Exact (HF) Exchange <=

    0.8500            HF,LR [omega = 0.3000]
    0.1500               HF 

   => VV10 Non-Local Parameters <=

    VV10 B              =     6.0000E+00
    VV10 C              =     1.0000E-02

   => Molecular Quadrature <=

    Radial Scheme          =       TREUTLER
    Pruning Scheme         =           FLAT
    Nuclear Scheme         =       TREUTLER

    BS radius alpha        =              1
    Pruning alpha          =              1
    Radial Points          =             75
    Spherical Points       =            302
    Total Points           =          64536
    Total Blocks           =            566
    Max Points             =            256
    Max Functions          =            108

   => Loading Basis Set <=

    Name: (CC-PV(T+D)Z AUX)
    Role: JKFIT
    Keyword: DF_BASIS_SCF
    atoms 1   entry C          line   125 file /work/zw18965/.conda/envs/p4env/share/psi4/basis/cc-pvtz-jkfit.gbs 
    atoms 2-3 entry S          line   613 file /work/zw18965/.conda/envs/p4env/share/psi4/basis/cc-pvtz-jkfit.gbs 

   => Loading Basis Set <=

    Name: CC-PV(T+D)Z
    Role: ORBITAL
    Keyword: BASIS
    atoms 1   entry C          line   195 file /work/zw18965/.conda/envs/p4env/share/psi4/basis/cc-pv_tpd_z.gbs 
    atoms 2-3 entry S          line   788 file /work/zw18965/.conda/envs/p4env/share/psi4/basis/cc-pv_tpd_z.gbs 

  Reading orbitals from file 180, no projection.

  ==> Pre-Iterations <==

   -------------------------------------------------------
    Irrep   Nso     Nmo     Nalpha   Nbeta   Ndocc  Nsocc
   -------------------------------------------------------
     Ag        25      25       0       0       0       0
     B1g        6       6       0       0       0       0
     B2g       11      11       0       0       0       0
     B3g       11      11       0       0       0       0
     Au         5       5       0       0       0       0
     B1u       22      22       0       0       0       0
     B2u       14      14       0       0       0       0
     B3u       14      14       0       0       0       0
   -------------------------------------------------------
    Total     108     108      19      19      19       0
   -------------------------------------------------------

  ==> Integral Setup <==

  ==> DiskDFJK: Density-Fitted J/K Matrices <==

    J tasked:                  Yes
    K tasked:                  Yes
    wK tasked:                 Yes
    Omega:               3.000E-01
    OpenMP threads:             24
    Integrals threads:          24
    Memory [MiB]:           102535
    Algorithm:                Core
    Integral Cache:           NONE
    Schwarz Cutoff:          1E-12
    Fitting Condition:       1E-10

   => Auxiliary Basis Set <=

  Basis Set: (CC-PV(T+D)Z AUX)
    Blend: CC-PVTZ-JKFIT
    Number of shells: 99
    Number of basis function: 321
    Number of Cartesian functions: 386
    Spherical Harmonics?: true
    Max angular momentum: 4

  Cached 100.0% of DFT collocation blocks in 0.450 [GiB].

  Minimum eigenvalue in the overlap matrix is 8.4643376891E-04.
  Using Symmetric Orthogonalization.

  SCF Guess: Orbitals guess was supplied from a previous computation.

  ==> Iterations <==

                           Total Energy        Delta E     RMS |[F,P]|

   @DF-RKS iter   0:  -834.48800825818876   -8.34488e+02   3.41207e-05 
   @DF-RKS iter   1:  -834.48837370731599   -3.65449e-04   6.71891e-06 DIIS
   @DF-RKS iter   2:  -834.48837369202602    1.52900e-08   8.86211e-06 DIIS
   @DF-RKS iter   3:  -834.48837375702124   -6.49952e-08   6.64454e-07 DIIS
   @DF-RKS iter   4:  -834.48837375734013   -3.18892e-10   2.58374e-07 DIIS
   @DF-RKS iter   5:  -834.48837375740629   -6.61657e-11   4.09389e-08 DIIS
   @DF-RKS iter   6:  -834.48837375741084   -4.54747e-12   5.94765e-09 DIIS
  Energy and wave function converged.


  ==> Post-Iterations <==

    Orbital Energies [Eh]
    ---------------------

    Doubly Occupied:                                                      

       1B1u  -89.232277     1Ag   -89.232275     2Ag   -10.478140  
       2B1u   -8.148479     3Ag    -8.148460     3B1u   -6.057370  
       4Ag    -6.057369     1B3g   -6.053521     1B2g   -6.053521  
       1B2u   -6.053520     1B3u   -6.053520     5Ag    -0.984215  
       4B1u   -0.888998     6Ag    -0.614043     5B1u   -0.529750  
       2B3u   -0.495840     2B2u   -0.495840     2B2g   -0.356939  
       2B3g   -0.356939  

    Virtual:                                                              

       3B2u    0.005356     3B3u    0.005356     7Ag     0.127234  
       6B1u    0.178679     8Ag     0.277000     7B1u    0.290536  
       9Ag     0.334176     4B2u    0.337910     4B3u    0.337910  
       3B3g    0.356314     3B2g    0.356314     1B1g    0.393835  
      10Ag     0.393836     1Au     0.434001     8B1u    0.434002  
       5B3u    0.465848     5B2u    0.465848     4B3g    0.467797  
       4B2g    0.467797     9B1u    0.637014    11Ag     0.640758  
       6B2u    0.705122     6B3u    0.705122    12Ag     0.823089  
       2B1g    0.823093    10B1u    0.828220    13Ag     0.916810  
      11B1u    1.057325     5B3g    1.211580     5B2g    1.211580  
      14Ag     1.349970    12B1u    1.512926     2Au     1.512931  
      15Ag     1.516012     3B1g    1.516015     6B2g    1.581415  
       6B3g    1.581415    13B1u    1.599160     7B3u    1.618746  
       7B2u    1.618746     3Au     1.661313    14B1u    1.661317  
       8B3u    1.714830     8B2u    1.714830     7B2g    1.725819  
       7B3g    1.725819    16Ag     1.805361     4B1g    1.940939  
      17Ag     1.940942     8B3g    1.967435     8B2g    1.967435  
       9B2u    1.968383     9B3u    1.968383    18Ag     1.972990  
      10B3u    1.990356    10B2u    1.990356    15B1u    2.046476  
      11B3u    2.369833    11B2u    2.369833    16B1u    2.533607  
      12B3u    2.730627    12B2u    2.730627     9B3g    2.764528  
       9B2g    2.764528    19Ag     2.850409    17B1u    2.995850  
       5B1g    3.027428    20Ag     3.027450    18B1u    3.113596  
       4Au     3.113598    10B3g    3.264735    10B2g    3.264735  
      21Ag     3.675364    22Ag     3.747590    13B2u    3.795378  
      13B3u    3.795378    19B1u    4.290750    20B1u    5.126284  
      23Ag     6.767408    21B1u    6.772891     5Au     6.772922  
      24Ag     6.778273     6B1g    6.778304    11B2g    6.815465  
      11B3g    6.815465    14B3u    7.089854    14B2u    7.089854  
      22B1u    8.266245    25Ag     9.239491  

    Final Occupation by Irrep:
             Ag   B1g   B2g   B3g    Au   B1u   B2u   B3u 
    DOCC [     6,    0,    2,    2,    0,    5,    2,    2 ]

  @DF-RKS Final Energy:  -834.48837375741084

   => Energetics <=

    Nuclear Repulsion Energy =            109.3154488272761711
    One-Electron Energy =               -1367.8327663900424795
    Two-Electron Energy =                 467.3113868875501566
    DFT Exchange-Correlation Energy =     -43.4394566232629700
    Empirical Dispersion Energy =           0.0000000000000000
    VV10 Nonlocal Energy =                  0.1570135410682675
    Total Energy =                       -834.4883737574108409

Computation Completed


Properties will be evaluated at   0.000000,   0.000000,   0.000000 [a0]

Properties computed using the SCF density matrix

  Nuclear Dipole Moment: [e a0]
     X:     0.0000      Y:     0.0000      Z:     0.0000

  Electronic Dipole Moment: [e a0]
     X:     0.0000      Y:     0.0000      Z:     0.0000

  Dipole Moment: [e a0]
     X:     0.0000      Y:     0.0000      Z:     0.0000     Total:     0.0000

  Dipole Moment: [D]
     X:     0.0000      Y:     0.0000      Z:     0.0000     Total:     0.0000


*** tstop() called on bp1-compute00145.data.bp.acrc.priv at Tue Apr 27 17:44:33 2021
Module time:
	user time   =      51.43 seconds =       0.86 minutes
	system time =       1.41 seconds =       0.02 minutes
	total time  =          3 seconds =       0.05 minutes
Total time:
	user time   =     393.15 seconds =       6.55 minutes
	system time =      14.99 seconds =       0.25 minutes
	total time  =         18 seconds =       0.30 minutes

         ----------------------------------------------------------
                                   FINDIF
                     R. A. King and Jonathon Misiewicz
         ---------------------------------------------------------

  Computing gradient from energies.
    Using 3-point formula.
    Energy without displacement: -834.4883747646
    Check energies below for precision!
    Forces are for mass-weighted, symmetry-adapted cartesians (in au).

     Coord      Energy(-1)        Energy(+1)            Force
        0   -834.4883753183   -834.4883737574      0.0001560903


-------------------------------------------------------------
  ## New Matrix (Symmetry 0) ##
  Irrep: 1 Size: 3 x 3

                 1                   2                   3

    1     0.00000000000000     0.00000000000000     0.00000000000000
    2     0.00000000000000     0.00000000000000     0.00062408872291
    3     0.00000000000000     0.00000000000000    -0.00062408872291




			-----------------------------------------
			 OPTKING 2.0: for geometry optimizations 
			  - R.A. King,  Bethel University        
			-----------------------------------------
	At level 1: Red. Int., RFO, no backsteps, dynamic trust

	Previous internal coordinate definitions found.
	---Fragment 1 Geometry and Gradient---
	 C           0.0000000000        0.0000000000        0.0000000000
	 S           0.0000000000        0.0000000000        2.9266828380
	 S           0.0000000000        0.0000000000       -2.9266828380
	             0.0000000000        0.0000000000        0.0000000000
	             0.0000000000        0.0000000000        0.0006240887
	             0.0000000000        0.0000000000       -0.0006240887

	---Fragment 1 Intrafragment Coordinates---
	 - Coordinate -           - BOHR/RAD -       - ANG/DEG -
	 R(1,2)           =         2.926683	       1.548734
	 R(1,3)           =         2.926683	       1.548734
	 L(2,1,3)         =         3.141593	     180.000000
	 l(2,1,3)         =         3.141593	     180.000000

	Current energy   :      -834.4883747646

	Energy change for the previous step:
		Projected    :        -0.0003415101
		Actual       :        -0.0001826380

	Performing BFGS update.
	Previous computed or guess Hessian on step 1.
	Steps to be used in Hessian update: 1
	Taking RFO optimization step.
	Going to follow RFO solution 1.
	Using RFO vector 1.
	Norm of target step-size    0.00156
	Projected energy change by RFO approximation:        -0.0000013741

	Back-transformation to cartesian coordinates...
	Successfully converged to displaced geometry.

	--- Internal Coordinate Step in ANG or DEG, aJ/ANG or AJ/DEG ---
	 ---------------------------------------------------------------------------
	   Coordinate                Previous        Force       Change         New 
	   ----------                --------       ------       ------       ------
	    1 R(1,2)          =      1.548734    -0.005142    -0.000583     1.548151
	    2 R(1,3)          =      1.548734    -0.005142    -0.000583     1.548151
	    3 L(2,1,3)        =    180.000000     0.000000     0.000000   180.000000
	    4 l(2,1,3)        =    180.000000     0.000000     0.000000   180.000000
	 ---------------------------------------------------------------------------
	Successfully symmetrized geometry.

  ==> Convergence Check <==

  Measures of convergence in internal coordinates in au.
  Criteria marked as inactive (o), active & met (*), and active & unmet ( ).
  ---------------------------------------------------------------------------------------------
   Step     Total Energy     Delta E     MAX Force     RMS Force      MAX Disp      RMS Disp   
  ---------------------------------------------------------------------------------------------
    Convergence Criteria    1.00e-06 *    3.00e-04 *             o    1.20e-03 *             o
  ---------------------------------------------------------------------------------------------
      2    -834.48837476   -1.83e-04      6.24e-04      4.41e-04 o    1.10e-03 *    7.78e-04 o  ~
  ---------------------------------------------------------------------------------------------

	Writing optimization data to binary file.
	Structure for next step:
	Cartesian Geometry (in Angstrom)
	    C     0.0000000000   0.0000000000   0.0000000000
	    S    -0.0000000000  -0.0000000000   1.5481513109
	    S    -0.0000000000  -0.0000000000  -1.5481513109
			--------------------------
			 OPTKING Finished Execution 
			--------------------------

    Structure for next step:
    Molecular point group: d2h
    Full point group: D_inf_h

    Geometry (in Angstrom), charge = 0, multiplicity = 1:

    C            0.000000000000    -0.000000000000     0.000000000000
    S           -0.000000000000     0.000000000000     1.548151317029
    S           -0.000000000000     0.000000000000    -1.548151317029

gradient() will perform gradient computation by finite difference of analytic energies.

         ----------------------------------------------------------
                                   FINDIF
                     R. A. King and Jonathon Misiewicz
         ---------------------------------------------------------

  Using finite-differences of energies to determine gradients.
    Generating geometries for use with 3-point formula.
    Displacement size will be 5.00e-03.
    Number of atoms is 3.
    Number of symmetric SALCs is 1.
    Translations projected? 1. Rotations projected? 1.
    Number of geometries (including reference) is 3.

  //>>>>>>>>>>>>>>>>>>>>>>>>>>>>>>>>>>>//
  //    Loading displacement 1 of 3    //
  //<<<<<<<<<<<<<<<<<<<<<<<<<<<<<<<<<<<//

*** tstart() called on bp1-compute00145.data.bp.acrc.priv
*** at Tue Apr 27 17:44:33 2021

   => Loading Basis Set <=

    Name: CC-PV(T+D)Z
    Role: ORBITAL
    Keyword: BASIS
    atoms 1   entry C          line   195 file /work/zw18965/.conda/envs/p4env/share/psi4/basis/cc-pv_tpd_z.gbs 
[...]

  Nuclear Dipole Moment: [e a0]
     X:     0.0000      Y:     0.0000      Z:     0.0000

  Electronic Dipole Moment: [e a0]
     X:     0.0000      Y:     0.0002      Z:     0.0000

  Dipole Moment: [e a0]
     X:     0.0000      Y:     0.0002      Z:     0.0000     Total:     0.0002

  Dipole Moment: [D]
     X:     0.0000      Y:     0.0006      Z:     0.0000     Total:     0.0006


*** tstop() called on bp1-compute00145.data.bp.acrc.priv at Tue Apr 27 17:45:07 2021
Module time:
	user time   =      77.39 seconds =       1.29 minutes
	system time =       1.88 seconds =       0.03 minutes
	total time  =          4 seconds =       0.07 minutes
Total time:
	user time   =    1169.33 seconds =      19.49 minutes
	system time =      35.29 seconds =       0.59 minutes
	total time  =         52 seconds =       0.87 minutes

  //>>>>>>>>>>>>>>>>>>>>>>>>>>>>>>>>>>>//
  //    Loading displacement 6 of 6    //
  //<<<<<<<<<<<<<<<<<<<<<<<<<<<<<<<<<<<//

*** tstart() called on bp1-compute00145.data.bp.acrc.priv
*** at Tue Apr 27 17:45:07 2021

   => Loading Basis Set <=

    Name: CC-PV(T+D)Z
    Role: ORBITAL
    Keyword: BASIS
    atoms 1   entry C          line   195 file /work/zw18965/.conda/envs/p4env/share/psi4/basis/cc-pv_tpd_z.gbs 
    atoms 2-3 entry S          line   788 file /work/zw18965/.conda/envs/p4env/share/psi4/basis/cc-pv_tpd_z.gbs 


         ---------------------------------------------------------
                                   SCF
               by Justin Turney, Rob Parrish, Andy Simmonett
                          and Daniel G. A. Smith
                              RKS Reference
                       24 Threads, 137329 MiB Core
         ---------------------------------------------------------

  ==> Geometry <==

    Molecular point group: c2v
    Full point group: C2v

    Geometry (in Angstrom), charge = 0, multiplicity = 1:

       Center              X                  Y                   Z               Mass       
    ------------   -----------------  -----------------  -----------------  -----------------
         C           -0.000700864006     0.000000000000     0.000000000000    12.000000000000
         S            0.000131526794     0.000000000000     1.548151317029    31.972071174400
         S            0.000131526794     0.000000000000    -1.548151317029    31.972071174400

  Running in c2v symmetry.

  Rotational constants: A = 2407987.46702  B =      0.10999  C =      0.10999 [cm^-1]
  Rotational constants: A = 72189648157.17372  B =   3297.53656  C =   3297.53641 [MHz]
  Nuclear repulsion =  109.379936486758595

  Charge       = 0
  Multiplicity = 1
  Electrons    = 38
  Nalpha       = 19
  Nbeta        = 19

  ==> Algorithm <==

  SCF Algorithm Type is DF.
  DIIS enabled.
  MOM disabled.
  Fractional occupation disabled.
  Guess Type is SAD.
  Energy threshold   = 1.00e-10
  Density threshold  = 1.00e-10
  Integral threshold = 0.00e+00

  ==> Primary Basis <==

  Basis Set: CC-PV(T+D)Z
    Blend: CC-PV(T+D)Z
    Number of shells: 36
    Number of basis function: 108
    Number of Cartesian functions: 125
    Spherical Harmonics?: true
    Max angular momentum: 3

  ==> DFT Potential <==

   => Composite Functional: WB97M-V <= 

    wB97M-V Hyb-GGA Exchange-Correlation Functional

    N. Mardirossian and M. Head-Gordon, J. Chem. Phys. 144, 214110 (2016)

    Deriv               =              1
    GGA                 =           TRUE
    Meta                =           TRUE

    Exchange Hybrid     =           TRUE
    MP2 Hybrid          =          FALSE

   => Exchange-Correlation Functionals <=

    1.0000   wB97M-V exchange-correlation functional

   => Exact (HF) Exchange <=

    0.8500            HF,LR [omega = 0.3000]
    0.1500               HF 

   => VV10 Non-Local Parameters <=

    VV10 B              =     6.0000E+00
    VV10 C              =     1.0000E-02

   => Molecular Quadrature <=

    Radial Scheme          =       TREUTLER
    Pruning Scheme         =           FLAT
    Nuclear Scheme         =       TREUTLER

    BS radius alpha        =              1
    Pruning alpha          =              1
    Radial Points          =             75
    Spherical Points       =            302
    Total Points           =          64536
    Total Blocks           =            570
    Max Points             =            256
    Max Functions          =            108

   => Loading Basis Set <=

    Name: (CC-PV(T+D)Z AUX)
    Role: JKFIT
    Keyword: DF_BASIS_SCF
    atoms 1   entry C          line   125 file /work/zw18965/.conda/envs/p4env/share/psi4/basis/cc-pvtz-jkfit.gbs 
    atoms 2-3 entry S          line   613 file /work/zw18965/.conda/envs/p4env/share/psi4/basis/cc-pvtz-jkfit.gbs 

  ==> Pre-Iterations <==

   -------------------------------------------------------
    Irrep   Nso     Nmo     Nalpha   Nbeta   Ndocc  Nsocc
   -------------------------------------------------------
     A1        39      39       0       0       0       0
     A2        16      16       0       0       0       0
     B1        20      20       0       0       0       0
     B2        33      33       0       0       0       0
   -------------------------------------------------------
    Total     108     108      19      19      19       0
   -------------------------------------------------------

  ==> Integral Setup <==

  ==> DiskDFJK: Density-Fitted J/K Matrices <==

    J tasked:                  Yes
    K tasked:                  Yes
    wK tasked:                 Yes
    Omega:               3.000E-01
    OpenMP threads:             24
    Integrals threads:          24
    Memory [MiB]:           102535
    Algorithm:                Core
    Integral Cache:           NONE
    Schwarz Cutoff:          1E-12
    Fitting Condition:       1E-10

   => Auxiliary Basis Set <=

  Basis Set: (CC-PV(T+D)Z AUX)
    Blend: CC-PVTZ-JKFIT
    Number of shells: 99
    Number of basis function: 321
    Number of Cartesian functions: 386
    Spherical Harmonics?: true
    Max angular momentum: 4

  Cached 100.0% of DFT collocation blocks in 0.451 [GiB].

  Minimum eigenvalue in the overlap matrix is 8.4357740349E-04.
  Using Symmetric Orthogonalization.

  SCF Guess: Superposition of Atomic Densities via on-the-fly atomic UHF.

  ==> Iterations <==

                           Total Energy        Delta E     RMS |[F,P]|

   @DF-RKS iter SAD:  -834.14600973921802   -8.34146e+02   0.00000e+00 
   @DF-RKS iter   1:  -834.46132888322313   -3.15319e-01   4.90655e-03 DIIS
   @DF-RKS iter   2:  -834.48247173000379   -2.11428e-02   2.19657e-03 DIIS
   @DF-RKS iter   3:  -834.48723082456013   -4.75909e-03   8.15909e-04 DIIS
   @DF-RKS iter   4:  -834.48828108578221   -1.05026e-03   2.05501e-04 DIIS
   @DF-RKS iter   5:  -834.48837222337420   -9.11376e-05   3.43347e-05 DIIS
   @DF-RKS iter   6:  -834.48837500723857   -2.78386e-06   1.19741e-05 DIIS
   @DF-RKS iter   7:  -834.48837534935944   -3.42121e-07   9.35107e-07 DIIS
   @DF-RKS iter   8:  -834.48837535216796   -2.80852e-09   1.20055e-07 DIIS
   @DF-RKS iter   9:  -834.48837535220116   -3.31966e-11   1.07399e-08 DIIS
   @DF-RKS iter  10:  -834.48837535220116    0.00000e+00   4.59557e-09 DIIS
   @DF-RKS iter  11:  -834.48837535220150   -3.41061e-13   4.11329e-10 DIIS
   @DF-RKS iter  12:  -834.48837535220139    1.13687e-13   4.51539e-11 DIIS
  Energy and wave function converged.


  ==> Post-Iterations <==

    Orbital Energies [Eh]
    ---------------------

    Doubly Occupied:                                                      

       1B2   -89.232120     1A1   -89.232118     2A1   -10.477832  
       2B2    -8.148371     3A1    -8.148352     3B2    -6.057256  
       4A1    -6.057255     1A2    -6.053412     4B2    -6.053412  
       1B1    -6.053411     5A1    -6.053411     6A1    -0.984472  
       5B2    -0.889162     7A1    -0.613925     6B2    -0.529790  
       8A1    -0.496030     2B1    -0.496030     2A2    -0.356917  
       7B2    -0.356917  

    Virtual:                                                              

       9A1     0.005538     3B1     0.005538    10A1     0.127583  
       8B2     0.178729    11A1     0.276936     9B2     0.290537  
      12A1     0.334398     4B1     0.337900    13A1     0.337900  
      10B2     0.356305     3A2     0.356305     5B1     0.393786  
      14A1     0.393787     4A2     0.434033    11B2     0.434035  
      15A1     0.465967     6B1     0.465967    12B2     0.467972  
       5A2     0.467972    13B2     0.637419    16A1     0.640844  
       7B1     0.705514    17A1     0.705515    18A1     0.823314  
       8B1     0.823317    14B2     0.828456    19A1     0.917425  
      15B2     1.057871    16B2     1.211786     6A2     1.211786  
      20A1     1.350164    17B2     1.512968     7A2     1.512973  
      21A1     1.515997     9B1     1.516001    18B2     1.582000  
       8A2     1.582002    19B2     1.599824    10B1     1.619002  
      22A1     1.619002     9A2     1.661434    20B2     1.661438  
      11B1     1.714797    23A1     1.714797    21B2     1.725830  
      10A2     1.725830    24A1     1.804991    12B1     1.941565  
      25A1     1.941567    22B2     1.967383    11A2     1.967383  
      13B1     1.968302    26A1     1.968302    27A1     1.973814  
      14B1     1.990963    28A1     1.990964    23B2     2.046293  
      15B1     2.370668    29A1     2.370668    24B2     2.534951  
      16B1     2.730775    30A1     2.730775    12A2     2.765294  
      25B2     2.765295    31A1     2.853170    26B2     2.994419  
      17B1     3.027505    32A1     3.027526    27B2     3.114590  
      13A2     3.114592    14A2     3.265214    28B2     3.265214  
      33A1     3.675442    34A1     3.747856    18B1     3.796811  
      35A1     3.796814    29B2     4.294910    30B2     5.129628  
      36A1     6.769035    31B2     6.773031    15A2     6.773062  
      37A1     6.778346    19B1     6.778377    16A2     6.815970  
      32B2     6.815971    38A1     7.091057    20B1     7.091058  
      33B2     8.270900    39A1     9.251873  

    Final Occupation by Irrep:
             A1    A2    B1    B2 
    DOCC [     8,    2,    2,    7 ]

  @DF-RKS Final Energy:  -834.48837535220139

   => Energetics <=

    Nuclear Repulsion Energy =            109.3799364867585950
    One-Electron Energy =               -1367.9628200210891009
    Two-Electron Energy =                 467.3779228640336783
    DFT Exchange-Correlation Energy =     -43.4404265269792376
    Empirical Dispersion Energy =           0.0000000000000000
    VV10 Nonlocal Energy =                  0.1570118450746244
    Total Energy =                       -834.4883753522012739

Computation Completed


Properties will be evaluated at   0.000000,   0.000000,   0.000000 [a0]

Properties computed using the SCF density matrix

  Nuclear Dipole Moment: [e a0]
     X:     0.0000      Y:     0.0000      Z:     0.0000

  Electronic Dipole Moment: [e a0]
     X:     0.0002      Y:     0.0000      Z:     0.0000

  Dipole Moment: [e a0]
     X:     0.0002      Y:     0.0000      Z:     0.0000     Total:     0.0002

  Dipole Moment: [D]
     X:     0.0006      Y:     0.0000      Z:     0.0000     Total:     0.0006


*** tstop() called on bp1-compute00145.data.bp.acrc.priv at Tue Apr 27 17:45:10 2021
Module time:
	user time   =      76.92 seconds =       1.28 minutes
	system time =       1.97 seconds =       0.03 minutes
	total time  =          3 seconds =       0.05 minutes
Total time:
	user time   =    1246.39 seconds =      20.77 minutes
	system time =      37.27 seconds =       0.62 minutes
	total time  =         55 seconds =       0.92 minutes

         ----------------------------------------------------------
                                   FINDIF
                     R. A. King and Jonathon Misiewicz
         ---------------------------------------------------------

  Computing second-derivative from energies using projected, 
  symmetry-adapted, cartesian coordinates.

  6 energies passed in, including the reference geometry.
    Using 3-point formula.
    Energy without displacement: -834.4883754334
    Check energies below for precision!
    0: -1 :      -834.4883751862
    0: 1  :      -834.4883752265
    1: -1 :      -834.4883742597
    2: -1 :      -834.4883753518
    3: -1 :      -834.4883753522

-------------------------------------------------------------


  ==> Harmonic Vibrational Analysis <==

  non-mass-weighted Hessian:       Symmetric? True   Hermitian? True   Lin Dep Dim?  5 (0)
  projection of translations (True) and rotations (True) removed 5 degrees of freedom (5)
  total projector:                 Symmetric? True   Hermitian? True   Lin Dep Dim?  5 (5)
  mass-weighted Hessian:           Symmetric? True   Hermitian? True   Lin Dep Dim?  5 (0)
  pre-proj  low-frequency mode:    0.0000i [cm^-1]
  pre-proj  low-frequency mode:    0.0000i [cm^-1]
  pre-proj  low-frequency mode:    0.0000i [cm^-1]
  pre-proj  low-frequency mode:    0.0000i [cm^-1]
  pre-proj  low-frequency mode:    0.0000  [cm^-1]
  pre-proj  all modes:['0.0000i' '0.0000i' '0.0000i' '0.0000i' '0.0000' '414.1897' '415.1492'
 '692.7542' '1575.1310']
  projected mass-weighted Hessian: Symmetric? True   Hermitian? True   Lin Dep Dim?  5 (5)
  post-proj low-frequency mode:    0.0000i [cm^-1] (TR)
  post-proj low-frequency mode:    0.0000i [cm^-1] (TR)
  post-proj low-frequency mode:    0.0000i [cm^-1] (TR)
  post-proj low-frequency mode:    0.0000  [cm^-1] (TR)
  post-proj low-frequency mode:    0.0000  [cm^-1] (TR)
  post-proj  all modes:['0.0000i' '0.0000i' '0.0000i' '0.0000' '0.0000' '414.1897' '415.1492'
 '692.7542' '1575.1310']

  Vibration                       6                   7                   8           
  Freq [cm^-1]                 414.1897            415.1492            692.7542       
  Irrep                          B3u                 B2u                  Ag          
  Reduced mass [u]             13.3142             13.3142             31.9721        
  Force const [mDyne/A]         1.3457              1.3520              9.0402        
  Turning point v=0 [a0]        0.1478              0.1476              0.0737        
  RMS dev v=0 [a0 u^1/2]        0.3812              0.3808              0.2948        
  Char temp [K]                595.9268            597.3073            996.7190       
  ----------------------------------------------------------------------------------
      1   C                0.97 -0.00 -0.00    0.00  0.97 -0.00    0.00 -0.00 -0.00   
      2   S               -0.18 -0.00  0.00    0.00 -0.18  0.00   -0.00 -0.00  0.71   
      3   S               -0.18  0.00  0.00   -0.00 -0.18  0.00    0.00 -0.00 -0.71   

  Vibration                       9           
  Freq [cm^-1]                1575.1310       
  Irrep                          B1u          
  Reduced mass [u]             13.3142        
  Force const [mDyne/A]        19.4625        
  Turning point v=0 [a0]        0.0758        
  RMS dev v=0 [a0 u^1/2]        0.1955        
  Char temp [K]               2266.2629       
  ----------------------------------------------------------------------------------
      1   C               -0.00  0.00  0.97   
      2   S                0.00  0.00 -0.18   
      3   S               -0.00 -0.00 -0.18   

  ==> Thermochemistry Components <==

  Entropy, S
    Electronic S            0.000 [cal/(mol K)]        0.000 [J/(mol K)]       0.00000000 [mEh/K] (multiplicity = 1)
    Translational S        38.898 [cal/(mol K)]      162.748 [J/(mol K)]       0.06198752 [mEh/K] (mol. weight = 75.9441 [u], P = 101325.00 [Pa])
    Rotational S           15.596 [cal/(mol K)]       65.252 [J/(mol K)]       0.02485308 [mEh/K] (symmetry no. = 2)
    Vibrational S           2.144 [cal/(mol K)]        8.970 [J/(mol K)]       0.00341647 [mEh/K]
  Total S                  56.637 [cal/(mol K)]      236.970 [J/(mol K)]       0.09025707 [mEh/K]
  Correction S              0.000 [cal/(mol K)]        0.000 [J/(mol K)]       0.00000000 [mEh/K]

  Constant volume heat capacity, Cv
    Electronic Cv           0.000 [cal/(mol K)]        0.000 [J/(mol K)]       0.00000000 [mEh/K]
    Translational Cv        2.981 [cal/(mol K)]       12.472 [J/(mol K)]       0.00475022 [mEh/K]
    Rotational Cv           1.987 [cal/(mol K)]        8.314 [J/(mol K)]       0.00316681 [mEh/K]
    Vibrational Cv          3.777 [cal/(mol K)]       15.805 [J/(mol K)]       0.00601962 [mEh/K]
  Total Cv                  8.745 [cal/(mol K)]       36.591 [J/(mol K)]       0.01393665 [mEh/K]
  Correction Cv             0.000 [cal/(mol K)]        0.000 [J/(mol K)]       0.00000000 [mEh/K]

  Constant pressure heat capacity, Cp
    Electronic Cp           0.000 [cal/(mol K)]        0.000 [J/(mol K)]       0.00000000 [mEh/K]
    Translational Cp        4.968 [cal/(mol K)]       20.786 [J/(mol K)]       0.00791703 [mEh/K]
    Rotational Cp           1.987 [cal/(mol K)]        8.314 [J/(mol K)]       0.00316681 [mEh/K]
    Vibrational Cp          3.777 [cal/(mol K)]       15.805 [J/(mol K)]       0.00601962 [mEh/K]
  Total Cp                 10.733 [cal/(mol K)]       44.905 [J/(mol K)]       0.01710346 [mEh/K]
  Correction Cp             0.000 [cal/(mol K)]        0.000 [J/(mol K)]       0.00000000 [mEh/K]

  ==> Thermochemistry Energy Analysis <==

  Raw electronic energy, E0
  Total E0, Electronic energy at well bottom at 0 [K]                 -834.48837543 [Eh]

  Zero-point energy, ZPE_vib = Sum_i nu_i / 2
    Electronic ZPE          0.000 [kcal/mol]        0.000 [kJ/mol]       0.00000000 [Eh]
    Translational ZPE       0.000 [kcal/mol]        0.000 [kJ/mol]       0.00000000 [Eh]
    Rotational ZPE          0.000 [kcal/mol]        0.000 [kJ/mol]       0.00000000 [Eh]
    Vibrational ZPE         4.428 [kcal/mol]       18.526 [kJ/mol]       0.00705600 [Eh]        1548.612 [cm^-1]
  Correction ZPE            4.428 [kcal/mol]       18.526 [kJ/mol]       0.00705600 [Eh]        1548.612 [cm^-1]
  Total ZPE, Electronic energy at 0 [K]                               -834.48131944 [Eh]

  Thermal Energy, E (includes ZPE)
    Electronic E            0.000 [kcal/mol]        0.000 [kJ/mol]       0.00000000 [Eh]
    Translational E         0.889 [kcal/mol]        3.718 [kJ/mol]       0.00141628 [Eh]
    Rotational E            0.592 [kcal/mol]        2.479 [kJ/mol]       0.00094418 [Eh]
    Vibrational E           4.873 [kcal/mol]       20.389 [kJ/mol]       0.00776590 [Eh]
  Correction E              6.354 [kcal/mol]       26.587 [kJ/mol]       0.01012636 [Eh]
  Total E, Electronic energy at  298.15 [K]                           -834.47824907 [Eh]

  Enthalpy, H_trans = E_trans + k_B * T
    Electronic H            0.000 [kcal/mol]        0.000 [kJ/mol]       0.00000000 [Eh]
    Translational H         1.481 [kcal/mol]        6.197 [kJ/mol]       0.00236046 [Eh]
    Rotational H            0.592 [kcal/mol]        2.479 [kJ/mol]       0.00094418 [Eh]
    Vibrational H           4.873 [kcal/mol]       20.389 [kJ/mol]       0.00776590 [Eh]
  Correction H              6.947 [kcal/mol]       29.066 [kJ/mol]       0.01107055 [Eh]
  Total H, Enthalpy at  298.15 [K]                                    -834.47730489 [Eh]

  Gibbs free energy, G = H - T * S
    Electronic G            0.000 [kcal/mol]        0.000 [kJ/mol]       0.00000000 [Eh]
    Translational G       -10.116 [kcal/mol]      -42.326 [kJ/mol]      -0.01612112 [Eh]
    Rotational G           -4.057 [kcal/mol]      -16.976 [kJ/mol]      -0.00646576 [Eh]
    Vibrational G           4.234 [kcal/mol]       17.715 [kJ/mol]       0.00674728 [Eh]
  Correction G             -9.939 [kcal/mol]      -41.587 [kJ/mol]      -0.01583960 [Eh]
  Total G, Free enthalpy at  298.15 [K]                               -834.50421503 [Eh]

    Psi4 stopped on: Tuesday, 27 April 2021 05:45PM
    Psi4 wall time for execution: 0:00:55.89

*** Psi4 exiting successfully. Buy a developer a beer!
