
    -----------------------------------------------------------------------
          Psi4: An Open-Source Ab Initio Electronic Structure Package
                               Psi4 1.3.2 release

                         Git: Rev {HEAD} ecbda83 


    R. M. Parrish, L. A. Burns, D. G. A. Smith, A. C. Simmonett,
    A. E. DePrince III, E. G. Hohenstein, U. Bozkaya, A. Yu. Sokolov,
    R. Di Remigio, R. M. Richard, J. F. Gonthier, A. M. James,
    H. R. McAlexander, A. Kumar, M. Saitow, X. Wang, B. P. Pritchard,
    P. Verma, H. F. Schaefer III, K. Patkowski, R. A. King, E. F. Valeev,
    F. A. Evangelista, J. M. Turney, T. D. Crawford, and C. D. Sherrill,
    J. Chem. Theory Comput. 13(7) pp 3185--3197 (2017).
    (doi: 10.1021/acs.jctc.7b00174)


                         Additional Contributions by
    P. Kraus, H. Kruse, M. H. Lechner, M. C. Schieber, R. A. Shaw,
    A. Alenaizan, R. Galvelis, Z. L. Glick, S. Lehtola, and J. P. Misiewicz

    -----------------------------------------------------------------------


    Psi4 started on: Tuesday, 27 April 2021 05:43PM

    Process ID: 172503
    Host:       bp1-compute00139.data.bp.acrc.priv
    PSIDATADIR: /work/zw18965/.conda/envs/p4env/share/psi4
    Memory:     500.0 MiB
    Threads:    24
    
  ==> Input File <==

--------------------------------------------------------------------------
memory 144 GB

molecule {
0 1
C 0.0000000000 0.0000000000 0.0000000000
S 0.0000000000 0.0000000000 1.5415329200
}

set dynamic_level 1
set basis cc-pV(T+d)Z
 
optimize("wB97M-V")
frequencies("wB97M-V")
--------------------------------------------------------------------------

  Memory set to 134.110 GiB by Python driver.
gradient() will perform gradient computation by finite difference of analytic energies.

         ----------------------------------------------------------
                                   FINDIF
                     R. A. King and Jonathon Misiewicz
         ---------------------------------------------------------

  Using finite-differences of energies to determine gradients.
    Generating geometries for use with 3-point formula.
    Displacement size will be 5.00e-03.
    Number of atoms is 2.
    Number of symmetric SALCs is 1.
    Translations projected? 1. Rotations projected? 1.
    Number of geometries (including reference) is 3.

  //>>>>>>>>>>>>>>>>>>>>>>>>>>>>>>>>>>>//
  //    Loading displacement 1 of 3    //
  //<<<<<<<<<<<<<<<<<<<<<<<<<<<<<<<<<<<//

*** tstart() called on bp1-compute00139.data.bp.acrc.priv
*** at Tue Apr 27 17:43:29 2021

   => Loading Basis Set <=

    Name: CC-PV(T+D)Z
    Role: ORBITAL
    Keyword: BASIS
    atoms 1 entry C          line   195 file /work/zw18965/.conda/envs/p4env/share/psi4/basis/cc-pv_tpd_z.gbs 
    atoms 2 entry S          line   788 file /work/zw18965/.conda/envs/p4env/share/psi4/basis/cc-pv_tpd_z.gbs 


         ---------------------------------------------------------
                                   SCF
               by Justin Turney, Rob Parrish, Andy Simmonett
                          and Daniel G. A. Smith
                              RKS Reference
                       24 Threads, 137329 MiB Core
         ---------------------------------------------------------

  ==> Geometry <==

    Molecular point group: c2v
    Full point group: C_inf_v

    Geometry (in Angstrom), charge = 0, multiplicity = 1:

       Center              X                  Y                   Z               Mass       
    ------------   -----------------  -----------------  -----------------  -----------------
         C            0.000000000000     0.000000000000    -1.120847822711    12.000000000000
         S            0.000000000000     0.000000000000     0.420685097289    31.972071174400

  Running in c2v symmetry.

  Rotational constants: A = ************  B =      0.81305  C =      0.81305 [cm^-1]
  Rotational constants: A = ************  B =  24374.54386  C =  24374.54386 [MHz]
  Nuclear repulsion =   32.954866915407813

  Charge       = 0
  Multiplicity = 1
  Electrons    = 22
  Nalpha       = 11
  Nbeta        = 11

  ==> Algorithm <==

  SCF Algorithm Type is DF.
  DIIS enabled.
  MOM disabled.
  Fractional occupation disabled.
  Guess Type is SAD.
  Energy threshold   = 1.00e-08
  Density threshold  = 1.00e-08
  Integral threshold = 0.00e+00

  ==> Primary Basis <==

  Basis Set: CC-PV(T+D)Z
    Blend: CC-PV(T+D)Z
    Number of shells: 23
    Number of basis function: 69
    Number of Cartesian functions: 80
    Spherical Harmonics?: true
    Max angular momentum: 3

  ==> DFT Potential <==

   => Composite Functional: WB97M-V <= 

    wB97M-V Hyb-GGA Exchange-Correlation Functional

    N. Mardirossian and M. Head-Gordon, J. Chem. Phys. 144, 214110 (2016)

    Deriv               =              1
    GGA                 =           TRUE
    Meta                =           TRUE

    Exchange Hybrid     =           TRUE
    MP2 Hybrid          =          FALSE

   => Exchange-Correlation Functionals <=

    1.0000   wB97M-V exchange-correlation functional

   => Exact (HF) Exchange <=

    0.8500            HF,LR [omega = 0.3000]
    0.1500               HF 

   => VV10 Non-Local Parameters <=

    VV10 B              =     6.0000E+00
    VV10 C              =     1.0000E-02

   => Molecular Quadrature <=

    Radial Scheme          =       TREUTLER
    Pruning Scheme         =           FLAT
    Nuclear Scheme         =       TREUTLER

    BS radius alpha        =              1
    Pruning alpha          =              1
    Radial Points          =             75
    Spherical Points       =            302
    Total Points           =          43067
    Total Blocks           =            394
    Max Points             =            256
    Max Functions          =             69

   => Loading Basis Set <=

    Name: (CC-PV(T+D)Z AUX)
    Role: JKFIT
    Keyword: DF_BASIS_SCF
    atoms 1 entry C          line   125 file /work/zw18965/.conda/envs/p4env/share/psi4/basis/cc-pvtz-jkfit.gbs 
    atoms 2 entry S          line   613 file /work/zw18965/.conda/envs/p4env/share/psi4/basis/cc-pvtz-jkfit.gbs 

  ==> Pre-Iterations <==

   -------------------------------------------------------
    Irrep   Nso     Nmo     Nalpha   Nbeta   Ndocc  Nsocc
   -------------------------------------------------------
     A1        30      30       0       0       0       0
     A2         7       7       0       0       0       0
     B1        16      16       0       0       0       0
     B2        16      16       0       0       0       0
   -------------------------------------------------------
    Total      69      69      11      11      11       0
   -------------------------------------------------------

  ==> Integral Setup <==

  ==> DiskDFJK: Density-Fitted J/K Matrices <==

    J tasked:                  Yes
    K tasked:                  Yes
    wK tasked:                 Yes
    Omega:               3.000E-01
    OpenMP threads:             24
    Integrals threads:          24
    Memory [MiB]:           102788
    Algorithm:                Core
    Integral Cache:           NONE
    Schwarz Cutoff:          1E-12
    Fitting Condition:       1E-10

   => Auxiliary Basis Set <=

  Basis Set: (CC-PV(T+D)Z AUX)
    Blend: CC-PVTZ-JKFIT
    Number of shells: 62
    Number of basis function: 200
    Number of Cartesian functions: 241
    Spherical Harmonics?: true
    Max angular momentum: 4

  Cached 100.0% of DFT collocation blocks in 0.204 [GiB].

  Minimum eigenvalue in the overlap matrix is 1.7228561448E-03.
  Using Symmetric Orthogonalization.

  SCF Guess: Superposition of Atomic Densities via on-the-fly atomic UHF.

  ==> Iterations <==

                           Total Energy        Delta E     RMS |[F,P]|

   @DF-RKS iter SAD:  -435.65110227476066   -4.35651e+02   0.00000e+00 
   @DF-RKS iter   1:  -436.17516097927125   -5.24059e-01   7.47619e-03 DIIS
   @DF-RKS iter   2:  -436.16628723611478    8.87374e-03   7.86558e-03 DIIS
   @DF-RKS iter   3:  -436.21465198489341   -4.83647e-02   1.40317e-03 DIIS
   @DF-RKS iter   4:  -436.21593424199847   -1.28226e-03   2.12025e-04 DIIS
   @DF-RKS iter   5:  -436.21598567940538   -5.14374e-05   6.18538e-05 DIIS
   @DF-RKS iter   6:  -436.21598973487818   -4.05547e-06   2.43723e-05 DIIS
   @DF-RKS iter   7:  -436.21599065803923   -9.23161e-07   2.80797e-06 DIIS
   @DF-RKS iter   8:  -436.21599068216881   -2.41296e-08   3.52499e-07 DIIS
   @DF-RKS iter   9:  -436.21599068244575   -2.76941e-10   5.18588e-08 DIIS
   @DF-RKS iter  10:  -436.21599068245126   -5.51381e-12   7.90935e-09 DIIS
  Energy and wave function converged.


  ==> Post-Iterations <==

    Orbital Energies [Eh]
    ---------------------

    Doubly Occupied:                                                      

       1A1   -89.249280     2A1   -10.446693     3A1    -8.167650  
       1B2    -6.074085     1B1    -6.074085     4A1    -6.073266  
       5A1    -0.952495     6A1    -0.628516     2B2    -0.447219  
       2B1    -0.447219     7A1    -0.412413  

    Virtual:                                                              

       3B2     0.001647     3B1     0.001647     8A1     0.154475  
       9A1     0.292263     4B2     0.333113     4B1     0.333113  
      10A1     0.380540     1A2     0.393892    11A1     0.393893  
       5B1     0.435960     5B2     0.435960    12A1     0.465002  
       6B2     0.513042     6B1     0.513042    13A1     0.675781  
       2A2     0.809701    14A1     0.809701    15A1     0.952914  
       7B1     1.091039     7B2     1.091039    16A1     1.179658  
      17A1     1.493806     3A2     1.493811     8B2     1.504696  
       8B1     1.504696    18A1     1.648680     9B2     1.696115  
       9B1     1.696115     4A2     1.753908    19A1     1.753911  
      20A1     1.849089    10B2     1.931923    10B1     1.931923  
      11B2     2.004727    11B1     2.004727    12B1     2.317404  
      12B2     2.317404    21A1     2.515371    22A1     2.552463  
      13B1     2.755990    13B2     2.755990    23A1     2.939279  
       5A2     2.939279     6A2     3.091173    24A1     3.091185  
      14B1     3.190354    14B2     3.190354    25A1     3.306107  
      26A1     3.517290    15B1     3.581959    15B2     3.581959  
      27A1     3.886795    28A1     6.331068    29A1     6.749173  
       7A2     6.749204    16B2     6.898077    16B1     6.898077  
      30A1     8.517174  

    Final Occupation by Irrep:
             A1    A2    B1    B2 
    DOCC [     7,    0,    2,    2 ]

  @DF-RKS Final Energy:  -436.21599068245126

   => Energetics <=

    Nuclear Repulsion Energy =             32.9548669154078127
    One-Electron Energy =                -665.6429967094205722
    Two-Electron Energy =                 219.9383098574646169
    DFT Exchange-Correlation Energy =     -23.5582330500306867
    Empirical Dispersion Energy =           0.0000000000000000
    VV10 Nonlocal Energy =                  0.0920623041275194
    Total Energy =                       -436.2159906824513200

Computation Completed


Properties will be evaluated at   0.000000,   0.000000,   0.000000 [a0]

Properties computed using the SCF density matrix

  Nuclear Dipole Moment: [e a0]
     X:     0.0000      Y:     0.0000      Z:     0.0111

  Electronic Dipole Moment: [e a0]
     X:     0.0000      Y:     0.0000      Z:     0.7226

  Dipole Moment: [e a0]
     X:     0.0000      Y:     0.0000      Z:     0.7337     Total:     0.7337

  Dipole Moment: [D]
     X:     0.0000      Y:     0.0000      Z:     1.8648     Total:     1.8648


*** tstop() called on bp1-compute00139.data.bp.acrc.priv at Tue Apr 27 17:43:32 2021
Module time:
	user time   =      55.21 seconds =       0.92 minutes
	system time =       2.55 seconds =       0.04 minutes
	total time  =          3 seconds =       0.05 minutes
Total time:
	user time   =      55.21 seconds =       0.92 minutes
	system time =       2.55 seconds =       0.04 minutes
	total time  =          3 seconds =       0.05 minutes

  //>>>>>>>>>>>>>>>>>>>>>>>>>>>>>>>>>>>//
  //    Loading displacement 2 of 3    //
  //<<<<<<<<<<<<<<<<<<<<<<<<<<<<<<<<<<<//

*** tstart() called on bp1-compute00139.data.bp.acrc.priv
*** at Tue Apr 27 17:43:32 2021

   => Loading Basis Set <=

    Name: CC-PV(T+D)Z
    Role: ORBITAL
    Keyword: BASIS
    atoms 1 entry C          line   195 file /work/zw18965/.conda/envs/p4env/share/psi4/basis/cc-pv_tpd_z.gbs 
    atoms 2 entry S          line   788 file /work/zw18965/.conda/envs/p4env/share/psi4/basis/cc-pv_tpd_z.gbs 


         ---------------------------------------------------------
                                   SCF
               by Justin Turney, Rob Parrish, Andy Simmonett
                          and Daniel G. A. Smith
                              RKS Reference
                       24 Threads, 137329 MiB Core
         ---------------------------------------------------------

  ==> Geometry <==

    Molecular point group: c2v
    Full point group: C_inf_v

    Geometry (in Angstrom), charge = 0, multiplicity = 1:

       Center              X                  Y                   Z               Mass       
    ------------   -----------------  -----------------  -----------------  -----------------
         C            0.000000000000     0.000000000000    -1.121499117253    12.000000000000
         S            0.000000000000     0.000000000000     0.420929546091    31.972071174400

  Running in c2v symmetry.

  Rotational constants: A = ************  B =      0.81210  C =      0.81210 [cm^-1]
  Rotational constants: A = ************  B =  24346.24174  C =  24346.24174 [MHz]
  Nuclear repulsion =   32.935728848677002

  Charge       = 0
  Multiplicity = 1
  Electrons    = 22
  Nalpha       = 11
  Nbeta        = 11

  ==> Algorithm <==

  SCF Algorithm Type is DF.
  DIIS enabled.
  MOM disabled.
  Fractional occupation disabled.
  Guess Type is SAD.
  Energy threshold   = 1.00e-08
  Density threshold  = 1.00e-08
  Integral threshold = 0.00e+00

  ==> Primary Basis <==

  Basis Set: CC-PV(T+D)Z
    Blend: CC-PV(T+D)Z
    Number of shells: 23
    Number of basis function: 69
    Number of Cartesian functions: 80
    Spherical Harmonics?: true
    Max angular momentum: 3

  ==> DFT Potential <==

   => Composite Functional: WB97M-V <= 

    wB97M-V Hyb-GGA Exchange-Correlation Functional

    N. Mardirossian and M. Head-Gordon, J. Chem. Phys. 144, 214110 (2016)

    Deriv               =              1
    GGA                 =           TRUE
    Meta                =           TRUE

    Exchange Hybrid     =           TRUE
    MP2 Hybrid          =          FALSE

   => Exchange-Correlation Functionals <=

    1.0000   wB97M-V exchange-correlation functional

   => Exact (HF) Exchange <=

    0.8500            HF,LR [omega = 0.3000]
    0.1500               HF 

   => VV10 Non-Local Parameters <=

    VV10 B              =     6.0000E+00
    VV10 C              =     1.0000E-02

   => Molecular Quadrature <=

    Radial Scheme          =       TREUTLER
    Pruning Scheme         =           FLAT
    Nuclear Scheme         =       TREUTLER

    BS radius alpha        =              1
    Pruning alpha          =              1
    Radial Points          =             75
    Spherical Points       =            302
    Total Points           =          43067
    Total Blocks           =            394
    Max Points             =            256
    Max Functions          =             69

   => Loading Basis Set <=

    Name: (CC-PV(T+D)Z AUX)
    Role: JKFIT
    Keyword: DF_BASIS_SCF
    atoms 1 entry C          line   125 file /work/zw18965/.conda/envs/p4env/share/psi4/basis/cc-pvtz-jkfit.gbs 
    atoms 2 entry S          line   613 file /work/zw18965/.conda/envs/p4env/share/psi4/basis/cc-pvtz-jkfit.gbs 

  ==> Pre-Iterations <==

   -------------------------------------------------------
    Irrep   Nso     Nmo     Nalpha   Nbeta   Ndocc  Nsocc
   -------------------------------------------------------
     A1        30      30       0       0       0       0
     A2         7       7       0       0       0       0
     B1        16      16       0       0       0       0
     B2        16      16       0       0       0       0
   -------------------------------------------------------
    Total      69      69      11      11      11       0
   -------------------------------------------------------

  ==> Integral Setup <==

  ==> DiskDFJK: Density-Fitted J/K Matrices <==

    J tasked:                  Yes
    K tasked:                  Yes
    wK tasked:                 Yes
    Omega:               3.000E-01
    OpenMP threads:             24
    Integrals threads:          24
    Memory [MiB]:           102788
    Algorithm:                Core
    Integral Cache:           NONE
    Schwarz Cutoff:          1E-12
    Fitting Condition:       1E-10

   => Auxiliary Basis Set <=

  Basis Set: (CC-PV(T+D)Z AUX)
    Blend: CC-PVTZ-JKFIT
    Number of shells: 62
    Number of basis function: 200
    Number of Cartesian functions: 241
    Spherical Harmonics?: true
    Max angular momentum: 4

  Cached 100.0% of DFT collocation blocks in 0.204 [GiB].

  Minimum eigenvalue in the overlap matrix is 1.7276411236E-03.
  Using Symmetric Orthogonalization.

  SCF Guess: Superposition of Atomic Densities via on-the-fly atomic UHF.

  ==> Iterations <==

                           Total Energy        Delta E     RMS |[F,P]|

   @DF-RKS iter SAD:  -435.64978885899978   -4.35650e+02   0.00000e+00 
   @DF-RKS iter   1:  -436.17535609547588   -5.25567e-01   7.45542e-03 DIIS
   @DF-RKS iter   2:  -436.16655451460241    8.80158e-03   7.84057e-03 DIIS
   @DF-RKS iter   3:  -436.21461376600104   -4.80593e-02   1.40559e-03 DIIS
   @DF-RKS iter   4:  -436.21590188918674   -1.28812e-03   2.12031e-04 DIIS
   @DF-RKS iter   5:  -436.21595338447031   -5.14953e-05   6.18716e-05 DIIS
   @DF-RKS iter   6:  -436.21595744897093   -4.06450e-06   2.43795e-05 DIIS
   @DF-RKS iter   7:  -436.21595837414463   -9.25174e-07   2.81320e-06 DIIS
   @DF-RKS iter   8:  -436.21595839836664   -2.42220e-08   3.52733e-07 DIIS
   @DF-RKS iter   9:  -436.21595839864489   -2.78249e-10   5.18952e-08 DIIS
   @DF-RKS iter  10:  -436.21595839864966   -4.77485e-12   7.90782e-09 DIIS
  Energy and wave function converged.


  ==> Post-Iterations <==

    Orbital Energies [Eh]
    ---------------------

    Doubly Occupied:                                                      

       1A1   -89.249344     2A1   -10.446963     3A1    -8.167665  
       1B2    -6.074103     1B1    -6.074103     4A1    -6.073285  
       5A1    -0.952243     6A1    -0.628568     2B2    -0.447072  
       2B1    -0.447072     7A1    -0.412495  

    Virtual:                                                              

       3B2     0.001508     3B1     0.001508     8A1     0.154384  
       9A1     0.292338     4B2     0.333172     4B1     0.333172  
      10A1     0.380490     1A2     0.393953    11A1     0.393954  
       5B1     0.435921     5B2     0.435921    12A1     0.464702  
       6B2     0.512822     6B1     0.512822    13A1     0.675816  
       2A2     0.809553    14A1     0.809553    15A1     0.952229  
       7B1     1.090722     7B2     1.090722    16A1     1.179489  
      17A1     1.493864     3A2     1.493869     8B2     1.504739  
       8B1     1.504739    18A1     1.648219     9B2     1.696187  
       9B1     1.696187     4A2     1.753720    19A1     1.753723  
      20A1     1.849182    10B2     1.931854    10B1     1.931854  
      11B2     2.004504    11B1     2.004504    12B1     2.316949  
      12B2     2.316949    21A1     2.514043    22A1     2.553165  
      13B1     2.755850    13B2     2.755850    23A1     2.938803  
       5A2     2.938803     6A2     3.090841    24A1     3.090854  
      14B1     3.189781    14B2     3.189781    25A1     3.305059  
      26A1     3.517802    15B1     3.581122    15B2     3.581122  
      27A1     3.884573    28A1     6.328271    29A1     6.749165  
       7A2     6.749197    16B2     6.897504    16B1     6.897504  
      30A1     8.508449  

    Final Occupation by Irrep:
             A1    A2    B1    B2 
    DOCC [     7,    0,    2,    2 ]

  @DF-RKS Final Energy:  -436.21595839864966

   => Energetics <=

    Nuclear Repulsion Energy =             32.9357288486770017
    One-Electron Energy =                -665.6049498514383913
    Two-Electron Energy =                 219.9189549889379123
    DFT Exchange-Correlation Energy =     -23.5577549749840607
    Empirical Dispersion Energy =           0.0000000000000000
    VV10 Nonlocal Energy =                  0.0920625901578430
    Total Energy =                       -436.2159583986496045

Computation Completed


Properties will be evaluated at   0.000000,   0.000000,   0.000000 [a0]

Properties computed using the SCF density matrix

  Nuclear Dipole Moment: [e a0]
     X:     0.0000      Y:     0.0000      Z:     0.0111

  Electronic Dipole Moment: [e a0]
     X:     0.0000      Y:     0.0000      Z:     0.7210

  Dipole Moment: [e a0]
     X:     0.0000      Y:     0.0000      Z:     0.7321     Total:     0.7321

  Dipole Moment: [D]
     X:     0.0000      Y:     0.0000      Z:     1.8609     Total:     1.8609


*** tstop() called on bp1-compute00139.data.bp.acrc.priv at Tue Apr 27 17:43:35 2021
Module time:
	user time   =      58.74 seconds =       0.98 minutes
	system time =       2.41 seconds =       0.04 minutes
	total time  =          3 seconds =       0.05 minutes
Total time:
	user time   =     114.13 seconds =       1.90 minutes
	system time =       4.97 seconds =       0.08 minutes
	total time  =          6 seconds =       0.10 minutes

  //>>>>>>>>>>>>>>>>>>>>>>>>>>>>>>>>>>>//
  //    Loading displacement 3 of 3    //
  //<<<<<<<<<<<<<<<<<<<<<<<<<<<<<<<<<<<//

*** tstart() called on bp1-compute00139.data.bp.acrc.priv
*** at Tue Apr 27 17:43:35 2021

   => Loading Basis Set <=

    Name: CC-PV(T+D)Z
    Role: ORBITAL
    Keyword: BASIS
    atoms 1 entry C          line   195 file /work/zw18965/.conda/envs/p4env/share/psi4/basis/cc-pv_tpd_z.gbs 
    atoms 2 entry S          line   788 file /work/zw18965/.conda/envs/p4env/share/psi4/basis/cc-pv_tpd_z.gbs 


         ---------------------------------------------------------
                                   SCF
               by Justin Turney, Rob Parrish, Andy Simmonett
                          and Daniel G. A. Smith
                              RKS Reference
                       24 Threads, 137329 MiB Core
         ---------------------------------------------------------

  ==> Geometry <==

    Molecular point group: c2v
    Full point group: C_inf_v

    Geometry (in Angstrom), charge = 0, multiplicity = 1:

       Center              X                  Y                   Z               Mass       
    ------------   -----------------  -----------------  -----------------  -----------------
         C            0.000000000000     0.000000000000    -1.120196528169    12.000000000000
         S            0.000000000000     0.000000000000     0.420440648487    31.972071174400

  Running in c2v symmetry.

  Rotational constants: A = ************  B =      0.81399  C =      0.81399 [cm^-1]
  Rotational constants: A = ************  B =  24402.89535  C =  24402.89535 [MHz]
  Nuclear repulsion =   32.974027236302241

  Charge       = 0
  Multiplicity = 1
  Electrons    = 22
  Nalpha       = 11
  Nbeta        = 11

  ==> Algorithm <==

  SCF Algorithm Type is DF.
  DIIS enabled.
  MOM disabled.
  Fractional occupation disabled.
  Guess Type is SAD.
  Energy threshold   = 1.00e-08
  Density threshold  = 1.00e-08
  Integral threshold = 0.00e+00

  ==> Primary Basis <==

  Basis Set: CC-PV(T+D)Z
    Blend: CC-PV(T+D)Z
    Number of shells: 23
    Number of basis function: 69
    Number of Cartesian functions: 80
    Spherical Harmonics?: true
    Max angular momentum: 3

  ==> DFT Potential <==

   => Composite Functional: WB97M-V <= 

    wB97M-V Hyb-GGA Exchange-Correlation Functional

    N. Mardirossian and M. Head-Gordon, J. Chem. Phys. 144, 214110 (2016)

    Deriv               =              1
    GGA                 =           TRUE
    Meta                =           TRUE

    Exchange Hybrid     =           TRUE
    MP2 Hybrid          =          FALSE

   => Exchange-Correlation Functionals <=

    1.0000   wB97M-V exchange-correlation functional

   => Exact (HF) Exchange <=

    0.8500            HF,LR [omega = 0.3000]
    0.1500               HF 

   => VV10 Non-Local Parameters <=

    VV10 B              =     6.0000E+00
    VV10 C              =     1.0000E-02

   => Molecular Quadrature <=

    Radial Scheme          =       TREUTLER
    Pruning Scheme         =           FLAT
    Nuclear Scheme         =       TREUTLER

    BS radius alpha        =              1
    Pruning alpha          =              1
    Radial Points          =             75
    Spherical Points       =            302
    Total Points           =          43067
    Total Blocks           =            394
    Max Points             =            256
    Max Functions          =             69

   => Loading Basis Set <=

    Name: (CC-PV(T+D)Z AUX)
    Role: JKFIT
    Keyword: DF_BASIS_SCF
    atoms 1 entry C          line   125 file /work/zw18965/.conda/envs/p4env/share/psi4/basis/cc-pvtz-jkfit.gbs 
    atoms 2 entry S          line   613 file /work/zw18965/.conda/envs/p4env/share/psi4/basis/cc-pvtz-jkfit.gbs 

  ==> Pre-Iterations <==

   -------------------------------------------------------
    Irrep   Nso     Nmo     Nalpha   Nbeta   Ndocc  Nsocc
   -------------------------------------------------------
     A1        30      30       0       0       0       0
     A2         7       7       0       0       0       0
     B1        16      16       0       0       0       0
     B2        16      16       0       0       0       0
   -------------------------------------------------------
    Total      69      69      11      11      11       0
   -------------------------------------------------------

  ==> Integral Setup <==

  ==> DiskDFJK: Density-Fitted J/K Matrices <==

    J tasked:                  Yes
    K tasked:                  Yes
    wK tasked:                 Yes
    Omega:               3.000E-01
    OpenMP threads:             24
    Integrals threads:          24
    Memory [MiB]:           102788
    Algorithm:                Core
    Integral Cache:           NONE
    Schwarz Cutoff:          1E-12
    Fitting Condition:       1E-10

   => Auxiliary Basis Set <=

  Basis Set: (CC-PV(T+D)Z AUX)
    Blend: CC-PVTZ-JKFIT
    Number of shells: 62
    Number of basis function: 200
    Number of Cartesian functions: 241
    Spherical Harmonics?: true
    Max angular momentum: 4

  Cached 100.0% of DFT collocation blocks in 0.204 [GiB].

  Minimum eigenvalue in the overlap matrix is 1.7180852672E-03.
  Using Symmetric Orthogonalization.

  SCF Guess: Superposition of Atomic Densities via on-the-fly atomic UHF.

  ==> Iterations <==

                           Total Energy        Delta E     RMS |[F,P]|

   @DF-RKS iter SAD:  -435.65241866818053   -4.35652e+02   0.00000e+00 
   @DF-RKS iter   1:  -436.17496382057794   -5.22545e-01   7.49698e-03 DIIS
   @DF-RKS iter   2:  -436.16601863875735    8.94518e-03   7.89050e-03 DIIS
   @DF-RKS iter   3:  -436.21468852846385   -4.86699e-02   1.40080e-03 DIIS
   @DF-RKS iter   4:  -436.21596501299621   -1.27648e-03   2.12018e-04 DIIS
   @DF-RKS iter   5:  -436.21601639154295   -5.13785e-05   6.18356e-05 DIIS
   @DF-RKS iter   6:  -436.21602043793598   -4.04639e-06   2.43648e-05 DIIS
   @DF-RKS iter   7:  -436.21602135906852   -9.21133e-07   2.80277e-06 DIIS
   @DF-RKS iter   8:  -436.21602138310590   -2.40374e-08   3.52264e-07 DIIS
   @DF-RKS iter   9:  -436.21602138338210   -2.76202e-10   5.18235e-08 DIIS
   @DF-RKS iter  10:  -436.21602138338767   -5.57066e-12   7.91101e-09 DIIS
  Energy and wave function converged.


  ==> Post-Iterations <==

    Orbital Energies [Eh]
    ---------------------

    Doubly Occupied:                                                      

       1A1   -89.249215     2A1   -10.446423     3A1    -8.167635  
       1B2    -6.074067     1B1    -6.074067     4A1    -6.073247  
       5A1    -0.952747     6A1    -0.628464     2B2    -0.447366  
       2B1    -0.447366     7A1    -0.412332  

    Virtual:                                                              

       3B2     0.001786     3B1     0.001786     8A1     0.154564  
       9A1     0.292188     4B2     0.333054     4B1     0.333054  
      10A1     0.380590     1A2     0.393831    11A1     0.393832  
       5B1     0.435999     5B2     0.435999    12A1     0.465303  
       6B2     0.513263     6B1     0.513263    13A1     0.675745  
       2A2     0.809849    14A1     0.809849    15A1     0.953600  
       7B1     1.091355     7B2     1.091355    16A1     1.179828  
      17A1     1.493748     3A2     1.493752     8B2     1.504654  
       8B1     1.504654    18A1     1.649143     9B1     1.696042  
       9B2     1.696042     4A2     1.754097    19A1     1.754100  
      20A1     1.848998    10B2     1.931991    10B1     1.931991  
      11B2     2.004951    11B1     2.004951    12B1     2.317859  
      12B2     2.317859    21A1     2.516699    22A1     2.551766  
      13B1     2.756129    13B2     2.756129    23A1     2.939756  
       5A2     2.939756     6A2     3.091506    24A1     3.091518  
      14B1     3.190927    14B2     3.190927    25A1     3.307154  
      26A1     3.516778    15B1     3.582797    15B2     3.582797  
      27A1     3.889021    28A1     6.333859    29A1     6.749181  
       7A2     6.749212    16B2     6.898651    16B1     6.898651  
      30A1     8.525931  

    Final Occupation by Irrep:
             A1    A2    B1    B2 
    DOCC [     7,    0,    2,    2 ]

  @DF-RKS Final Energy:  -436.21602138338767

   => Energetics <=

    Nuclear Repulsion Energy =             32.9740272363022413
    One-Electron Energy =                -665.6810857492886271
    Two-Electron Energy =                 219.9576870824147932
    DFT Exchange-Correlation Energy =     -23.5587119715546720
    Empirical Dispersion Energy =           0.0000000000000000
    VV10 Nonlocal Energy =                  0.0920620187385313
    Total Energy =                       -436.2160213833876696

Computation Completed


Properties will be evaluated at   0.000000,   0.000000,   0.000000 [a0]

Properties computed using the SCF density matrix

  Nuclear Dipole Moment: [e a0]
     X:     0.0000      Y:     0.0000      Z:     0.0111

  Electronic Dipole Moment: [e a0]
     X:     0.0000      Y:     0.0000      Z:     0.7242

  Dipole Moment: [e a0]
     X:     0.0000      Y:     0.0000      Z:     0.7353     Total:     0.7353

  Dipole Moment: [D]
     X:     0.0000      Y:     0.0000      Z:     1.8688     Total:     1.8688


*** tstop() called on bp1-compute00139.data.bp.acrc.priv at Tue Apr 27 17:43:37 2021
Module time:
	user time   =      54.84 seconds =       0.91 minutes
	system time =       1.72 seconds =       0.03 minutes
	total time  =          2 seconds =       0.03 minutes
Total time:
	user time   =     169.12 seconds =       2.82 minutes
	system time =       6.70 seconds =       0.11 minutes
	total time  =          8 seconds =       0.13 minutes

         ----------------------------------------------------------
                                   FINDIF
                     R. A. King and Jonathon Misiewicz
         ---------------------------------------------------------

  Computing gradient from energies.
    Using 3-point formula.
    Energy without displacement: -436.2159906825
    Check energies below for precision!
    Forces are for mass-weighted, symmetry-adapted cartesians (in au).

     Coord      Energy(-1)        Energy(+1)            Force
        0   -436.2159583986   -436.2160213834     -0.0062984738


-------------------------------------------------------------
  ## New Matrix (Symmetry 0) ##
  Irrep: 1 Size: 2 x 3

                 1                   2                   3

    1     0.00000000000000     0.00000000000000    -0.01860470870546
    2     0.00000000000000     0.00000000000000     0.01860470870546




			-----------------------------------------
			 OPTKING 2.0: for geometry optimizations 
			  - R.A. King,  Bethel University        
			-----------------------------------------
	At level 1: Red. Int., RFO, no backsteps, dynamic trust

	Internal coordinates to be generated automatically.
	Detected frag 1 with atoms:  1 2
	---Fragment 1 Bond Connectivity---
	 1 : 2
	 2 : 1

	---Fragment 1 Geometry and Gradient---
	 C           0.0000000000        0.0000000000       -2.1180954132
	 S           0.0000000000        0.0000000000        0.7949796189
	             0.0000000000        0.0000000000       -0.0186047087
	             0.0000000000        0.0000000000        0.0186047087

	Previous optimization step data not found.  Starting new optimization.

	---Fragment 1 Intrafragment Coordinates---
	 - Coordinate -           - BOHR/RAD -       - ANG/DEG -
	 R(1,2)           =         2.913075	       1.541533

	Current energy   :      -436.2159906825

	Generating empirical Hessian (Schlegel '84) for each fragment.
	Taking RFO optimization step.
	Going to follow RFO solution 1.
	Using RFO vector 1.
	Norm of target step-size    0.02886
	Projected energy change by RFO approximation:        -0.0001204041

	Back-transformation to cartesian coordinates...
	Successfully converged to displaced geometry.

	--- Internal Coordinate Step in ANG or DEG, aJ/ANG or AJ/DEG ---
	 ---------------------------------------------------------------------------
	   Coordinate                Previous        Force       Change         New 
	   ----------                --------       ------       ------       ------
	    1 R(1,2)          =      1.541533    -0.153279    -0.015271     1.526262
	 ---------------------------------------------------------------------------
	Successfully symmetrized geometry.

  ==> Convergence Check <==

  Measures of convergence in internal coordinates in au.
  Criteria marked as inactive (o), active & met (*), and active & unmet ( ).
  --------------------------------------------------------------------------------------------- ~
   Step     Total Energy     Delta E     MAX Force     RMS Force      MAX Disp      RMS Disp    ~
  --------------------------------------------------------------------------------------------- ~
    Convergence Criteria    1.00e-06 *    3.00e-04 *             o    1.20e-03 *             o  ~
  --------------------------------------------------------------------------------------------- ~
      1    -436.21599068   -4.36e+02      1.86e-02      1.86e-02 o    2.89e-02      2.89e-02 o  ~
  ---------------------------------------------------------------------------------------------

	Writing optimization data to binary file.
	Structure for next step:
	Cartesian Geometry (in Angstrom)
	    C     0.0000000000   0.0000000000  -1.1132123661
	    S     0.0000000000   0.0000000000   0.4130496434
			--------------------------
			 OPTKING Finished Execution 
			--------------------------

    Structure for next step:
    Molecular point group: c2v
    Full point group: C_inf_v

    Geometry (in Angstrom), charge = 0, multiplicity = 1:

    C            0.000000000000     0.000000000000    -1.109744355604
    S            0.000000000000     0.000000000000     0.416517659885

gradient() will perform gradient computation by finite difference of analytic energies.

         ----------------------------------------------------------
                                   FINDIF
                     R. A. King and Jonathon Misiewicz
         ---------------------------------------------------------

  Using finite-differences of energies to determine gradients.
    Generating geometries for use with 3-point formula.
    Displacement size will be 5.00e-03.
    Number of atoms is 2.
    Number of symmetric SALCs is 1.
    Translations projected? 1. Rotations projected? 1.
    Number of geometries (including reference) is 3.

  //>>>>>>>>>>>>>>>>>>>>>>>>>>>>>>>>>>>//
  //    Loading displacement 1 of 3    //
  //<<<<<<<<<<<<<<<<<<<<<<<<<<<<<<<<<<<//

*** tstart() called on bp1-compute00139.data.bp.acrc.priv
*** at Tue Apr 27 17:43:37 2021

   => Loading Basis Set <=

    Name: CC-PV(T+D)Z
    Role: ORBITAL
    Keyword: BASIS
    atoms 1 entry C          line   195 file /work/zw18965/.conda/envs/p4env/share/psi4/basis/cc-pv_tpd_z.gbs 
    atoms 2 entry S          line   788 file /work/zw18965/.conda/envs/p4env/share/psi4/basis/cc-pv_tpd_z.gbs 


         ---------------------------------------------------------
                                   SCF
               by Justin Turney, Rob Parrish, Andy Simmonett
                          and Daniel G. A. Smith
                              RKS Reference
                       24 Threads, 137329 MiB Core
         ---------------------------------------------------------

  ==> Geometry <==

    Molecular point group: c2v
    Full point group: C_inf_v

    Geometry (in Angstrom), charge = 0, multiplicity = 1:

       Center              X                  Y                   Z               Mass       
    ------------   -----------------  -----------------  -----------------  -----------------
         C            0.000000000000     0.000000000000    -1.109744355604    12.000000000000
         S            0.000000000000     0.000000000000     0.416517659885    31.972071174400

  Running in c2v symmetry.

  Rotational constants: A = ************  B =      0.82940  C =      0.82940 [cm^-1]
  Rotational constants: A = ************  B =  24864.73944  C =  24864.73944 [MHz]
  Nuclear repulsion =   33.284594459383371

  Charge       = 0
  Multiplicity = 1
  Electrons    = 22
  Nalpha       = 11
  Nbeta        = 11

  ==> Algorithm <==

  SCF Algorithm Type is DF.
  DIIS enabled.
  MOM disabled.
  Fractional occupation disabled.
  Guess Type is READ.
  Energy threshold   = 1.00e-08
  Density threshold  = 1.00e-08
  Integral threshold = 0.00e+00

  ==> Primary Basis <==

  Basis Set: CC-PV(T+D)Z
    Blend: CC-PV(T+D)Z
    Number of shells: 23
    Number of basis function: 69
    Number of Cartesian functions: 80
    Spherical Harmonics?: true
    Max angular momentum: 3

  ==> DFT Potential <==

   => Composite Functional: WB97M-V <= 

    wB97M-V Hyb-GGA Exchange-Correlation Functional

    N. Mardirossian and M. Head-Gordon, J. Chem. Phys. 144, 214110 (2016)

    Deriv               =              1
    GGA                 =           TRUE
    Meta                =           TRUE

    Exchange Hybrid     =           TRUE
    MP2 Hybrid          =          FALSE

   => Exchange-Correlation Functionals <=

    1.0000   wB97M-V exchange-correlation functional

   => Exact (HF) Exchange <=

    0.8500            HF,LR [omega = 0.3000]
    0.1500               HF 

   => VV10 Non-Local Parameters <=

    VV10 B              =     6.0000E+00
    VV10 C              =     1.0000E-02

   => Molecular Quadrature <=

    Radial Scheme          =       TREUTLER
    Pruning Scheme         =           FLAT
    Nuclear Scheme         =       TREUTLER

    BS radius alpha        =              1
    Pruning alpha          =              1
    Radial Points          =             75
    Spherical Points       =            302
    Total Points           =          43067
    Total Blocks           =            393
    Max Points             =            256
    Max Functions          =             69

   => Loading Basis Set <=

    Name: (CC-PV(T+D)Z AUX)
    Role: JKFIT
    Keyword: DF_BASIS_SCF
    atoms 1 entry C          line   125 file /work/zw18965/.conda/envs/p4env/share/psi4/basis/cc-pvtz-jkfit.gbs 
    atoms 2 entry S          line   613 file /work/zw18965/.conda/envs/p4env/share/psi4/basis/cc-pvtz-jkfit.gbs 

   => Loading Basis Set <=

    Name: CC-PV(T+D)Z
    Role: ORBITAL
    Keyword: BASIS
    atoms 1 entry C          line   195 file /work/zw18965/.conda/envs/p4env/share/psi4/basis/cc-pv_tpd_z.gbs 
    atoms 2 entry S          line   788 file /work/zw18965/.conda/envs/p4env/share/psi4/basis/cc-pv_tpd_z.gbs 

  Reading orbitals from file 180, no projection.

  ==> Pre-Iterations <==

   -------------------------------------------------------
    Irrep   Nso     Nmo     Nalpha   Nbeta   Ndocc  Nsocc
   -------------------------------------------------------
     A1        30      30       0       0       0       0
     A2         7       7       0       0       0       0
     B1        16      16       0       0       0       0
     B2        16      16       0       0       0       0
   -------------------------------------------------------
    Total      69      69      11      11      11       0
   -------------------------------------------------------

  ==> Integral Setup <==

  ==> DiskDFJK: Density-Fitted J/K Matrices <==

    J tasked:                  Yes
    K tasked:                  Yes
    wK tasked:                 Yes
    Omega:               3.000E-01
    OpenMP threads:             24
    Integrals threads:          24
    Memory [MiB]:           102788
    Algorithm:                Core
    Integral Cache:           NONE
    Schwarz Cutoff:          1E-12
    Fitting Condition:       1E-10

   => Auxiliary Basis Set <=

  Basis Set: (CC-PV(T+D)Z AUX)
    Blend: CC-PVTZ-JKFIT
    Number of shells: 62
    Number of basis function: 200
    Number of Cartesian functions: 241
    Spherical Harmonics?: true
    Max angular momentum: 4

  Cached 100.0% of DFT collocation blocks in 0.204 [GiB].

  Minimum eigenvalue in the overlap matrix is 1.6434324836E-03.
  Using Symmetric Orthogonalization.

  SCF Guess: Orbitals guess was supplied from a previous computation.

  ==> Iterations <==

                           Total Energy        Delta E     RMS |[F,P]|

   @DF-RKS iter   0:  -436.22473416310334   -4.36225e+02   1.36356e-03 
   @DF-RKS iter   1:  -436.21625206263815    8.48210e-03   2.09550e-04 DIIS
   @DF-RKS iter   2:  -436.21625375425202   -1.69161e-06   2.25280e-04 DIIS
   @DF-RKS iter   3:  -436.21628999021817   -3.62360e-05   4.30438e-05 DIIS
   @DF-RKS iter   4:  -436.21629117808237   -1.18786e-06   5.40450e-06 DIIS
   @DF-RKS iter   5:  -436.21629121306961   -3.49872e-08   1.39871e-06 DIIS
   @DF-RKS iter   6:  -436.21629121626353   -3.19392e-09   1.91264e-07 DIIS
   @DF-RKS iter   7:  -436.21629121634373   -8.02061e-11   3.50436e-08 DIIS
   @DF-RKS iter   8:  -436.21629121634675   -3.01270e-12   1.29744e-08 DIIS
   @DF-RKS iter   9:  -436.21629121634697   -2.27374e-13   2.57540e-09 DIIS
  Energy and wave function converged.


  ==> Post-Iterations <==

    Orbital Energies [Eh]
    ---------------------

    Doubly Occupied:                                                      

       1A1   -89.248146     2A1   -10.442058     3A1    -8.167383  
       1B2    -6.073764     1B1    -6.073764     4A1    -6.072928  
       5A1    -0.956803     6A1    -0.627647     2B1    -0.449744  
       2B2    -0.449744     7A1    -0.410989  

    Virtual:                                                              

       3B2     0.004016     3B1     0.004016     8A1     0.155952  
       9A1     0.291004     4B1     0.332104     4B2     0.332104  
      10A1     0.381387     1A2     0.392859    11A1     0.392859  
       5B1     0.436595     5B2     0.436595    12A1     0.470167  
       6B2     0.516884     6B1     0.516884    13A1     0.675193  
       2A2     0.812248    14A1     0.812248    15A1     0.964668  
       7B1     1.096389     7B2     1.096389    16A1     1.182733  
      17A1     1.492799     3A2     1.492803     8B1     1.504022  
       8B2     1.504022    18A1     1.656784     9B1     1.694876  
       9B2     1.694876     4A2     1.757200    19A1     1.757202  
      20A1     1.847733    10B2     1.932892    10B1     1.932892  
      11B2     2.008756    11B1     2.008756    12B2     2.325126  
      12B1     2.325126    21A1     2.535861    22A1     2.543175  
      13B2     2.758403    13B1     2.758403    23A1     2.947402  
       5A2     2.947403     6A2     3.096952    24A1     3.096965  
      14B1     3.200075    14B2     3.200075    25A1     3.323950  
      26A1     3.508425    15B2     3.596462    15B1     3.596462  
      27A1     3.925301    28A1     6.377921    29A1     6.749338  
       7A2     6.749369    16B2     6.908140    16B1     6.908140  
      30A1     8.670946  

    Final Occupation by Irrep:
             A1    A2    B1    B2 
    DOCC [     7,    0,    2,    2 ]

  @DF-RKS Final Energy:  -436.21629121634697

   => Energetics <=

    Nuclear Repulsion Energy =             33.2845944593833707
    One-Electron Energy =                -666.2981766916665265
    Two-Electron Energy =                 220.2717487009860804
    DFT Exchange-Correlation Energy =     -23.5665152093542396
    Empirical Dispersion Energy =           0.0000000000000000
    VV10 Nonlocal Energy =                  0.0920575243043227
    Total Energy =                       -436.2162912163469741

Computation Completed


Properties will be evaluated at   0.000000,   0.000000,   0.000000 [a0]

Properties computed using the SCF density matrix

  Nuclear Dipole Moment: [e a0]
     X:     0.0000      Y:     0.0000      Z:     0.0110

  Electronic Dipole Moment: [e a0]
     X:     0.0000      Y:     0.0000      Z:     0.7494

  Dipole Moment: [e a0]
     X:     0.0000      Y:     0.0000      Z:     0.7604     Total:     0.7604

  Dipole Moment: [D]
     X:     0.0000      Y:     0.0000      Z:     1.9327     Total:     1.9327


*** tstop() called on bp1-compute00139.data.bp.acrc.priv at Tue Apr 27 17:43:39 2021
Module time:
	user time   =      41.90 seconds =       0.70 minutes
	system time =       1.22 seconds =       0.02 minutes
	total time  =          2 seconds =       0.03 minutes
Total time:
	user time   =     211.36 seconds =       3.52 minutes
	system time =       7.93 seconds =       0.13 minutes
	total time  =         10 seconds =       0.17 minutes

  //>>>>>>>>>>>>>>>>>>>>>>>>>>>>>>>>>>>//
  //    Loading displacement 2 of 3    //
  //<<<<<<<<<<<<<<<<<<<<<<<<<<<<<<<<<<<//

*** tstart() called on bp1-compute00139.data.bp.acrc.priv
*** at Tue Apr 27 17:43:39 2021

   => Loading Basis Set <=

    Name: CC-PV(T+D)Z
    Role: ORBITAL
    Keyword: BASIS
    atoms 1 entry C          line   195 file /work/zw18965/.conda/envs/p4env/share/psi4/basis/cc-pv_tpd_z.gbs 
    atoms 2 entry S          line   788 file /work/zw18965/.conda/envs/p4env/share/psi4/basis/cc-pv_tpd_z.gbs 


         ---------------------------------------------------------
                                   SCF
               by Justin Turney, Rob Parrish, Andy Simmonett
                          and Daniel G. A. Smith
                              RKS Reference
                       24 Threads, 137329 MiB Core
         ---------------------------------------------------------

  ==> Geometry <==

    Molecular point group: c2v
    Full point group: C_inf_v

    Geometry (in Angstrom), charge = 0, multiplicity = 1:

       Center              X                  Y                   Z               Mass       
    ------------   -----------------  -----------------  -----------------  -----------------
         C            0.000000000000     0.000000000000    -1.110395650146    12.000000000000
         S            0.000000000000     0.000000000000     0.416762108687    31.972071174400

  Running in c2v symmetry.

  Rotational constants: A = ************  B =      0.82843  C =      0.82843 [cm^-1]
  Rotational constants: A = ************  B =  24835.57953  C =  24835.57953 [MHz]
  Nuclear repulsion =   33.265071621112760

  Charge       = 0
  Multiplicity = 1
  Electrons    = 22
  Nalpha       = 11
  Nbeta        = 11

  ==> Algorithm <==

  SCF Algorithm Type is DF.
  DIIS enabled.
  MOM disabled.
  Fractional occupation disabled.
  Guess Type is READ.
  Energy threshold   = 1.00e-08
  Density threshold  = 1.00e-08
  Integral threshold = 0.00e+00

  ==> Primary Basis <==

  Basis Set: CC-PV(T+D)Z
    Blend: CC-PV(T+D)Z
    Number of shells: 23
    Number of basis function: 69
    Number of Cartesian functions: 80
    Spherical Harmonics?: true
    Max angular momentum: 3

  ==> DFT Potential <==

   => Composite Functional: WB97M-V <= 

    wB97M-V Hyb-GGA Exchange-Correlation Functional

    N. Mardirossian and M. Head-Gordon, J. Chem. Phys. 144, 214110 (2016)

    Deriv               =              1
    GGA                 =           TRUE
    Meta                =           TRUE

    Exchange Hybrid     =           TRUE
    MP2 Hybrid          =          FALSE

   => Exchange-Correlation Functionals <=

    1.0000   wB97M-V exchange-correlation functional

   => Exact (HF) Exchange <=

    0.8500            HF,LR [omega = 0.3000]
    0.1500               HF 

   => VV10 Non-Local Parameters <=

    VV10 B              =     6.0000E+00
    VV10 C              =     1.0000E-02

   => Molecular Quadrature <=

    Radial Scheme          =       TREUTLER
    Pruning Scheme         =           FLAT
    Nuclear Scheme         =       TREUTLER

    BS radius alpha        =              1
    Pruning alpha          =              1
    Radial Points          =             75
    Spherical Points       =            302
    Total Points           =          43067
    Total Blocks           =            393
    Max Points             =            256
    Max Functions          =             69

   => Loading Basis Set <=

    Name: (CC-PV(T+D)Z AUX)
    Role: JKFIT
    Keyword: DF_BASIS_SCF
    atoms 1 entry C          line   125 file /work/zw18965/.conda/envs/p4env/share/psi4/basis/cc-pvtz-jkfit.gbs 
    atoms 2 entry S          line   613 file /work/zw18965/.conda/envs/p4env/share/psi4/basis/cc-pvtz-jkfit.gbs 

   => Loading Basis Set <=

    Name: CC-PV(T+D)Z
    Role: ORBITAL
    Keyword: BASIS
    atoms 1 entry C          line   195 file /work/zw18965/.conda/envs/p4env/share/psi4/basis/cc-pv_tpd_z.gbs 
    atoms 2 entry S          line   788 file /work/zw18965/.conda/envs/p4env/share/psi4/basis/cc-pv_tpd_z.gbs 

  Reading orbitals from file 180, no projection.

  ==> Pre-Iterations <==

   -------------------------------------------------------
    Irrep   Nso     Nmo     Nalpha   Nbeta   Ndocc  Nsocc
   -------------------------------------------------------
     A1        30      30       0       0       0       0
     A2         7       7       0       0       0       0
     B1        16      16       0       0       0       0
     B2        16      16       0       0       0       0
   -------------------------------------------------------
    Total      69      69      11      11      11       0
   -------------------------------------------------------

  ==> Integral Setup <==

  ==> DiskDFJK: Density-Fitted J/K Matrices <==

    J tasked:                  Yes
    K tasked:                  Yes
    wK tasked:                 Yes
    Omega:               3.000E-01
    OpenMP threads:             24
    Integrals threads:          24
    Memory [MiB]:           102788
    Algorithm:                Core
    Integral Cache:           NONE
    Schwarz Cutoff:          1E-12
    Fitting Condition:       1E-10

   => Auxiliary Basis Set <=

  Basis Set: (CC-PV(T+D)Z AUX)
    Blend: CC-PVTZ-JKFIT
    Number of shells: 62
    Number of basis function: 200
    Number of Cartesian functions: 241
    Spherical Harmonics?: true
    Max angular momentum: 4

  Cached 100.0% of DFT collocation blocks in 0.204 [GiB].

  Minimum eigenvalue in the overlap matrix is 1.6479799564E-03.
  Using Symmetric Orthogonalization.

  SCF Guess: Orbitals guess was supplied from a previous computation.

  ==> Iterations <==

                           Total Energy        Delta E     RMS |[F,P]|

   @DF-RKS iter   0:  -436.21581334043049   -4.36216e+02   8.11396e-05 
   @DF-RKS iter   1:  -436.21628683759735   -4.73497e-04   1.24359e-05 DIIS
   @DF-RKS iter   2:  -436.21628683949962   -1.90227e-09   1.35467e-05 DIIS
   @DF-RKS iter   3:  -436.21628697105916   -1.31560e-07   2.51272e-06 DIIS
   @DF-RKS iter   4:  -436.21628697509414   -4.03497e-09   3.15211e-07 DIIS
   @DF-RKS iter   5:  -436.21628697521430   -1.20167e-10   8.24091e-08 DIIS
   @DF-RKS iter   6:  -436.21628697522533   -1.10276e-11   1.11919e-08 DIIS
   @DF-RKS iter   7:  -436.21628697522561   -2.84217e-13   2.04418e-09 DIIS
  Energy and wave function converged.


  ==> Post-Iterations <==

    Orbital Energies [Eh]
    ---------------------

    Doubly Occupied:                                                      

       1A1   -89.248214     2A1   -10.442332     3A1    -8.167400  
       1B1    -6.073784     1B2    -6.073784     4A1    -6.072948  
       5A1    -0.956550     6A1    -0.627697     2B2    -0.449595  
       2B1    -0.449595     7A1    -0.411075  

    Virtual:                                                              

       3B1     0.003877     3B2     0.003877     8A1     0.155869  
       9A1     0.291077     4B1     0.332163     4B2     0.332163  
      10A1     0.381337     1A2     0.392919    11A1     0.392920  
       5B2     0.436559     5B1     0.436559    12A1     0.469862  
       6B1     0.516654     6B2     0.516654    13A1     0.675226  
       2A2     0.812097    14A1     0.812097    15A1     0.963976  
       7B1     1.096078     7B2     1.096078    16A1     1.182542  
      17A1     1.492859     3A2     1.492863     8B1     1.504058  
       8B2     1.504058    18A1     1.656296     9B1     1.694949  
       9B2     1.694949     4A2     1.757003    19A1     1.757005  
      20A1     1.847800    10B2     1.932845    10B1     1.932845  
      11B2     2.008508    11B1     2.008508    12B1     2.324676  
      12B2     2.324676    21A1     2.535208    22A1     2.543144  
      13B1     2.758259    13B2     2.758259    23A1     2.946926  
       5A2     2.946927     6A2     3.096607    24A1     3.096620  
      14B1     3.199508    14B2     3.199508    25A1     3.322904  
      26A1     3.508952    15B1     3.595599    15B2     3.595599  
      27A1     3.923010    28A1     6.375215    29A1     6.749327  
       7A2     6.749357    16B1     6.907534    16B2     6.907534  
      30A1     8.661664  

    Final Occupation by Irrep:
             A1    A2    B1    B2 
    DOCC [     7,    0,    2,    2 ]

  @DF-RKS Final Energy:  -436.21628697522561

   => Energetics <=

    Nuclear Repulsion Energy =             33.2650716211127602
    One-Electron Energy =                -666.2594010128489117
    Two-Electron Energy =                 220.2520070387201656
    DFT Exchange-Correlation Energy =     -23.5660224219609731
    Empirical Dispersion Energy =           0.0000000000000000
    VV10 Nonlocal Energy =                  0.0920577997514215
    Total Energy =                       -436.2162869752255006

Computation Completed


Properties will be evaluated at   0.000000,   0.000000,   0.000000 [a0]

Properties computed using the SCF density matrix

  Nuclear Dipole Moment: [e a0]
     X:     0.0000      Y:     0.0000      Z:     0.0110

  Electronic Dipole Moment: [e a0]
     X:     0.0000      Y:     0.0000      Z:     0.7478

  Dipole Moment: [e a0]
     X:     0.0000      Y:     0.0000      Z:     0.7588     Total:     0.7588

  Dipole Moment: [D]
     X:     0.0000      Y:     0.0000      Z:     1.9287     Total:     1.9287


*** tstop() called on bp1-compute00139.data.bp.acrc.priv at Tue Apr 27 17:43:41 2021
Module time:
	user time   =      41.98 seconds =       0.70 minutes
	system time =       1.53 seconds =       0.03 minutes
	total time  =          2 seconds =       0.03 minutes
Total time:
	user time   =     253.46 seconds =       4.22 minutes
	system time =       9.47 seconds =       0.16 minutes
	total time  =         12 seconds =       0.20 minutes

  //>>>>>>>>>>>>>>>>>>>>>>>>>>>>>>>>>>>//
  //    Loading displacement 3 of 3    //
  //<<<<<<<<<<<<<<<<<<<<<<<<<<<<<<<<<<<//

*** tstart() called on bp1-compute00139.data.bp.acrc.priv
*** at Tue Apr 27 17:43:41 2021

   => Loading Basis Set <=

    Name: CC-PV(T+D)Z
    Role: ORBITAL
    Keyword: BASIS
    atoms 1 entry C          line   195 file /work/zw18965/.conda/envs/p4env/share/psi4/basis/cc-pv_tpd_z.gbs 
    atoms 2 entry S          line   788 file /work/zw18965/.conda/envs/p4env/share/psi4/basis/cc-pv_tpd_z.gbs 


         ---------------------------------------------------------
                                   SCF
               by Justin Turney, Rob Parrish, Andy Simmonett
                          and Daniel G. A. Smith
                              RKS Reference
                       24 Threads, 137329 MiB Core
         ---------------------------------------------------------

  ==> Geometry <==

    Molecular point group: c2v
    Full point group: C_inf_v

    Geometry (in Angstrom), charge = 0, multiplicity = 1:

       Center              X                  Y                   Z               Mass       
    ------------   -----------------  -----------------  -----------------  -----------------
         C            0.000000000000     0.000000000000    -1.109093061062    12.000000000000
         S            0.000000000000     0.000000000000     0.416273211083    31.972071174400

  Running in c2v symmetry.

  Rotational constants: A = ************  B =      0.83037  C =      0.83037 [cm^-1]
  Rotational constants: A = ************  B =  24893.95074  C =  24893.95074 [MHz]
  Nuclear repulsion =   33.304140226510810

  Charge       = 0
  Multiplicity = 1
  Electrons    = 22
  Nalpha       = 11
  Nbeta        = 11

  ==> Algorithm <==

  SCF Algorithm Type is DF.
  DIIS enabled.
  MOM disabled.
  Fractional occupation disabled.
  Guess Type is READ.
  Energy threshold   = 1.00e-08
  Density threshold  = 1.00e-08
  Integral threshold = 0.00e+00

  ==> Primary Basis <==

  Basis Set: CC-PV(T+D)Z
    Blend: CC-PV(T+D)Z
    Number of shells: 23
    Number of basis function: 69
    Number of Cartesian functions: 80
    Spherical Harmonics?: true
    Max angular momentum: 3

  ==> DFT Potential <==

   => Composite Functional: WB97M-V <= 

    wB97M-V Hyb-GGA Exchange-Correlation Functional

    N. Mardirossian and M. Head-Gordon, J. Chem. Phys. 144, 214110 (2016)

    Deriv               =              1
    GGA                 =           TRUE
    Meta                =           TRUE

    Exchange Hybrid     =           TRUE
    MP2 Hybrid          =          FALSE

   => Exchange-Correlation Functionals <=

    1.0000   wB97M-V exchange-correlation functional

   => Exact (HF) Exchange <=

    0.8500            HF,LR [omega = 0.3000]
    0.1500               HF 

   => VV10 Non-Local Parameters <=

    VV10 B              =     6.0000E+00
    VV10 C              =     1.0000E-02

   => Molecular Quadrature <=

    Radial Scheme          =       TREUTLER
    Pruning Scheme         =           FLAT
    Nuclear Scheme         =       TREUTLER

    BS radius alpha        =              1
    Pruning alpha          =              1
    Radial Points          =             75
    Spherical Points       =            302
    Total Points           =          43067
    Total Blocks           =            393
    Max Points             =            256
    Max Functions          =             69

   => Loading Basis Set <=

    Name: (CC-PV(T+D)Z AUX)
    Role: JKFIT
    Keyword: DF_BASIS_SCF
    atoms 1 entry C          line   125 file /work/zw18965/.conda/envs/p4env/share/psi4/basis/cc-pvtz-jkfit.gbs 
    atoms 2 entry S          line   613 file /work/zw18965/.conda/envs/p4env/share/psi4/basis/cc-pvtz-jkfit.gbs 

   => Loading Basis Set <=

    Name: CC-PV(T+D)Z
    Role: ORBITAL
    Keyword: BASIS
    atoms 1 entry C          line   195 file /work/zw18965/.conda/envs/p4env/share/psi4/basis/cc-pv_tpd_z.gbs 
    atoms 2 entry S          line   788 file /work/zw18965/.conda/envs/p4env/share/psi4/basis/cc-pv_tpd_z.gbs 

  Reading orbitals from file 180, no projection.

  ==> Pre-Iterations <==

   -------------------------------------------------------
    Irrep   Nso     Nmo     Nalpha   Nbeta   Ndocc  Nsocc
   -------------------------------------------------------
     A1        30      30       0       0       0       0
     A2         7       7       0       0       0       0
     B1        16      16       0       0       0       0
     B2        16      16       0       0       0       0
   -------------------------------------------------------
    Total      69      69      11      11      11       0
   -------------------------------------------------------

  ==> Integral Setup <==

  ==> DiskDFJK: Density-Fitted J/K Matrices <==

    J tasked:                  Yes
    K tasked:                  Yes
    wK tasked:                 Yes
    Omega:               3.000E-01
    OpenMP threads:             24
    Integrals threads:          24
    Memory [MiB]:           102788
    Algorithm:                Core
    Integral Cache:           NONE
    Schwarz Cutoff:          1E-12
    Fitting Condition:       1E-10

   => Auxiliary Basis Set <=

  Basis Set: (CC-PV(T+D)Z AUX)
    Blend: CC-PVTZ-JKFIT
    Number of shells: 62
    Number of basis function: 200
    Number of Cartesian functions: 241
    Spherical Harmonics?: true
    Max angular momentum: 4

  Cached 100.0% of DFT collocation blocks in 0.204 [GiB].

  Minimum eigenvalue in the overlap matrix is 1.6388987457E-03.
  Using Symmetric Orthogonalization.

  SCF Guess: Orbitals guess was supplied from a previous computation.

  ==> Iterations <==

                           Total Energy        Delta E     RMS |[F,P]|

   @DF-RKS iter   0:  -436.21676822100699   -4.36217e+02   8.13038e-05 
   @DF-RKS iter   1:  -436.21629360366086    4.74617e-04   1.24287e-05 DIIS
   @DF-RKS iter   2:  -436.21629360597933   -2.31847e-09   1.35187e-05 DIIS
   @DF-RKS iter   3:  -436.21629373693702   -1.30958e-07   2.50416e-06 DIIS
   @DF-RKS iter   4:  -436.21629374093993   -4.00291e-09   3.14792e-07 DIIS
   @DF-RKS iter   5:  -436.21629374105999   -1.20053e-10   8.24388e-08 DIIS
   @DF-RKS iter   6:  -436.21629374107090   -1.09139e-11   1.12170e-08 DIIS
   @DF-RKS iter   7:  -436.21629374107135   -4.54747e-13   2.04957e-09 DIIS
  Energy and wave function converged.


  ==> Post-Iterations <==

    Orbital Energies [Eh]
    ---------------------

    Doubly Occupied:                                                      

       1A1   -89.248077     2A1   -10.441784     3A1    -8.167367  
       1B2    -6.073744     1B1    -6.073744     4A1    -6.072907  
       5A1    -0.957056     6A1    -0.627597     2B1    -0.449894  
       2B2    -0.449894     7A1    -0.410903  

    Virtual:                                                              

       3B2     0.004155     3B1     0.004155     8A1     0.156036  
       9A1     0.290931     4B1     0.332045     4B2     0.332045  
      10A1     0.381436     1A2     0.392798    11A1     0.392799  
       5B1     0.436630     5B2     0.436630    12A1     0.470472  
       6B2     0.517114     6B1     0.517114    13A1     0.675160  
       2A2     0.812399    14A1     0.812399    15A1     0.965361  
       7B2     1.096700     7B1     1.096700    16A1     1.182925  
      17A1     1.492739     3A2     1.492743     8B1     1.503985  
       8B2     1.503985    18A1     1.657273     9B2     1.694803  
       9B1     1.694803     4A2     1.757399    19A1     1.757400  
      20A1     1.847667    10B2     1.932937    10B1     1.932937  
      11B1     2.009006    11B2     2.009006    12B1     2.325577  
      12B2     2.325577    21A1     2.536243    22A1     2.543481  
      13B1     2.758546    13B2     2.758546    23A1     2.947878  
       5A2     2.947880     6A2     3.097298    24A1     3.097312  
      14B1     3.200642    14B2     3.200642    25A1     3.324996  
      26A1     3.507897    15B2     3.597327    15B1     3.597327  
      27A1     3.927595    28A1     6.380622    29A1     6.749350  
       7A2     6.749380    16B2     6.908748    16B1     6.908748  
      30A1     8.680261  

    Final Occupation by Irrep:
             A1    A2    B1    B2 
    DOCC [     7,    0,    2,    2 ]

  @DF-RKS Final Energy:  -436.21629374107135

   => Energetics <=

    Nuclear Repulsion Energy =             33.3041402265108104
    One-Electron Energy =                -666.3369951772874629
    Two-Electron Energy =                 220.2915128201870516
    DFT Exchange-Correlation Energy =     -23.5670088599488992
    Empirical Dispersion Energy =           0.0000000000000000
    VV10 Nonlocal Energy =                  0.0920572494672101
    Total Energy =                       -436.2162937410713539

Computation Completed


Properties will be evaluated at   0.000000,   0.000000,   0.000000 [a0]

Properties computed using the SCF density matrix

  Nuclear Dipole Moment: [e a0]
     X:     0.0000      Y:     0.0000      Z:     0.0110

  Electronic Dipole Moment: [e a0]
     X:     0.0000      Y:     0.0000      Z:     0.7509

  Dipole Moment: [e a0]
     X:     0.0000      Y:     0.0000      Z:     0.7619     Total:     0.7619

  Dipole Moment: [D]
     X:     0.0000      Y:     0.0000      Z:     1.9366     Total:     1.9366


*** tstop() called on bp1-compute00139.data.bp.acrc.priv at Tue Apr 27 17:43:42 2021
Module time:
	user time   =      38.96 seconds =       0.65 minutes
	system time =       1.15 seconds =       0.02 minutes
	total time  =          1 seconds =       0.02 minutes
Total time:
	user time   =     292.56 seconds =       4.88 minutes
	system time =      10.63 seconds =       0.18 minutes
	total time  =         13 seconds =       0.22 minutes

         ----------------------------------------------------------
                                   FINDIF
                     R. A. King and Jonathon Misiewicz
         ---------------------------------------------------------

  Computing gradient from energies.
    Using 3-point formula.
    Energy without displacement: -436.2162912163
    Check energies below for precision!
    Forces are for mass-weighted, symmetry-adapted cartesians (in au).

     Coord      Energy(-1)        Energy(+1)            Force
        0   -436.2162869752   -436.2162937411     -0.0006765846


-------------------------------------------------------------
  ## New Matrix (Symmetry 0) ##
  Irrep: 1 Size: 2 x 3

                 1                   2                   3

    1     0.00000000000000     0.00000000000000    -0.00199852524775
    2     0.00000000000000     0.00000000000000     0.00199852524775




			-----------------------------------------
			 OPTKING 2.0: for geometry optimizations 
			  - R.A. King,  Bethel University        
			-----------------------------------------
	At level 1: Red. Int., RFO, no backsteps, dynamic trust

	Previous internal coordinate definitions found.
	---Fragment 1 Geometry and Gradient---
	 C           0.0000000000        0.0000000000       -2.0971129014
	 S           0.0000000000        0.0000000000        0.7871043036
	             0.0000000000        0.0000000000       -0.0019985252
	             0.0000000000        0.0000000000        0.0019985252

	---Fragment 1 Intrafragment Coordinates---
	 - Coordinate -           - BOHR/RAD -       - ANG/DEG -
	 R(1,2)           =         2.884217	       1.526262

	Current energy   :      -436.2162912163

	Energy change for the previous step:
		Projected    :        -0.0001204041
		Actual       :        -0.0003005339
	Energy ratio indicates good step: Trust radius increased to 1.000e+00.


	Performing BFGS update.
	Previous computed or guess Hessian on step 1.
	Steps to be used in Hessian update: 1
	Taking RFO optimization step.
	Going to follow RFO solution 1.
	Using RFO vector 1.
	Norm of target step-size    0.00347
	Projected energy change by RFO approximation:        -0.0000009101

	Back-transformation to cartesian coordinates...
	Successfully converged to displaced geometry.

	--- Internal Coordinate Step in ANG or DEG, aJ/ANG or AJ/DEG ---
	 ---------------------------------------------------------------------------
	   Coordinate                Previous        Force       Change         New 
	   ----------                --------       ------       ------       ------
	    1 R(1,2)          =      1.526262    -0.016465    -0.001838     1.524424
	 ---------------------------------------------------------------------------
	Successfully symmetrized geometry.

  ==> Convergence Check <==

  Measures of convergence in internal coordinates in au.
  Criteria marked as inactive (o), active & met (*), and active & unmet ( ).
  ---------------------------------------------------------------------------------------------
   Step     Total Energy     Delta E     MAX Force     RMS Force      MAX Disp      RMS Disp   
  ---------------------------------------------------------------------------------------------
    Convergence Criteria    1.00e-06 *    3.00e-04 *             o    1.20e-03 *             o
  ---------------------------------------------------------------------------------------------
      2    -436.21629122   -3.01e-04      2.00e-03      2.00e-03 o    3.47e-03      3.47e-03 o  ~
  ---------------------------------------------------------------------------------------------

	Writing optimization data to binary file.
	Structure for next step:
	Cartesian Geometry (in Angstrom)
	    C     0.0000000000   0.0000000000  -1.1088254490
	    S     0.0000000000   0.0000000000   0.4155987560
			--------------------------
			 OPTKING Finished Execution 
			--------------------------

    Structure for next step:
    Molecular point group: c2v
    Full point group: C_inf_v

    Geometry (in Angstrom), charge = 0, multiplicity = 1:

    C            0.000000000000     0.000000000000    -1.108408088800
    S            0.000000000000     0.000000000000     0.416016122104

gradient() will perform gradient computation by finite difference of analytic energies.

         ----------------------------------------------------------
                                   FINDIF
                     R. A. King and Jonathon Misiewicz
         ---------------------------------------------------------

  Using finite-differences of energies to determine gradients.
    Generating geometries for use with 3-point formula.
    Displacement size will be 5.00e-03.
    Number of atoms is 2.
    Number of symmetric SALCs is 1.
    Translations projected? 1. Rotations projected? 1.
    Number of geometries (including reference) is 3.

  //>>>>>>>>>>>>>>>>>>>>>>>>>>>>>>>>>>>//
  //    Loading displacement 1 of 3    //
  //<<<<<<<<<<<<<<<<<<<<<<<<<<<<<<<<<<<//

*** tstart() called on bp1-compute00139.data.bp.acrc.priv
*** at Tue Apr 27 17:43:42 2021

   => Loading Basis Set <=

    Name: CC-PV(T+D)Z
    Role: ORBITAL
    Keyword: BASIS
    atoms 1 entry C          line   195 file /work/zw18965/.conda/envs/p4env/share/psi4/basis/cc-pv_tpd_z.gbs 
    atoms 2 entry S          line   788 file /work/zw18965/.conda/envs/p4env/share/psi4/basis/cc-pv_tpd_z.gbs 


         ---------------------------------------------------------
                                   SCF
               by Justin Turney, Rob Parrish, Andy Simmonett
                          and Daniel G. A. Smith
                              RKS Reference
                       24 Threads, 137329 MiB Core
         ---------------------------------------------------------

  ==> Geometry <==

    Molecular point group: c2v
    Full point group: C_inf_v

    Geometry (in Angstrom), charge = 0, multiplicity = 1:

       Center              X                  Y                   Z               Mass       
    ------------   -----------------  -----------------  -----------------  -----------------
         C            0.000000000000     0.000000000000    -1.108408088800    12.000000000000
         S            0.000000000000     0.000000000000     0.416016122104    31.972071174400

  Running in c2v symmetry.

  Rotational constants: A = ************  B =      0.83140  C =      0.83140 [cm^-1]
  Rotational constants: A = ************  B =  24924.72809  C =  24924.72809 [MHz]
  Nuclear repulsion =   33.324721465965389

  Charge       = 0
  Multiplicity = 1
  Electrons    = 22
  Nalpha       = 11
  Nbeta        = 11

  ==> Algorithm <==

  SCF Algorithm Type is DF.
  DIIS enabled.
  MOM disabled.
  Fractional occupation disabled.
  Guess Type is READ.
  Energy threshold   = 1.00e-08
  Density threshold  = 1.00e-08
  Integral threshold = 0.00e+00

  ==> Primary Basis <==

  Basis Set: CC-PV(T+D)Z
    Blend: CC-PV(T+D)Z
    Number of shells: 23
    Number of basis function: 69
    Number of Cartesian functions: 80
    Spherical Harmonics?: true
    Max angular momentum: 3

  ==> DFT Potential <==

   => Composite Functional: WB97M-V <= 

    wB97M-V Hyb-GGA Exchange-Correlation Functional

    N. Mardirossian and M. Head-Gordon, J. Chem. Phys. 144, 214110 (2016)

    Deriv               =              1
    GGA                 =           TRUE
    Meta                =           TRUE

    Exchange Hybrid     =           TRUE
    MP2 Hybrid          =          FALSE

   => Exchange-Correlation Functionals <=

    1.0000   wB97M-V exchange-correlation functional

   => Exact (HF) Exchange <=

    0.8500            HF,LR [omega = 0.3000]
    0.1500               HF 

   => VV10 Non-Local Parameters <=

    VV10 B              =     6.0000E+00
    VV10 C              =     1.0000E-02

   => Molecular Quadrature <=

    Radial Scheme          =       TREUTLER
    Pruning Scheme         =           FLAT
    Nuclear Scheme         =       TREUTLER

    BS radius alpha        =              1
    Pruning alpha          =              1
    Radial Points          =             75
    Spherical Points       =            302
    Total Points           =          43067
    Total Blocks           =            393
    Max Points             =            256
    Max Functions          =             69

   => Loading Basis Set <=

    Name: (CC-PV(T+D)Z AUX)
    Role: JKFIT
    Keyword: DF_BASIS_SCF
    atoms 1 entry C          line   125 file /work/zw18965/.conda/envs/p4env/share/psi4/basis/cc-pvtz-jkfit.gbs 
    atoms 2 entry S          line   613 file /work/zw18965/.conda/envs/p4env/share/psi4/basis/cc-pvtz-jkfit.gbs 

   => Loading Basis Set <=

    Name: CC-PV(T+D)Z
    Role: ORBITAL
    Keyword: BASIS
    atoms 1 entry C          line   195 file /work/zw18965/.conda/envs/p4env/share/psi4/basis/cc-pv_tpd_z.gbs 
    atoms 2 entry S          line   788 file /work/zw18965/.conda/envs/p4env/share/psi4/basis/cc-pv_tpd_z.gbs 

  Reading orbitals from file 180, no projection.

  ==> Pre-Iterations <==

   -------------------------------------------------------
    Irrep   Nso     Nmo     Nalpha   Nbeta   Ndocc  Nsocc
   -------------------------------------------------------
     A1        30      30       0       0       0       0
     A2         7       7       0       0       0       0
     B1        16      16       0       0       0       0
     B2        16      16       0       0       0       0
   -------------------------------------------------------
    Total      69      69      11      11      11       0
   -------------------------------------------------------

  ==> Integral Setup <==

  ==> DiskDFJK: Density-Fitted J/K Matrices <==

    J tasked:                  Yes
    K tasked:                  Yes
    wK tasked:                 Yes
    Omega:               3.000E-01
    OpenMP threads:             24
    Integrals threads:          24
    Memory [MiB]:           102788
    Algorithm:                Core
    Integral Cache:           NONE
    Schwarz Cutoff:          1E-12
    Fitting Condition:       1E-10

   => Auxiliary Basis Set <=

  Basis Set: (CC-PV(T+D)Z AUX)
    Blend: CC-PVTZ-JKFIT
    Number of shells: 62
    Number of basis function: 200
    Number of Cartesian functions: 241
    Spherical Harmonics?: true
    Max angular momentum: 4

  Cached 100.0% of DFT collocation blocks in 0.204 [GiB].

  Minimum eigenvalue in the overlap matrix is 1.6341453672E-03.
  Using Symmetric Orthogonalization.

  SCF Guess: Orbitals guess was supplied from a previous computation.

  ==> Iterations <==

                           Total Energy        Delta E     RMS |[F,P]|

   @DF-RKS iter   0:  -436.21726894767050   -4.36217e+02   1.66989e-04 
   @DF-RKS iter   1:  -436.21629395759692    9.74990e-04   2.54925e-05 DIIS
   @DF-RKS iter   2:  -436.21629396826893   -1.06720e-08   2.77062e-05 DIIS
   @DF-RKS iter   3:  -436.21629451821133   -5.49942e-07   5.12860e-06 DIIS
   @DF-RKS iter   4:  -436.21629453499179   -1.67805e-08   6.45393e-07 DIIS
   @DF-RKS iter   5:  -436.21629453549372   -5.01927e-10   1.69177e-07 DIIS
   @DF-RKS iter   6:  -436.21629453554033   -4.66116e-11   2.30392e-08 DIIS
   @DF-RKS iter   7:  -436.21629453554141   -1.08002e-12   4.21042e-09 DIIS
  Energy and wave function converged.


  ==> Post-Iterations <==

    Orbital Energies [Eh]
    ---------------------

    Doubly Occupied:                                                      

       1A1   -89.248004     2A1   -10.441496     3A1    -8.167349  
       1B2    -6.073723     1B1    -6.073723     4A1    -6.072885  
       5A1    -0.957323     6A1    -0.627544     2B2    -0.450051  
       2B1    -0.450051     7A1    -0.410812  

    Virtual:                                                              

       3B2     0.004301     3B1     0.004301     8A1     0.156123  
       9A1     0.290855     4B2     0.331983     4B1     0.331983  
      10A1     0.381488     1A2     0.392735    11A1     0.392736  
       5B2     0.436667     5B1     0.436667    12A1     0.470793  
       6B2     0.517357     6B1     0.517357    13A1     0.675125  
       2A2     0.812557    14A1     0.812557    15A1     0.966089  
       7B2     1.097026     7B1     1.097026    16A1     1.183129  
      17A1     1.492676     3A2     1.492680     8B2     1.503947  
       8B1     1.503947    18A1     1.657789     9B1     1.694726  
       9B2     1.694726     4A2     1.757608    19A1     1.757609  
      20A1     1.847600    10B2     1.932983    10B1     1.932983  
      11B1     2.009270    11B2     2.009270    12B1     2.326050  
      12B2     2.326050    21A1     2.536344    22A1     2.544107  
      13B2     2.758698    13B1     2.758698    23A1     2.948379  
       5A2     2.948381     6A2     3.097664    24A1     3.097677  
      14B2     3.201238    14B1     3.201238    25A1     3.326095  
      26A1     3.507341    15B1     3.598239    15B2     3.598239  
      27A1     3.930011    28A1     6.383458    29A1     6.749363  
       7A2     6.749393    16B2     6.909389    16B1     6.909389  
      30A1     8.690092  

    Final Occupation by Irrep:
             A1    A2    B1    B2 
    DOCC [     7,    0,    2,    2 ]

  @DF-RKS Final Energy:  -436.21629453554141

   => Energetics <=

    Nuclear Repulsion Energy =             33.3247214659653892
    One-Electron Energy =                -666.3778680382800985
    Two-Electron Energy =                 220.3123240701815178
    DFT Exchange-Correlation Energy =     -23.5675289944440323
    Empirical Dispersion Energy =           0.0000000000000000
    VV10 Nonlocal Energy =                  0.0920569610358752
    Total Energy =                       -436.2162945355414081

Computation Completed


Properties will be evaluated at   0.000000,   0.000000,   0.000000 [a0]

Properties computed using the SCF density matrix

  Nuclear Dipole Moment: [e a0]
     X:     0.0000      Y:     0.0000      Z:     0.0110

  Electronic Dipole Moment: [e a0]
     X:     0.0000      Y:     0.0000      Z:     0.7526

  Dipole Moment: [e a0]
[...]
       2B2    -0.449901     7A1    -0.410899  

    Virtual:                                                              

       3B1     0.004162     3B2     0.004162     8A1     0.156040  
       9A1     0.290927     4B1     0.332042     4B2     0.332042  
      10A1     0.381439     1A2     0.392795    11A1     0.392796  
       5B2     0.436632     5B1     0.436632    12A1     0.470488  
       6B1     0.517126     6B2     0.517126    13A1     0.675158  
       2A2     0.812406    14A1     0.812407    15A1     0.965397  
       7B2     1.096716     7B1     1.096716    16A1     1.182935  
      17A1     1.492736     3A2     1.492740     8B1     1.503983  
       8B2     1.503983    18A1     1.657298     9B1     1.694799  
       9B2     1.694799     4A2     1.757409    19A1     1.757410  
      20A1     1.847664    10B1     1.932939    10B2     1.932939  
      11B1     2.009019    11B2     2.009019    12B2     2.325600  
      12B1     2.325600    21A1     2.536255    22A1     2.543505  
      13B2     2.758554    13B1     2.758554    23A1     2.947903  
       5A2     2.947904     6A2     3.097316    24A1     3.097330  
      14B2     3.200672    14B1     3.200672    25A1     3.325050  
      26A1     3.507870    15B2     3.597372    15B1     3.597372  
      27A1     3.927713    28A1     6.380762    29A1     6.749351  
       7A2     6.749381    16B1     6.908779    16B2     6.908779  
      30A1     8.680743  

    Final Occupation by Irrep:
             A1    A2    B1    B2 
    DOCC [     7,    0,    2,    2 ]

  @DF-RKS Final Energy:  -436.21629382477209

   => Energetics <=

    Nuclear Repulsion Energy =             33.3051515407471825
    One-Electron Energy =                -666.3390033024280683
    Two-Electron Energy =                 220.2925350861946470
    DFT Exchange-Correlation Energy =     -23.5670343844896593
    Empirical Dispersion Energy =           0.0000000000000000
    VV10 Nonlocal Energy =                  0.0920572352038822
    Total Energy =                       -436.2162938247720376

Computation Completed


Properties will be evaluated at   0.000000,   0.000000,   0.000000 [a0]

Properties computed using the SCF density matrix

  Nuclear Dipole Moment: [e a0]
     X:     0.0000      Y:     0.0000      Z:     0.0110

  Electronic Dipole Moment: [e a0]
     X:     0.0000      Y:     0.0000      Z:     0.7510

  Dipole Moment: [e a0]
     X:     0.0000      Y:     0.0000      Z:     0.7620     Total:     0.7620

  Dipole Moment: [D]
     X:     0.0000      Y:     0.0000      Z:     1.9368     Total:     1.9368


*** tstop() called on bp1-compute00139.data.bp.acrc.priv at Tue Apr 27 17:44:00 2021
Module time:
	user time   =      59.96 seconds =       1.00 minutes
	system time =       1.69 seconds =       0.03 minutes
	total time  =          3 seconds =       0.05 minutes
Total time:
	user time   =     695.15 seconds =      11.59 minutes
	system time =      22.77 seconds =       0.38 minutes
	total time  =         31 seconds =       0.52 minutes

  //>>>>>>>>>>>>>>>>>>>>>>>>>>>>>>>>>>>//
  //    Loading displacement 3 of 3    //
  //<<<<<<<<<<<<<<<<<<<<<<<<<<<<<<<<<<<//

*** tstart() called on bp1-compute00139.data.bp.acrc.priv
*** at Tue Apr 27 17:44:00 2021

   => Loading Basis Set <=

    Name: CC-PV(T+D)Z
    Role: ORBITAL
    Keyword: BASIS
    atoms 1 entry C          line   195 file /work/zw18965/.conda/envs/p4env/share/psi4/basis/cc-pv_tpd_z.gbs 
    atoms 2 entry S          line   788 file /work/zw18965/.conda/envs/p4env/share/psi4/basis/cc-pv_tpd_z.gbs 


         ---------------------------------------------------------
                                   SCF
               by Justin Turney, Rob Parrish, Andy Simmonett
                          and Daniel G. A. Smith
                              RKS Reference
                       24 Threads, 137329 MiB Core
         ---------------------------------------------------------

  ==> Geometry <==

    Molecular point group: c2v
    Full point group: C_inf_v

    Geometry (in Angstrom), charge = 0, multiplicity = 1:

       Center              X                  Y                   Z               Mass       
    ------------   -----------------  -----------------  -----------------  -----------------
         C            0.000000000000     0.000000000000    -1.107756794258    12.000000000000
         S            0.000000000000     0.000000000000     0.415771673301    31.972071174400

  Running in c2v symmetry.

  Rotational constants: A = ************  B =      0.83238  C =      0.83238 [cm^-1]
  Rotational constants: A = ************  B =  24954.04520  C =  24954.04520 [MHz]
  Nuclear repulsion =   33.344314403067699

  Charge       = 0
  Multiplicity = 1
  Electrons    = 22
  Nalpha       = 11
  Nbeta        = 11

  ==> Algorithm <==

  SCF Algorithm Type is DF.
  DIIS enabled.
  MOM disabled.
  Fractional occupation disabled.
  Guess Type is SAD.
  Energy threshold   = 1.00e-10
  Density threshold  = 1.00e-10
  Integral threshold = 0.00e+00

  ==> Primary Basis <==

  Basis Set: CC-PV(T+D)Z
    Blend: CC-PV(T+D)Z
    Number of shells: 23
    Number of basis function: 69
    Number of Cartesian functions: 80
    Spherical Harmonics?: true
    Max angular momentum: 3

  ==> DFT Potential <==

   => Composite Functional: WB97M-V <= 

    wB97M-V Hyb-GGA Exchange-Correlation Functional

    N. Mardirossian and M. Head-Gordon, J. Chem. Phys. 144, 214110 (2016)

    Deriv               =              1
    GGA                 =           TRUE
    Meta                =           TRUE

    Exchange Hybrid     =           TRUE
    MP2 Hybrid          =          FALSE

   => Exchange-Correlation Functionals <=

    1.0000   wB97M-V exchange-correlation functional

   => Exact (HF) Exchange <=

    0.8500            HF,LR [omega = 0.3000]
    0.1500               HF 

   => VV10 Non-Local Parameters <=

    VV10 B              =     6.0000E+00
    VV10 C              =     1.0000E-02

   => Molecular Quadrature <=

    Radial Scheme          =       TREUTLER
    Pruning Scheme         =           FLAT
    Nuclear Scheme         =       TREUTLER

    BS radius alpha        =              1
    Pruning alpha          =              1
    Radial Points          =             75
    Spherical Points       =            302
    Total Points           =          43067
    Total Blocks           =            393
    Max Points             =            256
    Max Functions          =             69

   => Loading Basis Set <=

    Name: (CC-PV(T+D)Z AUX)
    Role: JKFIT
    Keyword: DF_BASIS_SCF
    atoms 1 entry C          line   125 file /work/zw18965/.conda/envs/p4env/share/psi4/basis/cc-pvtz-jkfit.gbs 
    atoms 2 entry S          line   613 file /work/zw18965/.conda/envs/p4env/share/psi4/basis/cc-pvtz-jkfit.gbs 

  ==> Pre-Iterations <==

   -------------------------------------------------------
    Irrep   Nso     Nmo     Nalpha   Nbeta   Ndocc  Nsocc
   -------------------------------------------------------
     A1        30      30       0       0       0       0
     A2         7       7       0       0       0       0
     B1        16      16       0       0       0       0
     B2        16      16       0       0       0       0
   -------------------------------------------------------
    Total      69      69      11      11      11       0
   -------------------------------------------------------

  ==> Integral Setup <==

  ==> DiskDFJK: Density-Fitted J/K Matrices <==

    J tasked:                  Yes
    K tasked:                  Yes
    wK tasked:                 Yes
    Omega:               3.000E-01
    OpenMP threads:             24
    Integrals threads:          24
    Memory [MiB]:           102788
    Algorithm:                Core
    Integral Cache:           NONE
    Schwarz Cutoff:          1E-12
    Fitting Condition:       1E-10

   => Auxiliary Basis Set <=

  Basis Set: (CC-PV(T+D)Z AUX)
    Blend: CC-PVTZ-JKFIT
    Number of shells: 62
    Number of basis function: 200
    Number of Cartesian functions: 241
    Spherical Harmonics?: true
    Max angular momentum: 4

  Cached 100.0% of DFT collocation blocks in 0.204 [GiB].

  Minimum eigenvalue in the overlap matrix is 1.6296397388E-03.
  Using Symmetric Orthogonalization.

  SCF Guess: Superposition of Atomic Densities via on-the-fly atomic UHF.

  ==> Iterations <==

                           Total Energy        Delta E     RMS |[F,P]|

   @DF-RKS iter SAD:  -435.67779185873121   -4.35678e+02   0.00000e+00 
   @DF-RKS iter   1:  -436.17073068819144   -4.92939e-01   7.90154e-03 DIIS
   @DF-RKS iter   2:  -436.16050459619709    1.02261e-02   8.36127e-03 DIIS
   @DF-RKS iter   3:  -436.21505975711040   -5.45552e-02   1.36022e-03 DIIS
   @DF-RKS iter   4:  -436.21623850082153   -1.17874e-03   2.11895e-04 DIIS
   @DF-RKS iter   5:  -436.21628873153975   -5.02307e-05   6.14768e-05 DIIS
   @DF-RKS iter   6:  -436.21629260757993   -3.87604e-06   2.42085e-05 DIIS
   @DF-RKS iter   7:  -436.21629349043940   -8.82859e-07   2.70841e-06 DIIS
   @DF-RKS iter   8:  -436.21629351282826   -2.23889e-08   3.48289e-07 DIIS
   @DF-RKS iter   9:  -436.21629351309520   -2.66937e-10   5.12457e-08 DIIS
   @DF-RKS iter  10:  -436.21629351310094   -5.74119e-12   7.95366e-09 DIIS
   @DF-RKS iter  11:  -436.21629351310082    1.13687e-13   7.90666e-10 DIIS
   @DF-RKS iter  12:  -436.21629351310105   -2.27374e-13   1.69808e-10 DIIS
   @DF-RKS iter  13:  -436.21629351310082    2.27374e-13   1.99943e-11 DIIS
  Energy and wave function converged.


  ==> Post-Iterations <==

    Orbital Energies [Eh]
    ---------------------

    Doubly Occupied:                                                      

       1A1   -89.247935     2A1   -10.441221     3A1    -8.167333  
       1B2    -6.073703     1B1    -6.073703     4A1    -6.072865  
       5A1    -0.957576     6A1    -0.627494     2B2    -0.450201  
       2B1    -0.450201     7A1    -0.410726  

    Virtual:                                                              

       3B2     0.004440     3B1     0.004440     8A1     0.156205  
       9A1     0.290782     4B2     0.331924     4B1     0.331924  
      10A1     0.381537     1A2     0.392675    11A1     0.392675  
       5B1     0.436702     5B2     0.436702    12A1     0.471099  
       6B2     0.517588     6B1     0.517588    13A1     0.675092  
       2A2     0.812708    14A1     0.812709    15A1     0.966782  
       7B1     1.097336     7B2     1.097336    16A1     1.183324  
      17A1     1.492615     3A2     1.492619     8B2     1.503912  
       8B1     1.503912    18A1     1.658282     9B1     1.694653  
       9B2     1.694653     4A2     1.757807    19A1     1.757808  
      20A1     1.847537    10B2     1.933025    10B1     1.933025  
      11B2     2.009523    11B1     2.009523    12B1     2.326500  
      12B2     2.326500    21A1     2.536204    22A1     2.544942  
      13B2     2.758842    13B1     2.758842    23A1     2.948856  
       5A2     2.948857     6A2     3.098012    24A1     3.098025  
      14B1     3.201805    14B2     3.201805    25A1     3.327140  
      26A1     3.506812    15B1     3.599107    15B2     3.599107  
      27A1     3.932313    28A1     6.386148    29A1     6.749375  
       7A2     6.749405    16B2     6.910001    16B1     6.910001  
      30A1     8.699473  

    Final Occupation by Irrep:
             A1    A2    B1    B2 
    DOCC [     7,    0,    2,    2 ]

  @DF-RKS Final Energy:  -436.21629351310082

   => Energetics <=

    Nuclear Repulsion Energy =             33.3443144030676990
    One-Electron Energy =                -666.4167749655301805
    Two-Electron Energy =                 220.3321347473568892
    DFT Exchange-Correlation Energy =     -23.5680243851782407
    Empirical Dispersion Energy =           0.0000000000000000
    VV10 Nonlocal Energy =                  0.0920566871830955
    Total Energy =                       -436.2162935131007657

Computation Completed


Properties will be evaluated at   0.000000,   0.000000,   0.000000 [a0]

Properties computed using the SCF density matrix

  Nuclear Dipole Moment: [e a0]
     X:     0.0000      Y:     0.0000      Z:     0.0110

  Electronic Dipole Moment: [e a0]
     X:     0.0000      Y:     0.0000      Z:     0.7542

  Dipole Moment: [e a0]
     X:     0.0000      Y:     0.0000      Z:     0.7651     Total:     0.7651

  Dipole Moment: [D]
     X:     0.0000      Y:     0.0000      Z:     1.9448     Total:     1.9448


*** tstop() called on bp1-compute00139.data.bp.acrc.priv at Tue Apr 27 17:44:02 2021
Module time:
	user time   =      58.51 seconds =       0.98 minutes
	system time =       1.67 seconds =       0.03 minutes
	total time  =          2 seconds =       0.03 minutes
Total time:
	user time   =     753.78 seconds =      12.56 minutes
	system time =      24.45 seconds =       0.41 minutes
	total time  =         33 seconds =       0.55 minutes

         ----------------------------------------------------------
                                   FINDIF
                     R. A. King and Jonathon Misiewicz
         ---------------------------------------------------------

  Computing second-derivative from energies using projected, 
  symmetry-adapted, cartesian coordinates.

  3 energies passed in, including the reference geometry.
    Using 3-point formula.
    Energy without displacement: -436.2162945355
    Check energies below for precision!
    0: -1 :      -436.2162938248
    0: 1  :      -436.2162935131

-------------------------------------------------------------


  ==> Harmonic Vibrational Analysis <==

  non-mass-weighted Hessian:       Symmetric? True   Hermitian? True   Lin Dep Dim?  5 (0)
  projection of translations (True) and rotations (True) removed 5 degrees of freedom (5)
  total projector:                 Symmetric? True   Hermitian? True   Lin Dep Dim?  5 (5)
  mass-weighted Hessian:           Symmetric? True   Hermitian? True   Lin Dep Dim?  5 (0)
  pre-proj  low-frequency mode:    0.0000  [cm^-1]
  pre-proj  low-frequency mode:    0.0000  [cm^-1]
  pre-proj  low-frequency mode:    0.0000  [cm^-1]
  pre-proj  low-frequency mode:    0.0000  [cm^-1]
  pre-proj  low-frequency mode:    0.0000  [cm^-1]
  pre-proj  all modes:['0.0000' '0.0000' '0.0000' '0.0000' '0.0000' '1353.5051']
  projected mass-weighted Hessian: Symmetric? True   Hermitian? True   Lin Dep Dim?  5 (5)
  post-proj low-frequency mode:    0.0000  [cm^-1] (TR)
  post-proj low-frequency mode:    0.0000  [cm^-1] (TR)
  post-proj low-frequency mode:    0.0000  [cm^-1] (TR)
  post-proj low-frequency mode:    0.0000  [cm^-1] (TR)
  post-proj low-frequency mode:    0.0000  [cm^-1] (TR)
  post-proj  all modes:['0.0000' '0.0000' '0.0000' '0.0000' '0.0000' '1353.5051']

  Vibration                       6           
  Freq [cm^-1]                1353.5051       
  Irrep                           A1          
  Reduced mass [u]             14.4661        
  Force const [mDyne/A]        15.6142        
  Turning point v=0 [a0]        0.0784        
  RMS dev v=0 [a0 u^1/2]        0.2109        
  Char temp [K]               1947.3925       
  ----------------------------------------------------------------------------------
      1   C                0.00  0.00  0.94   
      2   S                0.00  0.00 -0.35   

  ==> Thermochemistry Components <==

  Entropy, S
    Electronic S            0.000 [cal/(mol K)]        0.000 [J/(mol K)]       0.00000000 [mEh/K] (multiplicity = 1)
    Translational S        37.269 [cal/(mol K)]      155.933 [J/(mol K)]       0.05939180 [mEh/K] (mol. weight = 43.9721 [u], P = 101325.00 [Pa])
    Rotational S           12.953 [cal/(mol K)]       54.197 [J/(mol K)]       0.02064269 [mEh/K] (symmetry no. = 1)
    Vibrational S           0.022 [cal/(mol K)]        0.091 [J/(mol K)]       0.00003479 [mEh/K]
  Total S                  50.244 [cal/(mol K)]      210.222 [J/(mol K)]       0.08006928 [mEh/K]
  Correction S              0.000 [cal/(mol K)]        0.000 [J/(mol K)]       0.00000000 [mEh/K]

  Constant volume heat capacity, Cv
    Electronic Cv           0.000 [cal/(mol K)]        0.000 [J/(mol K)]       0.00000000 [mEh/K]
    Translational Cv        2.981 [cal/(mol K)]       12.472 [J/(mol K)]       0.00475022 [mEh/K]
    Rotational Cv           1.987 [cal/(mol K)]        8.314 [J/(mol K)]       0.00316681 [mEh/K]
    Vibrational Cv          0.124 [cal/(mol K)]        0.518 [J/(mol K)]       0.00019738 [mEh/K]
  Total Cv                  5.092 [cal/(mol K)]       21.304 [J/(mol K)]       0.00811440 [mEh/K]
  Correction Cv             0.000 [cal/(mol K)]        0.000 [J/(mol K)]       0.00000000 [mEh/K]

  Constant pressure heat capacity, Cp
    Electronic Cp           0.000 [cal/(mol K)]        0.000 [J/(mol K)]       0.00000000 [mEh/K]
    Translational Cp        4.968 [cal/(mol K)]       20.786 [J/(mol K)]       0.00791703 [mEh/K]
    Rotational Cp           1.987 [cal/(mol K)]        8.314 [J/(mol K)]       0.00316681 [mEh/K]
    Vibrational Cp          0.124 [cal/(mol K)]        0.518 [J/(mol K)]       0.00019738 [mEh/K]
  Total Cp                  7.079 [cal/(mol K)]       29.619 [J/(mol K)]       0.01128121 [mEh/K]
  Correction Cp             0.000 [cal/(mol K)]        0.000 [J/(mol K)]       0.00000000 [mEh/K]

  ==> Thermochemistry Energy Analysis <==

  Raw electronic energy, E0
  Total E0, Electronic energy at well bottom at 0 [K]                 -436.21629454 [Eh]

  Zero-point energy, ZPE_vib = Sum_i nu_i / 2
    Electronic ZPE          0.000 [kcal/mol]        0.000 [kJ/mol]       0.00000000 [Eh]
    Translational ZPE       0.000 [kcal/mol]        0.000 [kJ/mol]       0.00000000 [Eh]
    Rotational ZPE          0.000 [kcal/mol]        0.000 [kJ/mol]       0.00000000 [Eh]
    Vibrational ZPE         1.935 [kcal/mol]        8.096 [kJ/mol]       0.00308351 [Eh]         676.753 [cm^-1]
  Correction ZPE            1.935 [kcal/mol]        8.096 [kJ/mol]       0.00308351 [Eh]         676.753 [cm^-1]
  Total ZPE, Electronic energy at 0 [K]                               -436.21321102 [Eh]

  Thermal Energy, E (includes ZPE)
    Electronic E            0.000 [kcal/mol]        0.000 [kJ/mol]       0.00000000 [Eh]
    Translational E         0.889 [kcal/mol]        3.718 [kJ/mol]       0.00141628 [Eh]
    Rotational E            0.592 [kcal/mol]        2.479 [kJ/mol]       0.00094418 [Eh]
    Vibrational E           1.941 [kcal/mol]        8.119 [kJ/mol]       0.00309251 [Eh]
  Correction E              3.422 [kcal/mol]       14.317 [kJ/mol]       0.00545297 [Eh]
  Total E, Electronic energy at  298.15 [K]                           -436.21084157 [Eh]

  Enthalpy, H_trans = E_trans + k_B * T
    Electronic H            0.000 [kcal/mol]        0.000 [kJ/mol]       0.00000000 [Eh]
    Translational H         1.481 [kcal/mol]        6.197 [kJ/mol]       0.00236046 [Eh]
    Rotational H            0.592 [kcal/mol]        2.479 [kJ/mol]       0.00094418 [Eh]
    Vibrational H           1.941 [kcal/mol]        8.119 [kJ/mol]       0.00309251 [Eh]
  Correction H              4.014 [kcal/mol]       16.796 [kJ/mol]       0.00639715 [Eh]
  Total H, Enthalpy at  298.15 [K]                                    -436.20989738 [Eh]

  Gibbs free energy, G = H - T * S
    Electronic G            0.000 [kcal/mol]        0.000 [kJ/mol]       0.00000000 [Eh]
    Translational G        -9.631 [kcal/mol]      -40.294 [kJ/mol]      -0.01534720 [Eh]
    Rotational G           -3.270 [kcal/mol]      -13.680 [kJ/mol]      -0.00521043 [Eh]
    Vibrational G           1.934 [kcal/mol]        8.092 [kJ/mol]       0.00308214 [Eh]
  Correction G            -10.966 [kcal/mol]      -45.882 [kJ/mol]      -0.01747550 [Eh]
  Total G, Free enthalpy at  298.15 [K]                               -436.23377004 [Eh]

    Psi4 stopped on: Tuesday, 27 April 2021 05:44PM
    Psi4 wall time for execution: 0:00:33.31

*** Psi4 exiting successfully. Buy a developer a beer!
