
    -----------------------------------------------------------------------
          Psi4: An Open-Source Ab Initio Electronic Structure Package
                               Psi4 1.3.2 release

                         Git: Rev {HEAD} ecbda83 


    R. M. Parrish, L. A. Burns, D. G. A. Smith, A. C. Simmonett,
    A. E. DePrince III, E. G. Hohenstein, U. Bozkaya, A. Yu. Sokolov,
    R. Di Remigio, R. M. Richard, J. F. Gonthier, A. M. James,
    H. R. McAlexander, A. Kumar, M. Saitow, X. Wang, B. P. Pritchard,
    P. Verma, H. F. Schaefer III, K. Patkowski, R. A. King, E. F. Valeev,
    F. A. Evangelista, J. M. Turney, T. D. Crawford, and C. D. Sherrill,
    J. Chem. Theory Comput. 13(7) pp 3185--3197 (2017).
    (doi: 10.1021/acs.jctc.7b00174)


                         Additional Contributions by
    P. Kraus, H. Kruse, M. H. Lechner, M. C. Schieber, R. A. Shaw,
    A. Alenaizan, R. Galvelis, Z. L. Glick, S. Lehtola, and J. P. Misiewicz

    -----------------------------------------------------------------------


    Psi4 started on: Tuesday, 27 April 2021 05:44PM

    Process ID: 188278
    Host:       bp1-compute00107.data.bp.acrc.priv
    PSIDATADIR: /work/zw18965/.conda/envs/p4env/share/psi4
    Memory:     500.0 MiB
    Threads:    24
    
  ==> Input File <==

--------------------------------------------------------------------------
memory 144 GB

molecule {
0 1
O 0.0000000000 0.0000000000 0.0000000000
C 0.0000000000 0.0000000000 1.2066000000
H 0.9369544103 0.0000000000 1.7870836544
H -0.9369544103 0.0000000000 1.7870836544
}

set dynamic_level 1
set basis cc-pV(T+d)Z
 
optimize("wB97M-V")
frequencies("wB97M-V")
--------------------------------------------------------------------------

  Memory set to 134.110 GiB by Python driver.
gradient() will perform gradient computation by finite difference of analytic energies.

         ----------------------------------------------------------
                                   FINDIF
                     R. A. King and Jonathon Misiewicz
         ---------------------------------------------------------

  Using finite-differences of energies to determine gradients.
    Generating geometries for use with 3-point formula.
    Displacement size will be 5.00e-03.
    Number of atoms is 4.
    Number of symmetric SALCs is 3.
    Translations projected? 1. Rotations projected? 1.
    Number of geometries (including reference) is 7.

  //>>>>>>>>>>>>>>>>>>>>>>>>>>>>>>>>>>>//
  //    Loading displacement 1 of 7    //
  //<<<<<<<<<<<<<<<<<<<<<<<<<<<<<<<<<<<//

*** tstart() called on bp1-compute00107.data.bp.acrc.priv
*** at Tue Apr 27 17:44:06 2021

   => Loading Basis Set <=

    Name: CC-PV(T+D)Z
    Role: ORBITAL
    Keyword: BASIS
    atoms 1   entry O          line   271 file /work/zw18965/.conda/envs/p4env/share/psi4/basis/cc-pv_tpd_z.gbs 
    atoms 2   entry C          line   195 file /work/zw18965/.conda/envs/p4env/share/psi4/basis/cc-pv_tpd_z.gbs 
    atoms 3-4 entry H          line    32 file /work/zw18965/.conda/envs/p4env/share/psi4/basis/cc-pv_tpd_z.gbs 


         ---------------------------------------------------------
                                   SCF
               by Justin Turney, Rob Parrish, Andy Simmonett
                          and Daniel G. A. Smith
                              RKS Reference
                       24 Threads, 137329 MiB Core
         ---------------------------------------------------------

  ==> Geometry <==

    Molecular point group: c2v
    Full point group: C2v

    Geometry (in Angstrom), charge = 0, multiplicity = 1:

       Center              X                  Y                   Z               Mass       
    ------------   -----------------  -----------------  -----------------  -----------------
         O            0.000000000000    -0.000000000000    -0.602499002387    15.994914619570
         C            0.000000000000    -0.000000000000     0.604100997613    12.000000000000
         H            0.936954410300     0.000000000000     1.184584652013     1.007825032230
         H           -0.936954410300    -0.000000000000     1.184584652013     1.007825032230

  Running in c2v symmetry.

  Rotational constants: A =      9.52674  B =      1.29535  C =      1.14030 [cm^-1]
  Rotational constants: A = 285604.56383  B =  38833.68662  C =  34185.48249 [MHz]
  Nuclear repulsion =   31.291072839251608

  Charge       = 0
  Multiplicity = 1
  Electrons    = 16
  Nalpha       = 8
  Nbeta        = 8

  ==> Algorithm <==

  SCF Algorithm Type is DF.
  DIIS enabled.
  MOM disabled.
  Fractional occupation disabled.
  Guess Type is SAD.
  Energy threshold   = 1.00e-08
  Density threshold  = 1.00e-08
  Integral threshold = 0.00e+00

  ==> Primary Basis <==

  Basis Set: CC-PV(T+D)Z
    Blend: CC-PV(T+D)Z
    Number of shells: 32
    Number of basis function: 88
    Number of Cartesian functions: 100
    Spherical Harmonics?: true
    Max angular momentum: 3

  ==> DFT Potential <==

   => Composite Functional: WB97M-V <= 

    wB97M-V Hyb-GGA Exchange-Correlation Functional

    N. Mardirossian and M. Head-Gordon, J. Chem. Phys. 144, 214110 (2016)

    Deriv               =              1
    GGA                 =           TRUE
    Meta                =           TRUE

    Exchange Hybrid     =           TRUE
    MP2 Hybrid          =          FALSE

   => Exchange-Correlation Functionals <=

    1.0000   wB97M-V exchange-correlation functional

   => Exact (HF) Exchange <=

    0.8500            HF,LR [omega = 0.3000]
    0.1500               HF 

   => VV10 Non-Local Parameters <=

    VV10 B              =     6.0000E+00
    VV10 C              =     1.0000E-02

   => Molecular Quadrature <=

    Radial Scheme          =       TREUTLER
    Pruning Scheme         =           FLAT
    Nuclear Scheme         =       TREUTLER

    BS radius alpha        =              1
    Pruning alpha          =              1
    Radial Points          =             75
    Spherical Points       =            302
    Total Points           =          88711
    Total Blocks           =            738
    Max Points             =            256
    Max Functions          =             88

   => Loading Basis Set <=

    Name: (CC-PV(T+D)Z AUX)
    Role: JKFIT
    Keyword: DF_BASIS_SCF
    atoms 1   entry O          line   229 file /work/zw18965/.conda/envs/p4env/share/psi4/basis/cc-pvtz-jkfit.gbs 
    atoms 2   entry C          line   125 file /work/zw18965/.conda/envs/p4env/share/psi4/basis/cc-pvtz-jkfit.gbs 
    atoms 3-4 entry H          line    51 file /work/zw18965/.conda/envs/p4env/share/psi4/basis/cc-pvtz-jkfit.gbs 

  ==> Pre-Iterations <==

   -------------------------------------------------------
    Irrep   Nso     Nmo     Nalpha   Nbeta   Ndocc  Nsocc
   -------------------------------------------------------
     A1        36      36       0       0       0       0
     A2        10      10       0       0       0       0
     B1        24      24       0       0       0       0
     B2        18      18       0       0       0       0
   -------------------------------------------------------
    Total      88      88       8       8       8       0
   -------------------------------------------------------

  ==> Integral Setup <==

  ==> DiskDFJK: Density-Fitted J/K Matrices <==

    J tasked:                  Yes
    K tasked:                  Yes
    wK tasked:                 Yes
    Omega:               3.000E-01
    OpenMP threads:             24
    Integrals threads:          24
    Memory [MiB]:           102472
    Algorithm:                Core
    Integral Cache:           NONE
    Schwarz Cutoff:          1E-12
    Fitting Condition:       1E-10

   => Auxiliary Basis Set <=

  Basis Set: (CC-PV(T+D)Z AUX)
    Blend: CC-PVTZ-JKFIT
    Number of shells: 70
    Number of basis function: 218
    Number of Cartesian functions: 262
    Spherical Harmonics?: true
    Max angular momentum: 4

  Cached 100.0% of DFT collocation blocks in 0.512 [GiB].

  Minimum eigenvalue in the overlap matrix is 2.1693113494E-03.
  Using Symmetric Orthogonalization.

  SCF Guess: Superposition of Atomic Densities via on-the-fly atomic UHF.

  ==> Iterations <==

                           Total Energy        Delta E     RMS |[F,P]|

   @DF-RKS iter SAD:  -113.86907127861677   -1.13869e+02   0.00000e+00 
   @DF-RKS iter   1:  -114.42349170339703   -5.54420e-01   9.50233e-03 DIIS
   @DF-RKS iter   2:  -114.39102307513534    3.24686e-02   1.19969e-02 DIIS
   @DF-RKS iter   3:  -114.50099059314130   -1.09968e-01   1.11491e-03 DIIS
   @DF-RKS iter   4:  -114.50219497028230   -1.20438e-03   3.02966e-04 DIIS
   @DF-RKS iter   5:  -114.50228920162731   -9.42313e-05   4.22086e-05 DIIS
   @DF-RKS iter   6:  -114.50229207662655   -2.87500e-06   8.58964e-06 DIIS
   @DF-RKS iter   7:  -114.50229228835673   -2.11730e-07   1.69485e-06 DIIS
   @DF-RKS iter   8:  -114.50229229561789   -7.26116e-09   4.58100e-07 DIIS
   @DF-RKS iter   9:  -114.50229229591359   -2.95699e-10   3.95252e-08 DIIS
   @DF-RKS iter  10:  -114.50229229591902   -5.42855e-12   1.06079e-08 DIIS
   @DF-RKS iter  11:  -114.50229229591940   -3.83693e-13   1.09274e-09 DIIS
  Energy and wave function converged.


  ==> Post-Iterations <==

    Orbital Energies [Eh]
    ---------------------

    Doubly Occupied:                                                      

       1A1   -19.351140     2A1   -10.442220     3A1    -1.189413  
       4A1    -0.753884     1B1    -0.607353     5A1    -0.562258  
       1B2    -0.506260     2B1    -0.374102  

    Virtual:                                                              

       2B2     0.044639     6A1     0.111879     3B1     0.171065  
       7A1     0.218966     3B2     0.363537     8A1     0.373119  
       4B1     0.403883     9A1     0.501924     5B1     0.514386  
      10A1     0.582100     1A2     0.619009    11A1     0.635414  
       4B2     0.745779     6B1     0.797634     5B2     0.844179  
      12A1     0.914997     7B1     0.965042     2A2     1.072825  
      13A1     1.079786     6B2     1.100474    14A1     1.177745  
       8B1     1.208820     9B1     1.333292    15A1     1.489759  
      16A1     1.613669     3A2     1.777711    17A1     1.820561  
       7B2     1.963166    10B1     2.090655    18A1     2.110954  
       8B2     2.133492    19A1     2.266561    11B1     2.419947  
      20A1     2.608959    12B1     2.628251     4A2     2.684990  
       9B2     2.785572    13B1     2.865734    21A1     2.933087  
      10B2     2.987219     5A2     3.033050    14B1     3.161782  
      22A1     3.184837    11B2     3.235787    15B1     3.349724  
      23A1     3.366973     6A2     3.407570    24A1     3.449893  
      16B1     3.661986    12B2     3.760604    25A1     3.862891  
       7A2     3.930294    17B1     3.936793    13B2     4.006328  
      26A1     4.148192    14B2     4.182866    27A1     4.449640  
      18B1     4.468300    15B2     4.633227    19B1     4.742153  
      28A1     4.757683     8A2     4.767877    29A1     5.045791  
      20B1     5.091506    30A1     5.241172    16B2     5.333269  
      21B1     5.339769    22B1     5.672086     9A2     5.772807  
      31A1     5.918919    32A1     6.237045    17B2     6.237917  
      10A2     6.452563    33A1     6.486034    18B2     6.891275  
      23B1     6.997152    34A1     7.102807    24B1     7.143223  
      35A1    10.545844    36A1    12.936389  

    Final Occupation by Irrep:
             A1    A2    B1    B2 
    DOCC [     5,    0,    2,    1 ]

  @DF-RKS Final Energy:  -114.50229229591940

   => Energetics <=

    Nuclear Repulsion Energy =             31.2910728392516084
    One-Electron Energy =                -217.4727195542066909
    Two-Electron Energy =                  82.0918181790749912
    DFT Exchange-Correlation Energy =     -10.4789704356224380
    Empirical Dispersion Energy =           0.0000000000000000
    VV10 Nonlocal Energy =                  0.0665066755831428
    Total Energy =                       -114.5022922959194034

Computation Completed


Properties will be evaluated at   0.000000,   0.000000,   0.000000 [a0]

Properties computed using the SCF density matrix

  Nuclear Dipole Moment: [e a0]
     X:     0.0000      Y:     0.0000      Z:     2.2181

  Electronic Dipole Moment: [e a0]
     X:     0.0000      Y:     0.0000      Z:    -1.2983

  Dipole Moment: [e a0]
     X:     0.0000      Y:     0.0000      Z:     0.9198     Total:     0.9198

  Dipole Moment: [D]
     X:     0.0000      Y:     0.0000      Z:     2.3379     Total:     2.3379


*** tstop() called on bp1-compute00107.data.bp.acrc.priv at Tue Apr 27 17:44:11 2021
Module time:
	user time   =      94.77 seconds =       1.58 minutes
	system time =       4.60 seconds =       0.08 minutes
	total time  =          5 seconds =       0.08 minutes
Total time:
	user time   =      94.77 seconds =       1.58 minutes
	system time =       4.60 seconds =       0.08 minutes
	total time  =          5 seconds =       0.08 minutes

  //>>>>>>>>>>>>>>>>>>>>>>>>>>>>>>>>>>>//
  //    Loading displacement 2 of 7    //
  //<<<<<<<<<<<<<<<<<<<<<<<<<<<<<<<<<<<//

*** tstart() called on bp1-compute00107.data.bp.acrc.priv
*** at Tue Apr 27 17:44:11 2021

   => Loading Basis Set <=

    Name: CC-PV(T+D)Z
    Role: ORBITAL
    Keyword: BASIS
    atoms 1   entry O          line   271 file /work/zw18965/.conda/envs/p4env/share/psi4/basis/cc-pv_tpd_z.gbs 
    atoms 2   entry C          line   195 file /work/zw18965/.conda/envs/p4env/share/psi4/basis/cc-pv_tpd_z.gbs 
    atoms 3-4 entry H          line    32 file /work/zw18965/.conda/envs/p4env/share/psi4/basis/cc-pv_tpd_z.gbs 


         ---------------------------------------------------------
                                   SCF
               by Justin Turney, Rob Parrish, Andy Simmonett
                          and Daniel G. A. Smith
                              RKS Reference
                       24 Threads, 137329 MiB Core
         ---------------------------------------------------------

  ==> Geometry <==

    Molecular point group: c2v
    Full point group: C2v

    Geometry (in Angstrom), charge = 0, multiplicity = 1:

       Center              X                  Y                   Z               Mass       
    ------------   -----------------  -----------------  -----------------  -----------------
         O            0.000000000000    -0.000000000000    -0.602951118217    15.994914619570
         C            0.000000000000    -0.000000000000     0.604616960417    12.000000000000
         H            0.936954410300     0.000000000000     1.185100614817     1.007825032230
         H           -0.936954410300    -0.000000000000     1.185100614817     1.007825032230

  Running in c2v symmetry.

  Rotational constants: A =      9.52674  B =      1.29350  C =      1.13887 [cm^-1]
  Rotational constants: A = 285604.56383  B =  38778.06810  C =  34142.37427 [MHz]
  Nuclear repulsion =   31.272414220564698

  Charge       = 0
  Multiplicity = 1
  Electrons    = 16
  Nalpha       = 8
  Nbeta        = 8

  ==> Algorithm <==

  SCF Algorithm Type is DF.
  DIIS enabled.
  MOM disabled.
  Fractional occupation disabled.
  Guess Type is SAD.
  Energy threshold   = 1.00e-08
  Density threshold  = 1.00e-08
  Integral threshold = 0.00e+00

  ==> Primary Basis <==

  Basis Set: CC-PV(T+D)Z
    Blend: CC-PV(T+D)Z
    Number of shells: 32
    Number of basis function: 88
    Number of Cartesian functions: 100
    Spherical Harmonics?: true
    Max angular momentum: 3

  ==> DFT Potential <==

   => Composite Functional: WB97M-V <= 

    wB97M-V Hyb-GGA Exchange-Correlation Functional

    N. Mardirossian and M. Head-Gordon, J. Chem. Phys. 144, 214110 (2016)

    Deriv               =              1
    GGA                 =           TRUE
    Meta                =           TRUE

    Exchange Hybrid     =           TRUE
    MP2 Hybrid          =          FALSE

   => Exchange-Correlation Functionals <=

    1.0000   wB97M-V exchange-correlation functional

   => Exact (HF) Exchange <=

    0.8500            HF,LR [omega = 0.3000]
    0.1500               HF 

   => VV10 Non-Local Parameters <=

    VV10 B              =     6.0000E+00
    VV10 C              =     1.0000E-02

   => Molecular Quadrature <=

    Radial Scheme          =       TREUTLER
    Pruning Scheme         =           FLAT
    Nuclear Scheme         =       TREUTLER

    BS radius alpha        =              1
    Pruning alpha          =              1
    Radial Points          =             75
    Spherical Points       =            302
    Total Points           =          88711
    Total Blocks           =            735
    Max Points             =            256
    Max Functions          =             88

   => Loading Basis Set <=

    Name: (CC-PV(T+D)Z AUX)
    Role: JKFIT
    Keyword: DF_BASIS_SCF
    atoms 1   entry O          line   229 file /work/zw18965/.conda/envs/p4env/share/psi4/basis/cc-pvtz-jkfit.gbs 
    atoms 2   entry C          line   125 file /work/zw18965/.conda/envs/p4env/share/psi4/basis/cc-pvtz-jkfit.gbs 
    atoms 3-4 entry H          line    51 file /work/zw18965/.conda/envs/p4env/share/psi4/basis/cc-pvtz-jkfit.gbs 

  ==> Pre-Iterations <==

   -------------------------------------------------------
    Irrep   Nso     Nmo     Nalpha   Nbeta   Ndocc  Nsocc
   -------------------------------------------------------
     A1        36      36       0       0       0       0
     A2        10      10       0       0       0       0
     B1        24      24       0       0       0       0
     B2        18      18       0       0       0       0
   -------------------------------------------------------
    Total      88      88       8       8       8       0
   -------------------------------------------------------

  ==> Integral Setup <==

  ==> DiskDFJK: Density-Fitted J/K Matrices <==

    J tasked:                  Yes
    K tasked:                  Yes
    wK tasked:                 Yes
    Omega:               3.000E-01
    OpenMP threads:             24
    Integrals threads:          24
    Memory [MiB]:           102472
    Algorithm:                Core
    Integral Cache:           NONE
    Schwarz Cutoff:          1E-12
    Fitting Condition:       1E-10

   => Auxiliary Basis Set <=

  Basis Set: (CC-PV(T+D)Z AUX)
    Blend: CC-PVTZ-JKFIT
    Number of shells: 70
    Number of basis function: 218
    Number of Cartesian functions: 262
    Spherical Harmonics?: true
    Max angular momentum: 4

  Cached 100.0% of DFT collocation blocks in 0.512 [GiB].

  Minimum eigenvalue in the overlap matrix is 2.1694872826E-03.
  Using Symmetric Orthogonalization.

  SCF Guess: Superposition of Atomic Densities via on-the-fly atomic UHF.

  ==> Iterations <==

                           Total Energy        Delta E     RMS |[F,P]|

   @DF-RKS iter SAD:  -113.86734028834846   -1.13867e+02   0.00000e+00 
   @DF-RKS iter   1:  -114.42349586666404   -5.56156e-01   9.49850e-03 DIIS
   @DF-RKS iter   2:  -114.39072801054503    3.27679e-02   1.20088e-02 DIIS
   @DF-RKS iter   3:  -114.50096364234437   -1.10236e-01   1.11444e-03 DIIS
   @DF-RKS iter   4:  -114.50216781149109   -1.20417e-03   3.03199e-04 DIIS
   @DF-RKS iter   5:  -114.50226219312350   -9.43816e-05   4.23318e-05 DIIS
   @DF-RKS iter   6:  -114.50226508350521   -2.89038e-06   8.62942e-06 DIIS
   @DF-RKS iter   7:  -114.50226529706794   -2.13563e-07   1.71014e-06 DIIS
   @DF-RKS iter   8:  -114.50226530444846   -7.38052e-09   4.62053e-07 DIIS
   @DF-RKS iter   9:  -114.50226530474920   -3.00744e-10   3.97467e-08 DIIS
   @DF-RKS iter  10:  -114.50226530475501   -5.81224e-12   1.06471e-08 DIIS
   @DF-RKS iter  11:  -114.50226530475520   -1.84741e-13   1.09544e-09 DIIS
  Energy and wave function converged.


  ==> Post-Iterations <==

    Orbital Energies [Eh]
    ---------------------

    Doubly Occupied:                                                      

       1A1   -19.351199     2A1   -10.442383     3A1    -1.188883  
       4A1    -0.754029     1B1    -0.607192     5A1    -0.562101  
       1B2    -0.505930     2B1    -0.374176  

    Virtual:                                                              

       2B2     0.044376     6A1     0.111829     3B1     0.170990  
       7A1     0.218911     3B2     0.363563     8A1     0.373086  
       4B1     0.403889     9A1     0.501883     5B1     0.514244  
      10A1     0.581624     1A2     0.618985    11A1     0.635117  
       4B2     0.745791     6B1     0.797650     5B2     0.843997  
      12A1     0.915029     7B1     0.965028     2A2     1.072851  
      13A1     1.079253     6B2     1.100342    14A1     1.177731  
       8B1     1.208373     9B1     1.333307    15A1     1.489683  
      16A1     1.613385     3A2     1.777359    17A1     1.820376  
       7B2     1.962548    10B1     2.090176    18A1     2.111466  
       8B2     2.133643    19A1     2.265924    11B1     2.419933  
      20A1     2.608220    12B1     2.628254     4A2     2.684850  
       9B2     2.785402    13B1     2.865900    21A1     2.933142  
      10B2     2.987500     5A2     3.033081    14B1     3.161123  
      22A1     3.184540    11B2     3.234969    15B1     3.349531  
      23A1     3.366750     6A2     3.407401    24A1     3.448687  
      16B1     3.661791    12B2     3.760322    25A1     3.862528  
       7A2     3.930057    17B1     3.936719    13B2     4.006111  
      26A1     4.147032    14B2     4.182125    27A1     4.449183  
      18B1     4.466843    15B2     4.633484    19B1     4.742298  
      28A1     4.757373     8A2     4.767659    29A1     5.046085  
      20B1     5.090899    30A1     5.240684    16B2     5.332850  
      21B1     5.339264    22B1     5.671840     9A2     5.771262  
      31A1     5.917118    32A1     6.234858    17B2     6.235405  
      10A2     6.452285    33A1     6.485655    18B2     6.890997  
      23B1     6.995442    34A1     7.102037    24B1     7.141520  
      35A1    10.542092    36A1    12.923641  

    Final Occupation by Irrep:
             A1    A2    B1    B2 
    DOCC [     5,    0,    2,    1 ]

  @DF-RKS Final Energy:  -114.50226530475520

   => Energetics <=

    Nuclear Repulsion Energy =             31.2724142205646984
    One-Electron Energy =                -217.4372240684573399
    Two-Electron Energy =                  82.0743223506286625
    DFT Exchange-Correlation Energy =     -10.4782846034583379
    Empirical Dispersion Energy =           0.0000000000000000
    VV10 Nonlocal Energy =                  0.0665067959671071
    Total Energy =                       -114.5022653047551984

Computation Completed


Properties will be evaluated at   0.000000,   0.000000,   0.000000 [a0]

Properties computed using the SCF density matrix

  Nuclear Dipole Moment: [e a0]
     X:     0.0000      Y:     0.0000      Z:     2.2191

  Electronic Dipole Moment: [e a0]
     X:     0.0000      Y:     0.0000      Z:    -1.2976

  Dipole Moment: [e a0]
     X:     0.0000      Y:     0.0000      Z:     0.9215     Total:     0.9215

  Dipole Moment: [D]
     X:     0.0000      Y:     0.0000      Z:     2.3421     Total:     2.3421


*** tstop() called on bp1-compute00107.data.bp.acrc.priv at Tue Apr 27 17:44:15 2021
Module time:
	user time   =      96.02 seconds =       1.60 minutes
	system time =       3.60 seconds =       0.06 minutes
	total time  =          4 seconds =       0.07 minutes
Total time:
	user time   =     190.96 seconds =       3.18 minutes
	system time =       8.21 seconds =       0.14 minutes
	total time  =          9 seconds =       0.15 minutes

  //>>>>>>>>>>>>>>>>>>>>>>>>>>>>>>>>>>>//
  //    Loading displacement 3 of 7    //
  //<<<<<<<<<<<<<<<<<<<<<<<<<<<<<<<<<<<//

*** tstart() called on bp1-compute00107.data.bp.acrc.priv
*** at Tue Apr 27 17:44:15 2021

   => Loading Basis Set <=

    Name: CC-PV(T+D)Z
    Role: ORBITAL
    Keyword: BASIS
    atoms 1   entry O          line   271 file /work/zw18965/.conda/envs/p4env/share/psi4/basis/cc-pv_tpd_z.gbs 
    atoms 2   entry C          line   195 file /work/zw18965/.conda/envs/p4env/share/psi4/basis/cc-pv_tpd_z.gbs 
    atoms 3-4 entry H          line    32 file /work/zw18965/.conda/envs/p4env/share/psi4/basis/cc-pv_tpd_z.gbs 


         ---------------------------------------------------------
                                   SCF
               by Justin Turney, Rob Parrish, Andy Simmonett
                          and Daniel G. A. Smith
                              RKS Reference
                       24 Threads, 137329 MiB Core
         ---------------------------------------------------------

  ==> Geometry <==

    Molecular point group: c2v
    Full point group: C2v

    Geometry (in Angstrom), charge = 0, multiplicity = 1:

       Center              X                  Y                   Z               Mass       
    ------------   -----------------  -----------------  -----------------  -----------------
         O            0.000000000000    -0.000000000000    -0.602046886557    15.994914619570
         C            0.000000000000    -0.000000000000     0.603585034810    12.000000000000
         H            0.936954410300     0.000000000000     1.184068689210     1.007825032230
         H           -0.936954410300    -0.000000000000     1.184068689210     1.007825032230

  Running in c2v symmetry.

  Rotational constants: A =      9.52674  B =      1.29721  C =      1.14175 [cm^-1]
  Rotational constants: A = 285604.56383  B =  38889.42301  C =  34228.66724 [MHz]
  Nuclear repulsion =   31.309759867027449

  Charge       = 0
  Multiplicity = 1
  Electrons    = 16
  Nalpha       = 8
  Nbeta        = 8

  ==> Algorithm <==

  SCF Algorithm Type is DF.
  DIIS enabled.
  MOM disabled.
  Fractional occupation disabled.
  Guess Type is SAD.
  Energy threshold   = 1.00e-08
  Density threshold  = 1.00e-08
  Integral threshold = 0.00e+00

  ==> Primary Basis <==

  Basis Set: CC-PV(T+D)Z
    Blend: CC-PV(T+D)Z
    Number of shells: 32
    Number of basis function: 88
    Number of Cartesian functions: 100
    Spherical Harmonics?: true
    Max angular momentum: 3

  ==> DFT Potential <==

   => Composite Functional: WB97M-V <= 

    wB97M-V Hyb-GGA Exchange-Correlation Functional

    N. Mardirossian and M. Head-Gordon, J. Chem. Phys. 144, 214110 (2016)

    Deriv               =              1
    GGA                 =           TRUE
    Meta                =           TRUE

    Exchange Hybrid     =           TRUE
    MP2 Hybrid          =          FALSE

   => Exchange-Correlation Functionals <=

    1.0000   wB97M-V exchange-correlation functional

   => Exact (HF) Exchange <=

    0.8500            HF,LR [omega = 0.3000]
    0.1500               HF 

   => VV10 Non-Local Parameters <=

    VV10 B              =     6.0000E+00
    VV10 C              =     1.0000E-02

   => Molecular Quadrature <=

    Radial Scheme          =       TREUTLER
    Pruning Scheme         =           FLAT
    Nuclear Scheme         =       TREUTLER

    BS radius alpha        =              1
    Pruning alpha          =              1
    Radial Points          =             75
    Spherical Points       =            302
    Total Points           =          88711
    Total Blocks           =            738
    Max Points             =            256
    Max Functions          =             88

   => Loading Basis Set <=

    Name: (CC-PV(T+D)Z AUX)
    Role: JKFIT
    Keyword: DF_BASIS_SCF
    atoms 1   entry O          line   229 file /work/zw18965/.conda/envs/p4env/share/psi4/basis/cc-pvtz-jkfit.gbs 
    atoms 2   entry C          line   125 file /work/zw18965/.conda/envs/p4env/share/psi4/basis/cc-pvtz-jkfit.gbs 
    atoms 3-4 entry H          line    51 file /work/zw18965/.conda/envs/p4env/share/psi4/basis/cc-pvtz-jkfit.gbs 

  ==> Pre-Iterations <==

   -------------------------------------------------------
    Irrep   Nso     Nmo     Nalpha   Nbeta   Ndocc  Nsocc
   -------------------------------------------------------
     A1        36      36       0       0       0       0
     A2        10      10       0       0       0       0
     B1        24      24       0       0       0       0
     B2        18      18       0       0       0       0
   -------------------------------------------------------
    Total      88      88       8       8       8       0
   -------------------------------------------------------

  ==> Integral Setup <==

  ==> DiskDFJK: Density-Fitted J/K Matrices <==

    J tasked:                  Yes
    K tasked:                  Yes
    wK tasked:                 Yes
    Omega:               3.000E-01
    OpenMP threads:             24
    Integrals threads:          24
    Memory [MiB]:           102472
    Algorithm:                Core
    Integral Cache:           NONE
    Schwarz Cutoff:          1E-12
    Fitting Condition:       1E-10

   => Auxiliary Basis Set <=

  Basis Set: (CC-PV(T+D)Z AUX)
    Blend: CC-PVTZ-JKFIT
    Number of shells: 70
    Number of basis function: 218
    Number of Cartesian functions: 262
    Spherical Harmonics?: true
    Max angular momentum: 4

  Cached 100.0% of DFT collocation blocks in 0.512 [GiB].

  Minimum eigenvalue in the overlap matrix is 2.1691353968E-03.
  Using Symmetric Orthogonalization.

  SCF Guess: Superposition of Atomic Densities via on-the-fly atomic UHF.

  ==> Iterations <==

                           Total Energy        Delta E     RMS |[F,P]|

   @DF-RKS iter SAD:  -113.87080410758443   -1.13871e+02   0.00000e+00 
   @DF-RKS iter   1:  -114.42348381991729   -5.52680e-01   9.50622e-03 DIIS
   @DF-RKS iter   2:  -114.39131316974579    3.21707e-02   1.19850e-02 DIIS
   @DF-RKS iter   3:  -114.50101465067915   -1.09701e-01   1.11537e-03 DIIS
   @DF-RKS iter   4:  -114.50221923886258   -1.20459e-03   3.02734e-04 DIIS
   @DF-RKS iter   5:  -114.50231332115516   -9.40823e-05   4.20860e-05 DIIS
   @DF-RKS iter   6:  -114.50231618091129   -2.85976e-06   8.55015e-06 DIIS
   @DF-RKS iter   7:  -114.50231639083297   -2.09922e-07   1.67964e-06 DIIS
   @DF-RKS iter   8:  -114.50231639797668   -7.14371e-09   4.54153e-07 DIIS
   @DF-RKS iter   9:  -114.50231639826715   -2.90470e-10   3.93014e-08 DIIS
   @DF-RKS iter  10:  -114.50231639827253   -5.37170e-12   1.05682e-08 DIIS
   @DF-RKS iter  11:  -114.50231639827285   -3.26850e-13   1.09012e-09 DIIS
  Energy and wave function converged.


  ==> Post-Iterations <==

    Orbital Energies [Eh]
    ---------------------

    Doubly Occupied:                                                      

       1A1   -19.351080     2A1   -10.442057     3A1    -1.189944  
       4A1    -0.753738     1B1    -0.607515     5A1    -0.562416  
       1B2    -0.506590     2B1    -0.374028  

    Virtual:                                                              

       2B2     0.044902     6A1     0.111928     3B1     0.171141  
       7A1     0.219021     3B2     0.363511     8A1     0.373151  
       4B1     0.403877     9A1     0.501965     5B1     0.514528  
      10A1     0.582567     1A2     0.619032    11A1     0.635720  
       4B2     0.745766     6B1     0.797618     5B2     0.844363  
      12A1     0.914964     7B1     0.965057     2A2     1.072799  
      13A1     1.080317     6B2     1.100606    14A1     1.177765  
       8B1     1.209267     9B1     1.333277    15A1     1.489835  
      16A1     1.613953     3A2     1.778064    17A1     1.820745  
       7B2     1.963784    10B1     2.091135    18A1     2.110442  
       8B2     2.133338    19A1     2.267200    11B1     2.419961  
      20A1     2.609700    12B1     2.628245     4A2     2.685129  
       9B2     2.785743    13B1     2.865570    21A1     2.933033  
      10B2     2.986937     5A2     3.033019    14B1     3.162441  
      22A1     3.185136    11B2     3.236607    15B1     3.349918  
      23A1     3.367197     6A2     3.407740    24A1     3.451097  
      16B1     3.662180    12B2     3.760887    25A1     3.863253  
       7A2     3.930532    17B1     3.936867    13B2     4.006544  
      26A1     4.149349    14B2     4.183608    27A1     4.450103  
      18B1     4.469759    15B2     4.632969    19B1     4.742008  
      28A1     4.757999     8A2     4.768096    29A1     5.045496  
      20B1     5.092113    30A1     5.241658    16B2     5.333690  
      21B1     5.340276    22B1     5.672331     9A2     5.774355  
      31A1     5.920721    32A1     6.239249    17B2     6.240432  
      10A2     6.452842    33A1     6.486414    18B2     6.891549  
      23B1     6.998833    34A1     7.103580    24B1     7.144954  
      35A1    10.549582    36A1    12.949183  

    Final Occupation by Irrep:
             A1    A2    B1    B2 
    DOCC [     5,    0,    2,    1 ]

  @DF-RKS Final Energy:  -114.50231639827285

   => Energetics <=

    Nuclear Repulsion Energy =             31.3097598670274486
    One-Electron Energy =                -217.5082616792936108
    Two-Electron Energy =                  82.1093366788480807
    DFT Exchange-Correlation Energy =     -10.4796578224479973
    Empirical Dispersion Energy =           0.0000000000000000
    VV10 Nonlocal Energy =                  0.0665065575932268
    Total Energy =                       -114.5023163982728391

Computation Completed


Properties will be evaluated at   0.000000,   0.000000,   0.000000 [a0]

Properties computed using the SCF density matrix

  Nuclear Dipole Moment: [e a0]
     X:     0.0000      Y:     0.0000      Z:     2.2172

  Electronic Dipole Moment: [e a0]
     X:     0.0000      Y:     0.0000      Z:    -1.2991

  Dipole Moment: [e a0]
     X:     0.0000      Y:     0.0000      Z:     0.9181     Total:     0.9181

  Dipole Moment: [D]
     X:     0.0000      Y:     0.0000      Z:     2.3336     Total:     2.3336


*** tstop() called on bp1-compute00107.data.bp.acrc.priv at Tue Apr 27 17:44:19 2021
Module time:
	user time   =      91.40 seconds =       1.52 minutes
	system time =       2.79 seconds =       0.05 minutes
	total time  =          4 seconds =       0.07 minutes
Total time:
	user time   =     282.52 seconds =       4.71 minutes
	system time =      11.01 seconds =       0.18 minutes
	total time  =         13 seconds =       0.22 minutes

  //>>>>>>>>>>>>>>>>>>>>>>>>>>>>>>>>>>>//
  //    Loading displacement 4 of 7    //
  //<<<<<<<<<<<<<<<<<<<<<<<<<<<<<<<<<<<//

*** tstart() called on bp1-compute00107.data.bp.acrc.priv
*** at Tue Apr 27 17:44:19 2021

   => Loading Basis Set <=

    Name: CC-PV(T+D)Z
    Role: ORBITAL
    Keyword: BASIS
    atoms 1   entry O          line   271 file /work/zw18965/.conda/envs/p4env/share/psi4/basis/cc-pv_tpd_z.gbs 
    atoms 2   entry C          line   195 file /work/zw18965/.conda/envs/p4env/share/psi4/basis/cc-pv_tpd_z.gbs 
    atoms 3-4 entry H          line    32 file /work/zw18965/.conda/envs/p4env/share/psi4/basis/cc-pv_tpd_z.gbs 


         ---------------------------------------------------------
                                   SCF
               by Justin Turney, Rob Parrish, Andy Simmonett
                          and Daniel G. A. Smith
                              RKS Reference
                       24 Threads, 137329 MiB Core
         ---------------------------------------------------------

  ==> Geometry <==

    Molecular point group: c2v
    Full point group: C2v

    Geometry (in Angstrom), charge = 0, multiplicity = 1:

       Center              X                  Y                   Z               Mass       
    ------------   -----------------  -----------------  -----------------  -----------------
         O            0.000000000000    -0.000000000000    -0.602499002387    15.994914619570
         C            0.000000000000    -0.000000000000     0.603811342327    12.000000000000
         H            0.936954410300     0.000000000000     1.186309089952     1.007825032230
         H           -0.936954410300    -0.000000000000     1.186309089952     1.007825032230

  Running in c2v symmetry.

  Rotational constants: A =      9.52674  B =      1.29495  C =      1.13999 [cm^-1]
  Rotational constants: A = 285604.56383  B =  38821.62792  C =  34176.13741 [MHz]
  Nuclear repulsion =   31.287407525849975

  Charge       = 0
  Multiplicity = 1
  Electrons    = 16
  Nalpha       = 8
  Nbeta        = 8

  ==> Algorithm <==

  SCF Algorithm Type is DF.
  DIIS enabled.
  MOM disabled.
  Fractional occupation disabled.
  Guess Type is SAD.
  Energy threshold   = 1.00e-08
  Density threshold  = 1.00e-08
  Integral threshold = 0.00e+00

  ==> Primary Basis <==

  Basis Set: CC-PV(T+D)Z
    Blend: CC-PV(T+D)Z
    Number of shells: 32
    Number of basis function: 88
    Number of Cartesian functions: 100
    Spherical Harmonics?: true
    Max angular momentum: 3

  ==> DFT Potential <==

   => Composite Functional: WB97M-V <= 

    wB97M-V Hyb-GGA Exchange-Correlation Functional

    N. Mardirossian and M. Head-Gordon, J. Chem. Phys. 144, 214110 (2016)

    Deriv               =              1
    GGA                 =           TRUE
    Meta                =           TRUE

    Exchange Hybrid     =           TRUE
    MP2 Hybrid          =          FALSE

   => Exchange-Correlation Functionals <=

    1.0000   wB97M-V exchange-correlation functional

   => Exact (HF) Exchange <=

    0.8500            HF,LR [omega = 0.3000]
    0.1500               HF 

   => VV10 Non-Local Parameters <=

    VV10 B              =     6.0000E+00
    VV10 C              =     1.0000E-02

   => Molecular Quadrature <=

    Radial Scheme          =       TREUTLER
    Pruning Scheme         =           FLAT
    Nuclear Scheme         =       TREUTLER

    BS radius alpha        =              1
    Pruning alpha          =              1
    Radial Points          =             75
    Spherical Points       =            302
    Total Points           =          88711
    Total Blocks           =            736
    Max Points             =            256
    Max Functions          =             88

   => Loading Basis Set <=

    Name: (CC-PV(T+D)Z AUX)
    Role: JKFIT
    Keyword: DF_BASIS_SCF
    atoms 1   entry O          line   229 file /work/zw18965/.conda/envs/p4env/share/psi4/basis/cc-pvtz-jkfit.gbs 
    atoms 2   entry C          line   125 file /work/zw18965/.conda/envs/p4env/share/psi4/basis/cc-pvtz-jkfit.gbs 
    atoms 3-4 entry H          line    51 file /work/zw18965/.conda/envs/p4env/share/psi4/basis/cc-pvtz-jkfit.gbs 

  ==> Pre-Iterations <==

   -------------------------------------------------------
    Irrep   Nso     Nmo     Nalpha   Nbeta   Ndocc  Nsocc
   -------------------------------------------------------
     A1        36      36       0       0       0       0
     A2        10      10       0       0       0       0
     B1        24      24       0       0       0       0
     B2        18      18       0       0       0       0
   -------------------------------------------------------
    Total      88      88       8       8       8       0
   -------------------------------------------------------

  ==> Integral Setup <==

  ==> DiskDFJK: Density-Fitted J/K Matrices <==

    J tasked:                  Yes
    K tasked:                  Yes
    wK tasked:                 Yes
    Omega:               3.000E-01
    OpenMP threads:             24
    Integrals threads:          24
    Memory [MiB]:           102472
    Algorithm:                Core
    Integral Cache:           NONE
    Schwarz Cutoff:          1E-12
    Fitting Condition:       1E-10

   => Auxiliary Basis Set <=

  Basis Set: (CC-PV(T+D)Z AUX)
    Blend: CC-PVTZ-JKFIT
    Number of shells: 70
    Number of basis function: 218
    Number of Cartesian functions: 262
    Spherical Harmonics?: true
    Max angular momentum: 4

  Cached 100.0% of DFT collocation blocks in 0.512 [GiB].

  Minimum eigenvalue in the overlap matrix is 2.1757475476E-03.
  Using Symmetric Orthogonalization.

  SCF Guess: Superposition of Atomic Densities via on-the-fly atomic UHF.

  ==> Iterations <==

                           Total Energy        Delta E     RMS |[F,P]|

   @DF-RKS iter SAD:  -113.86890631727140   -1.13869e+02   0.00000e+00 
   @DF-RKS iter   1:  -114.42345158959584   -5.54545e-01   9.50521e-03 DIIS
   @DF-RKS iter   2:  -114.39084866604229    3.26029e-02   1.20060e-02 DIIS
   @DF-RKS iter   3:  -114.50100041031212   -1.10152e-01   1.11373e-03 DIIS
   @DF-RKS iter   4:  -114.50220271643482   -1.20231e-03   3.02978e-04 DIIS
   @DF-RKS iter   5:  -114.50229708839437   -9.43720e-05   4.22109e-05 DIIS
   @DF-RKS iter   6:  -114.50229996947155   -2.88108e-06   8.57527e-06 DIIS
   @DF-RKS iter   7:  -114.50230018105222   -2.11581e-07   1.68701e-06 DIIS
   @DF-RKS iter   8:  -114.50230018826136   -7.20914e-09   4.58076e-07 DIIS
   @DF-RKS iter   9:  -114.50230018855679   -2.95429e-10   3.96053e-08 DIIS
   @DF-RKS iter  10:  -114.50230018856251   -5.72697e-12   1.06313e-08 DIIS
   @DF-RKS iter  11:  -114.50230018856274   -2.27374e-13   1.09867e-09 DIIS
  Energy and wave function converged.


  ==> Post-Iterations <==

    Orbital Energies [Eh]
    ---------------------

    Doubly Occupied:                                                      

       1A1   -19.351286     2A1   -10.442442     3A1    -1.189650  
       4A1    -0.753717     1B1    -0.607020     5A1    -0.562454  
       1B2    -0.506436     2B1    -0.374101  

    Virtual:                                                              

       2B2     0.044663     6A1     0.111756     3B1     0.171157  
       7A1     0.218934     3B2     0.363514     8A1     0.373391  
       4B1     0.403584     9A1     0.501646     5B1     0.513616  
      10A1     0.582073     1A2     0.619006    11A1     0.635559  
       4B2     0.745595     6B1     0.797568     5B2     0.843817  
      12A1     0.914814     7B1     0.965585     2A2     1.072188  
      13A1     1.078582     6B2     1.101058    14A1     1.177697  
       8B1     1.208409     9B1     1.332919    15A1     1.489116  
      16A1     1.614210     3A2     1.777338    17A1     1.821197  
       7B2     1.963394    10B1     2.090430    18A1     2.110991  
       8B2     2.133132    19A1     2.265956    11B1     2.419533  
      20A1     2.608965    12B1     2.629368     4A2     2.685056  
       9B2     2.784456    13B1     2.865520    21A1     2.933025  
      10B2     2.986984     5A2     3.034095    14B1     3.159840  
      22A1     3.185366    11B2     3.235669    15B1     3.349492  
      23A1     3.365819     6A2     3.406358    24A1     3.448104  
      16B1     3.660488    12B2     3.760798    25A1     3.861444  
       7A2     3.929255    17B1     3.937567    13B2     4.004655  
      26A1     4.148283    14B2     4.183372    27A1     4.447692  
      18B1     4.466035    15B2     4.630933    19B1     4.739201  
      28A1     4.755641     8A2     4.764892    29A1     5.043728  
      20B1     5.088699    30A1     5.239736    16B2     5.332691  
      21B1     5.338655    22B1     5.672804     9A2     5.773213  
      31A1     5.917920    32A1     6.236946    17B2     6.238589  
      10A2     6.452314    33A1     6.485882    18B2     6.891255  
      23B1     6.995985    34A1     7.102881    24B1     7.143101  
      35A1    10.539166    36A1    12.932956  

    Final Occupation by Irrep:
             A1    A2    B1    B2 
    DOCC [     5,    0,    2,    1 ]

  @DF-RKS Final Energy:  -114.50230018856274

   => Energetics <=

    Nuclear Repulsion Energy =             31.2874075258499751
    One-Electron Energy =                -217.4647323991226813
    Two-Electron Energy =                  82.0870271675819652
    DFT Exchange-Correlation Energy =     -10.4785088291261381
    Empirical Dispersion Energy =           0.0000000000000000
    VV10 Nonlocal Energy =                  0.0665063462541558
    Total Energy =                       -114.5023001885627281

Computation Completed


Properties will be evaluated at   0.000000,   0.000000,   0.000000 [a0]

Properties computed using the SCF density matrix

  Nuclear Dipole Moment: [e a0]
     X:     0.0000      Y:     0.0000      Z:     2.2214

  Electronic Dipole Moment: [e a0]
     X:     0.0000      Y:     0.0000      Z:    -1.3025

  Dipole Moment: [e a0]
     X:     0.0000      Y:     0.0000      Z:     0.9189     Total:     0.9189

  Dipole Moment: [D]
     X:     0.0000      Y:     0.0000      Z:     2.3356     Total:     2.3356


*** tstop() called on bp1-compute00107.data.bp.acrc.priv at Tue Apr 27 17:44:23 2021
Module time:
	user time   =      90.29 seconds =       1.50 minutes
	system time =       2.47 seconds =       0.04 minutes
	total time  =          4 seconds =       0.07 minutes
Total time:
	user time   =     372.96 seconds =       6.22 minutes
	system time =      13.49 seconds =       0.22 minutes
	total time  =         17 seconds =       0.28 minutes

  //>>>>>>>>>>>>>>>>>>>>>>>>>>>>>>>>>>>//
  //    Loading displacement 5 of 7    //
  //<<<<<<<<<<<<<<<<<<<<<<<<<<<<<<<<<<<//

*** tstart() called on bp1-compute00107.data.bp.acrc.priv
*** at Tue Apr 27 17:44:23 2021

   => Loading Basis Set <=

    Name: CC-PV(T+D)Z
    Role: ORBITAL
    Keyword: BASIS
    atoms 1   entry O          line   271 file /work/zw18965/.conda/envs/p4env/share/psi4/basis/cc-pv_tpd_z.gbs 
    atoms 2   entry C          line   195 file /work/zw18965/.conda/envs/p4env/share/psi4/basis/cc-pv_tpd_z.gbs 
    atoms 3-4 entry H          line    32 file /work/zw18965/.conda/envs/p4env/share/psi4/basis/cc-pv_tpd_z.gbs 


         ---------------------------------------------------------
                                   SCF
               by Justin Turney, Rob Parrish, Andy Simmonett
                          and Daniel G. A. Smith
                              RKS Reference
                       24 Threads, 137329 MiB Core
         ---------------------------------------------------------

  ==> Geometry <==

    Molecular point group: c2v
    Full point group: C2v

    Geometry (in Angstrom), charge = 0, multiplicity = 1:

       Center              X                  Y                   Z               Mass       
    ------------   -----------------  -----------------  -----------------  -----------------
         O            0.000000000000    -0.000000000000    -0.602499002387    15.994914619570
         C            0.000000000000    -0.000000000000     0.604390652900    12.000000000000
         H            0.936954410300     0.000000000000     1.182860214075     1.007825032230
         H           -0.936954410300    -0.000000000000     1.182860214075     1.007825032230

  Running in c2v symmetry.

  Rotational constants: A =      9.52674  B =      1.29575  C =      1.14062 [cm^-1]
  Rotational constants: A = 285604.56383  B =  38845.71101  C =  34194.80028 [MHz]
  Nuclear repulsion =   31.294741495946525

  Charge       = 0
  Multiplicity = 1
  Electrons    = 16
  Nalpha       = 8
  Nbeta        = 8

  ==> Algorithm <==

  SCF Algorithm Type is DF.
  DIIS enabled.
  MOM disabled.
  Fractional occupation disabled.
  Guess Type is SAD.
  Energy threshold   = 1.00e-08
  Density threshold  = 1.00e-08
  Integral threshold = 0.00e+00

  ==> Primary Basis <==

  Basis Set: CC-PV(T+D)Z
    Blend: CC-PV(T+D)Z
    Number of shells: 32
    Number of basis function: 88
    Number of Cartesian functions: 100
    Spherical Harmonics?: true
    Max angular momentum: 3

  ==> DFT Potential <==

   => Composite Functional: WB97M-V <= 

    wB97M-V Hyb-GGA Exchange-Correlation Functional

    N. Mardirossian and M. Head-Gordon, J. Chem. Phys. 144, 214110 (2016)

    Deriv               =              1
    GGA                 =           TRUE
    Meta                =           TRUE

    Exchange Hybrid     =           TRUE
    MP2 Hybrid          =          FALSE

   => Exchange-Correlation Functionals <=

    1.0000   wB97M-V exchange-correlation functional

   => Exact (HF) Exchange <=

    0.8500            HF,LR [omega = 0.3000]
    0.1500               HF 

   => VV10 Non-Local Parameters <=

    VV10 B              =     6.0000E+00
    VV10 C              =     1.0000E-02

   => Molecular Quadrature <=

    Radial Scheme          =       TREUTLER
    Pruning Scheme         =           FLAT
    Nuclear Scheme         =       TREUTLER

    BS radius alpha        =              1
    Pruning alpha          =              1
    Radial Points          =             75
    Spherical Points       =            302
    Total Points           =          88711
    Total Blocks           =            736
    Max Points             =            256
    Max Functions          =             88

   => Loading Basis Set <=

    Name: (CC-PV(T+D)Z AUX)
    Role: JKFIT
    Keyword: DF_BASIS_SCF
    atoms 1   entry O          line   229 file /work/zw18965/.conda/envs/p4env/share/psi4/basis/cc-pvtz-jkfit.gbs 
    atoms 2   entry C          line   125 file /work/zw18965/.conda/envs/p4env/share/psi4/basis/cc-pvtz-jkfit.gbs 
    atoms 3-4 entry H          line    51 file /work/zw18965/.conda/envs/p4env/share/psi4/basis/cc-pvtz-jkfit.gbs 

  ==> Pre-Iterations <==

   -------------------------------------------------------
    Irrep   Nso     Nmo     Nalpha   Nbeta   Ndocc  Nsocc
   -------------------------------------------------------
     A1        36      36       0       0       0       0
     A2        10      10       0       0       0       0
     B1        24      24       0       0       0       0
     B2        18      18       0       0       0       0
   -------------------------------------------------------
    Total      88      88       8       8       8       0
   -------------------------------------------------------

  ==> Integral Setup <==

  ==> DiskDFJK: Density-Fitted J/K Matrices <==

    J tasked:                  Yes
    K tasked:                  Yes
    wK tasked:                 Yes
    Omega:               3.000E-01
    OpenMP threads:             24
    Integrals threads:          24
    Memory [MiB]:           102472
    Algorithm:                Core
    Integral Cache:           NONE
    Schwarz Cutoff:          1E-12
    Fitting Condition:       1E-10

   => Auxiliary Basis Set <=

  Basis Set: (CC-PV(T+D)Z AUX)
    Blend: CC-PVTZ-JKFIT
    Number of shells: 70
    Number of basis function: 218
    Number of Cartesian functions: 262
    Spherical Harmonics?: true
    Max angular momentum: 4

  Cached 100.0% of DFT collocation blocks in 0.512 [GiB].

  Minimum eigenvalue in the overlap matrix is 2.1629293791E-03.
  Using Symmetric Orthogonalization.

  SCF Guess: Superposition of Atomic Densities via on-the-fly atomic UHF.

  ==> Iterations <==

                           Total Energy        Delta E     RMS |[F,P]|

   @DF-RKS iter SAD:  -113.86923425952189   -1.13869e+02   0.00000e+00 
   @DF-RKS iter   1:  -114.42352782608317   -5.54294e-01   9.49945e-03 DIIS
   @DF-RKS iter   2:  -114.39119341909692    3.23344e-02   1.19877e-02 DIIS
   @DF-RKS iter   3:  -114.50097680209591   -1.09783e-01   1.11609e-03 DIIS
   @DF-RKS iter   4:  -114.50218327157194   -1.20647e-03   3.02956e-04 DIIS
   @DF-RKS iter   5:  -114.50227736505173   -9.40935e-05   4.22068e-05 DIIS
   @DF-RKS iter   6:  -114.50228023413369   -2.86908e-06   8.60423e-06 DIIS
   @DF-RKS iter   7:  -114.50228044602603   -2.11892e-07   1.70267e-06 DIIS
   @DF-RKS iter   8:  -114.50228045333962   -7.31359e-09   4.58099e-07 DIIS
   @DF-RKS iter   9:  -114.50228045363525   -2.95628e-10   3.94441e-08 DIIS
   @DF-RKS iter  10:  -114.50228045364091   -5.65592e-12   1.05847e-08 DIIS
   @DF-RKS iter  11:  -114.50228045364116   -2.55795e-13   1.08685e-09 DIIS
  Energy and wave function converged.


  ==> Post-Iterations <==

    Orbital Energies [Eh]
    ---------------------

    Doubly Occupied:                                                      

       1A1   -19.350994     2A1   -10.441999     3A1    -1.189177  
       4A1    -0.754049     1B1    -0.607688     5A1    -0.562063  
       1B2    -0.506084     2B1    -0.374103  

    Virtual:                                                              

       2B2     0.044614     6A1     0.112002     3B1     0.170973  
       7A1     0.218997     3B2     0.363559     8A1     0.372846  
       4B1     0.404185     9A1     0.502201     5B1     0.515157  
      10A1     0.582128     1A2     0.619011    11A1     0.635270  
       4B2     0.745961     6B1     0.797698     5B2     0.844541  
      12A1     0.915179     7B1     0.964496     2A2     1.073465  
      13A1     1.080989     6B2     1.099889    14A1     1.177793  
       8B1     1.209230     9B1     1.333673    15A1     1.490382  
      16A1     1.613140     3A2     1.778083    17A1     1.819916  
       7B2     1.962938    10B1     2.090883    18A1     2.110929  
       8B2     2.133850    19A1     2.267171    11B1     2.420362  
      20A1     2.608952    12B1     2.627122     4A2     2.684924  
       9B2     2.786689    13B1     2.865944    21A1     2.933149  
      10B2     2.987451     5A2     3.031996    14B1     3.163700  
      22A1     3.184312    11B2     3.235906    15B1     3.349971  
      23A1     3.368117     6A2     3.408793    24A1     3.451681  
      16B1     3.663488    12B2     3.760400    25A1     3.864328  
       7A2     3.931338    17B1     3.936020    13B2     4.007986  
      26A1     4.148072    14B2     4.182362    27A1     4.451602  
      18B1     4.470565    15B2     4.635533    19B1     4.745106  
      28A1     4.759710     8A2     4.770862    29A1     5.047868  
      20B1     5.094312    30A1     5.242616    16B2     5.333851  
      21B1     5.340897    22B1     5.671374     9A2     5.772399  
      31A1     5.919917    32A1     6.237165    17B2     6.237248  
      10A2     6.452812    33A1     6.486184    18B2     6.891296  
      23B1     6.998312    34A1     7.102733    24B1     7.143331  
      35A1    10.552380    36A1    12.939892  

    Final Occupation by Irrep:
             A1    A2    B1    B2 
    DOCC [     5,    0,    2,    1 ]

  @DF-RKS Final Energy:  -114.50228045364116

   => Energetics <=

    Nuclear Repulsion Energy =             31.2947414959465249
    One-Electron Energy =                -217.4807026025600010
    Two-Electron Energy =                  82.0966052620727709
    DFT Exchange-Correlation Energy =     -10.4794316118953788
    Empirical Dispersion Energy =           0.0000000000000000
    VV10 Nonlocal Energy =                  0.0665070027949363
    Total Energy =                       -114.5022804536411627

Computation Completed


Properties will be evaluated at   0.000000,   0.000000,   0.000000 [a0]

Properties computed using the SCF density matrix

  Nuclear Dipole Moment: [e a0]
     X:     0.0000      Y:     0.0000      Z:     2.2149

  Electronic Dipole Moment: [e a0]
     X:     0.0000      Y:     0.0000      Z:    -1.2942

  Dipole Moment: [e a0]
     X:     0.0000      Y:     0.0000      Z:     0.9207     Total:     0.9207

  Dipole Moment: [D]
     X:     0.0000      Y:     0.0000      Z:     2.3401     Total:     2.3401


*** tstop() called on bp1-compute00107.data.bp.acrc.priv at Tue Apr 27 17:44:27 2021
Module time:
	user time   =      91.36 seconds =       1.52 minutes
	system time =       2.79 seconds =       0.05 minutes
	total time  =          4 seconds =       0.07 minutes
Total time:
	user time   =     464.46 seconds =       7.74 minutes
	system time =      16.28 seconds =       0.27 minutes
	total time  =         21 seconds =       0.35 minutes

  //>>>>>>>>>>>>>>>>>>>>>>>>>>>>>>>>>>>//
  //    Loading displacement 6 of 7    //
  //<<<<<<<<<<<<<<<<<<<<<<<<<<<<<<<<<<<//

*** tstart() called on bp1-compute00107.data.bp.acrc.priv
*** at Tue Apr 27 17:44:27 2021

   => Loading Basis Set <=

    Name: CC-PV(T+D)Z
    Role: ORBITAL
    Keyword: BASIS
    atoms 1   entry O          line   271 file /work/zw18965/.conda/envs/p4env/share/psi4/basis/cc-pv_tpd_z.gbs 
    atoms 2   entry C          line   195 file /work/zw18965/.conda/envs/p4env/share/psi4/basis/cc-pv_tpd_z.gbs 
    atoms 3-4 entry H          line    32 file /work/zw18965/.conda/envs/p4env/share/psi4/basis/cc-pv_tpd_z.gbs 


         ---------------------------------------------------------
                                   SCF
               by Justin Turney, Rob Parrish, Andy Simmonett
                          and Daniel G. A. Smith
                              RKS Reference
                       24 Threads, 137329 MiB Core
         ---------------------------------------------------------

  ==> Geometry <==

    Molecular point group: c2v
    Full point group: C2v

    Geometry (in Angstrom), charge = 0, multiplicity = 1:

       Center              X                  Y                   Z               Mass       
    ------------   -----------------  -----------------  -----------------  -----------------
         O            0.000000000000    -0.000000000000    -0.602499002387    15.994914619570
         C            0.000000000000    -0.000000000000     0.604100997613    12.000000000000
         H            0.935090763668     0.000000000000     1.184584652013     1.007825032230
         H           -0.935090763668    -0.000000000000     1.184584652013     1.007825032230

  Running in c2v symmetry.

  Rotational constants: A =      9.56475  B =      1.29535  C =      1.14085 [cm^-1]
  Rotational constants: A = 286744.12463  B =  38833.68662  C =  34201.75175 [MHz]
  Nuclear repulsion =   31.301725197061042

  Charge       = 0
  Multiplicity = 1
  Electrons    = 16
  Nalpha       = 8
  Nbeta        = 8

  ==> Algorithm <==

  SCF Algorithm Type is DF.
  DIIS enabled.
  MOM disabled.
  Fractional occupation disabled.
  Guess Type is SAD.
  Energy threshold   = 1.00e-08
  Density threshold  = 1.00e-08
  Integral threshold = 0.00e+00

  ==> Primary Basis <==

  Basis Set: CC-PV(T+D)Z
    Blend: CC-PV(T+D)Z
    Number of shells: 32
    Number of basis function: 88
    Number of Cartesian functions: 100
    Spherical Harmonics?: true
    Max angular momentum: 3

  ==> DFT Potential <==

   => Composite Functional: WB97M-V <= 

    wB97M-V Hyb-GGA Exchange-Correlation Functional

    N. Mardirossian and M. Head-Gordon, J. Chem. Phys. 144, 214110 (2016)

    Deriv               =              1
    GGA                 =           TRUE
    Meta                =           TRUE

    Exchange Hybrid     =           TRUE
    MP2 Hybrid          =          FALSE

   => Exchange-Correlation Functionals <=

    1.0000   wB97M-V exchange-correlation functional

   => Exact (HF) Exchange <=

    0.8500            HF,LR [omega = 0.3000]
    0.1500               HF 

   => VV10 Non-Local Parameters <=

    VV10 B              =     6.0000E+00
    VV10 C              =     1.0000E-02

   => Molecular Quadrature <=

    Radial Scheme          =       TREUTLER
    Pruning Scheme         =           FLAT
    Nuclear Scheme         =       TREUTLER

    BS radius alpha        =              1
    Pruning alpha          =              1
    Radial Points          =             75
    Spherical Points       =            302
    Total Points           =          88711
    Total Blocks           =            739
    Max Points             =            256
    Max Functions          =             88

   => Loading Basis Set <=

    Name: (CC-PV(T+D)Z AUX)
    Role: JKFIT
    Keyword: DF_BASIS_SCF
    atoms 1   entry O          line   229 file /work/zw18965/.conda/envs/p4env/share/psi4/basis/cc-pvtz-jkfit.gbs 
    atoms 2   entry C          line   125 file /work/zw18965/.conda/envs/p4env/share/psi4/basis/cc-pvtz-jkfit.gbs 
    atoms 3-4 entry H          line    51 file /work/zw18965/.conda/envs/p4env/share/psi4/basis/cc-pvtz-jkfit.gbs 

  ==> Pre-Iterations <==

   -------------------------------------------------------
    Irrep   Nso     Nmo     Nalpha   Nbeta   Ndocc  Nsocc
   -------------------------------------------------------
     A1        36      36       0       0       0       0
     A2        10      10       0       0       0       0
     B1        24      24       0       0       0       0
     B2        18      18       0       0       0       0
   -------------------------------------------------------
    Total      88      88       8       8       8       0
   -------------------------------------------------------

  ==> Integral Setup <==

  ==> DiskDFJK: Density-Fitted J/K Matrices <==

    J tasked:                  Yes
    K tasked:                  Yes
    wK tasked:                 Yes
    Omega:               3.000E-01
    OpenMP threads:             24
    Integrals threads:          24
    Memory [MiB]:           102472
    Algorithm:                Core
    Integral Cache:           NONE
    Schwarz Cutoff:          1E-12
    Fitting Condition:       1E-10

   => Auxiliary Basis Set <=

  Basis Set: (CC-PV(T+D)Z AUX)
    Blend: CC-PVTZ-JKFIT
    Number of shells: 70
    Number of basis function: 218
    Number of Cartesian functions: 262
    Spherical Harmonics?: true
    Max angular momentum: 4

  Cached 100.0% of DFT collocation blocks in 0.512 [GiB].

  Minimum eigenvalue in the overlap matrix is 2.1580956758E-03.
  Using Symmetric Orthogonalization.

  SCF Guess: Superposition of Atomic Densities via on-the-fly atomic UHF.

  ==> Iterations <==

                           Total Energy        Delta E     RMS |[F,P]|

   @DF-RKS iter SAD:  -113.86996707607607   -1.13870e+02   0.00000e+00 
   @DF-RKS iter   1:  -114.42363389375473   -5.53667e-01   9.49321e-03 DIIS
   @DF-RKS iter   2:  -114.39151679415870    3.21171e-02   1.19713e-02 DIIS
   @DF-RKS iter   3:  -114.50098121937832   -1.09464e-01   1.11730e-03 DIIS
   @DF-RKS iter   4:  -114.50218958073650   -1.20836e-03   3.02660e-04 DIIS
   @DF-RKS iter   5:  -114.50228357585019   -9.39951e-05   4.21630e-05 DIIS
   @DF-RKS iter   6:  -114.50228644245156   -2.86660e-06   8.56513e-06 DIIS
   @DF-RKS iter   7:  -114.50228665310661   -2.10655e-07   1.69010e-06 DIIS
   @DF-RKS iter   8:  -114.50228666033165   -7.22504e-09   4.56444e-07 DIIS
   @DF-RKS iter   9:  -114.50228666062543   -2.93781e-10   3.93675e-08 DIIS
   @DF-RKS iter  10:  -114.50228666063086   -5.42855e-12   1.06042e-08 DIIS
   @DF-RKS iter  11:  -114.50228666063106   -1.98952e-13   1.08993e-09 DIIS
  Energy and wave function converged.


  ==> Post-Iterations <==

    Orbital Energies [Eh]
    ---------------------

    Doubly Occupied:                                                      

       1A1   -19.351096     2A1   -10.441911     3A1    -1.189369  
       4A1    -0.754373     1B1    -0.607538     5A1    -0.562322  
       1B2    -0.506225     2B1    -0.374137  

    Virtual:                                                              

       2B2     0.044629     6A1     0.112018     3B1     0.171175  
       7A1     0.218967     3B2     0.363529     8A1     0.373739  
       4B1     0.403656     9A1     0.502388     5B1     0.515017  
      10A1     0.581938     1A2     0.619338    11A1     0.635301  
       4B2     0.745801     6B1     0.797623     5B2     0.844202  
      12A1     0.915370     7B1     0.966318     2A2     1.072838  
      13A1     1.079698     6B2     1.101287    14A1     1.177820  
       8B1     1.208644     9B1     1.334088    15A1     1.491745  
      16A1     1.614482     3A2     1.777988    17A1     1.821244  
       7B2     1.963286    10B1     2.090386    18A1     2.109632  
       8B2     2.133670    19A1     2.266150    11B1     2.419737  
      20A1     2.608921    12B1     2.628619     4A2     2.685478  
       9B2     2.786411    13B1     2.866643    21A1     2.933429  
      10B2     2.986544     5A2     3.033070    14B1     3.162150  
      22A1     3.184881    11B2     3.235932    15B1     3.351913  
      23A1     3.369618     6A2     3.408070    24A1     3.450315  
      16B1     3.663899    12B2     3.762574    25A1     3.863691  
       7A2     3.931602    17B1     3.938899    13B2     4.007954  
      26A1     4.152300    14B2     4.183776    27A1     4.452944  
      18B1     4.469016    15B2     4.636017    19B1     4.745860  
      28A1     4.762213     8A2     4.771937    29A1     5.048579  
      20B1     5.092543    30A1     5.243844    16B2     5.333642  
      21B1     5.340084    22B1     5.675953     9A2     5.774477  
      31A1     5.919921    32A1     6.237851    17B2     6.238634  
      10A2     6.452739    33A1     6.486091    18B2     6.891301  
      23B1     6.998570    34A1     7.102995    24B1     7.147468  
      35A1    10.555573    36A1    12.951089  

    Final Occupation by Irrep:
             A1    A2    B1    B2 
    DOCC [     5,    0,    2,    1 ]

  @DF-RKS Final Energy:  -114.50228666063106

   => Energetics <=

    Nuclear Repulsion Energy =             31.3017251970610424
    One-Electron Energy =                -217.4927778463867867
    Two-Electron Energy =                  82.1021494775943950
    DFT Exchange-Correlation Energy =     -10.4798916848954455
    Empirical Dispersion Energy =           0.0000000000000000
    VV10 Nonlocal Energy =                  0.0665081959957246
    Total Energy =                       -114.5022866606310714

Computation Completed


Properties will be evaluated at   0.000000,   0.000000,   0.000000 [a0]

Properties computed using the SCF density matrix

  Nuclear Dipole Moment: [e a0]
     X:     0.0000      Y:     0.0000      Z:     2.2181

  Electronic Dipole Moment: [e a0]
     X:     0.0000      Y:     0.0000      Z:    -1.2974

  Dipole Moment: [e a0]
     X:     0.0000      Y:     0.0000      Z:     0.9207     Total:     0.9207

  Dipole Moment: [D]
     X:     0.0000      Y:     0.0000      Z:     2.3402     Total:     2.3402


*** tstop() called on bp1-compute00107.data.bp.acrc.priv at Tue Apr 27 17:44:31 2021
Module time:
	user time   =      89.99 seconds =       1.50 minutes
	system time =       2.45 seconds =       0.04 minutes
	total time  =          4 seconds =       0.07 minutes
Total time:
	user time   =     554.59 seconds =       9.24 minutes
	system time =      18.73 seconds =       0.31 minutes
	total time  =         25 seconds =       0.42 minutes

  //>>>>>>>>>>>>>>>>>>>>>>>>>>>>>>>>>>>//
  //    Loading displacement 7 of 7    //
  //<<<<<<<<<<<<<<<<<<<<<<<<<<<<<<<<<<<//

*** tstart() called on bp1-compute00107.data.bp.acrc.priv
*** at Tue Apr 27 17:44:31 2021

   => Loading Basis Set <=

    Name: CC-PV(T+D)Z
    Role: ORBITAL
    Keyword: BASIS
    atoms 1   entry O          line   271 file /work/zw18965/.conda/envs/p4env/share/psi4/basis/cc-pv_tpd_z.gbs 
    atoms 2   entry C          line   195 file /work/zw18965/.conda/envs/p4env/share/psi4/basis/cc-pv_tpd_z.gbs 
    atoms 3-4 entry H          line    32 file /work/zw18965/.conda/envs/p4env/share/psi4/basis/cc-pv_tpd_z.gbs 


         ---------------------------------------------------------
                                   SCF
               by Justin Turney, Rob Parrish, Andy Simmonett
                          and Daniel G. A. Smith
                              RKS Reference
                       24 Threads, 137329 MiB Core
         ---------------------------------------------------------

  ==> Geometry <==

    Molecular point group: c2v
    Full point group: C2v

    Geometry (in Angstrom), charge = 0, multiplicity = 1:

       Center              X                  Y                   Z               Mass       
    ------------   -----------------  -----------------  -----------------  -----------------
         O            0.000000000000    -0.000000000000    -0.602499002387    15.994914619570
         C            0.000000000000    -0.000000000000     0.604100997613    12.000000000000
         H            0.938818056932     0.000000000000     1.184584652013     1.007825032230
         H           -0.938818056932    -0.000000000000     1.184584652013     1.007825032230

  Running in c2v symmetry.

  Rotational constants: A =      9.48896  B =      1.29535  C =      1.13976 [cm^-1]
  Rotational constants: A = 284471.78271  B =  38833.68662  C =  34169.19635 [MHz]
  Nuclear repulsion =   31.280440688513217

  Charge       = 0
  Multiplicity = 1
  Electrons    = 16
  Nalpha       = 8
  Nbeta        = 8

  ==> Algorithm <==

  SCF Algorithm Type is DF.
  DIIS enabled.
  MOM disabled.
  Fractional occupation disabled.
  Guess Type is SAD.
  Energy threshold   = 1.00e-08
  Density threshold  = 1.00e-08
  Integral threshold = 0.00e+00

  ==> Primary Basis <==

  Basis Set: CC-PV(T+D)Z
    Blend: CC-PV(T+D)Z
    Number of shells: 32
    Number of basis function: 88
    Number of Cartesian functions: 100
    Spherical Harmonics?: true
    Max angular momentum: 3

  ==> DFT Potential <==

   => Composite Functional: WB97M-V <= 

    wB97M-V Hyb-GGA Exchange-Correlation Functional

    N. Mardirossian and M. Head-Gordon, J. Chem. Phys. 144, 214110 (2016)

    Deriv               =              1
    GGA                 =           TRUE
    Meta                =           TRUE

    Exchange Hybrid     =           TRUE
    MP2 Hybrid          =          FALSE

   => Exchange-Correlation Functionals <=

    1.0000   wB97M-V exchange-correlation functional

   => Exact (HF) Exchange <=

    0.8500            HF,LR [omega = 0.3000]
    0.1500               HF 

   => VV10 Non-Local Parameters <=

    VV10 B              =     6.0000E+00
    VV10 C              =     1.0000E-02

   => Molecular Quadrature <=

    Radial Scheme          =       TREUTLER
    Pruning Scheme         =           FLAT
    Nuclear Scheme         =       TREUTLER

    BS radius alpha        =              1
    Pruning alpha          =              1
    Radial Points          =             75
    Spherical Points       =            302
    Total Points           =          88711
    Total Blocks           =            739
    Max Points             =            255
    Max Functions          =             88

   => Loading Basis Set <=

    Name: (CC-PV(T+D)Z AUX)
    Role: JKFIT
    Keyword: DF_BASIS_SCF
    atoms 1   entry O          line   229 file /work/zw18965/.conda/envs/p4env/share/psi4/basis/cc-pvtz-jkfit.gbs 
    atoms 2   entry C          line   125 file /work/zw18965/.conda/envs/p4env/share/psi4/basis/cc-pvtz-jkfit.gbs 
    atoms 3-4 entry H          line    51 file /work/zw18965/.conda/envs/p4env/share/psi4/basis/cc-pvtz-jkfit.gbs 

  ==> Pre-Iterations <==

   -------------------------------------------------------
    Irrep   Nso     Nmo     Nalpha   Nbeta   Ndocc  Nsocc
   -------------------------------------------------------
     A1        36      36       0       0       0       0
     A2        10      10       0       0       0       0
     B1        24      24       0       0       0       0
     B2        18      18       0       0       0       0
   -------------------------------------------------------
    Total      88      88       8       8       8       0
   -------------------------------------------------------

  ==> Integral Setup <==

  ==> DiskDFJK: Density-Fitted J/K Matrices <==

    J tasked:                  Yes
    K tasked:                  Yes
    wK tasked:                 Yes
    Omega:               3.000E-01
    OpenMP threads:             24
    Integrals threads:          24
    Memory [MiB]:           102472
    Algorithm:                Core
    Integral Cache:           NONE
    Schwarz Cutoff:          1E-12
    Fitting Condition:       1E-10

   => Auxiliary Basis Set <=

  Basis Set: (CC-PV(T+D)Z AUX)
    Blend: CC-PVTZ-JKFIT
    Number of shells: 70
    Number of basis function: 218
    Number of Cartesian functions: 262
    Spherical Harmonics?: true
    Max angular momentum: 4

  Cached 100.0% of DFT collocation blocks in 0.512 [GiB].

  Minimum eigenvalue in the overlap matrix is 2.1806181182E-03.
  Using Symmetric Orthogonalization.

  SCF Guess: Superposition of Atomic Densities via on-the-fly atomic UHF.

  ==> Iterations <==

                           Total Energy        Delta E     RMS |[F,P]|

   @DF-RKS iter SAD:  -113.86817163125853   -1.13868e+02   0.00000e+00 
   @DF-RKS iter   1:  -114.42334293789091   -5.55171e-01   9.51143e-03 DIIS
   @DF-RKS iter   2:  -114.39052325294985    3.28197e-02   1.20224e-02 DIIS
   @DF-RKS iter   3:  -114.50099334601857   -1.10470e-01   1.11254e-03 DIIS
   @DF-RKS iter   4:  -114.50219380520441   -1.20046e-03   3.03273e-04 DIIS
   @DF-RKS iter   5:  -114.50228827469179   -9.44695e-05   4.22545e-05 DIIS
   @DF-RKS iter   6:  -114.50229115816013   -2.88347e-06   8.61403e-06 DIIS
   @DF-RKS iter   7:  -114.50229137096582   -2.12806e-07   1.69957e-06 DIIS
   @DF-RKS iter   8:  -114.50229137826275   -7.29693e-09   4.59754e-07 DIIS
   @DF-RKS iter   9:  -114.50229137856054   -2.97788e-10   3.96835e-08 DIIS
   @DF-RKS iter  10:  -114.50229137856613   -5.58487e-12   1.06117e-08 DIIS
   @DF-RKS iter  11:  -114.50229137856651   -3.83693e-13   1.09558e-09 DIIS
  Energy and wave function converged.


  ==> Post-Iterations <==

    Orbital Energies [Eh]
    ---------------------

    Doubly Occupied:                                                      

       1A1   -19.351184     2A1   -10.442529     3A1    -1.189457  
       4A1    -0.753396     1B1    -0.607168     5A1    -0.562195  
       1B2    -0.506294     2B1    -0.374067  

    Virtual:                                                              

       2B2     0.044649     6A1     0.111737     3B1     0.170955  
       7A1     0.218966     3B2     0.363544     8A1     0.372498  
       4B1     0.404111     9A1     0.501465     5B1     0.513754  
      10A1     0.582262     1A2     0.618679    11A1     0.635528  
       4B2     0.745756     6B1     0.797644     5B2     0.844156  
      12A1     0.914624     7B1     0.963767     2A2     1.072812  
      13A1     1.079869     6B2     1.099662    14A1     1.177670  
       8B1     1.208996     9B1     1.332499    15A1     1.487781  
      16A1     1.612854     3A2     1.777432    17A1     1.819890  
       7B2     1.963046    10B1     2.090927    18A1     2.112275  
       8B2     2.133312    19A1     2.266968    11B1     2.420152  
      20A1     2.608996    12B1     2.627876     4A2     2.684504  
       9B2     2.784731    13B1     2.864827    21A1     2.932742  
      10B2     2.987893     5A2     3.033034    14B1     3.161397  
      22A1     3.184792    11B2     3.235641    15B1     3.347557  
      23A1     3.364330     6A2     3.407076    24A1     3.449472  
      16B1     3.660075    12B2     3.758625    25A1     3.862070  
       7A2     3.928986    17B1     3.934712    13B2     4.004690  
      26A1     4.144091    14B2     4.181978    27A1     4.446344  
      18B1     4.467583    15B2     4.630451    19B1     4.738446  
      28A1     4.753139     8A2     4.763812    29A1     5.042946  
      20B1     5.090460    30A1     5.238606    16B2     5.332896  
      21B1     5.339450    22B1     5.668233     9A2     5.771145  
      31A1     5.917921    32A1     6.236245    17B2     6.237206  
      10A2     6.452387    33A1     6.485977    18B2     6.891249  
      23B1     6.995671    34A1     7.102621    24B1     7.139047  
      35A1    10.536026    36A1    12.921786  

    Final Occupation by Irrep:
             A1    A2    B1    B2 
    DOCC [     5,    0,    2,    1 ]

  @DF-RKS Final Energy:  -114.50229137856651

   => Energetics <=

    Nuclear Repulsion Energy =             31.2804406885132167
    One-Electron Energy =                -217.4526844230286713
    Two-Electron Energy =                  82.0814980755435357
    DFT Exchange-Correlation Energy =     -10.4780508776367931
    Empirical Dispersion Energy =           0.0000000000000000
    VV10 Nonlocal Energy =                  0.0665051580421979
    Total Energy =                       -114.5022913785665111

Computation Completed


Properties will be evaluated at   0.000000,   0.000000,   0.000000 [a0]

Properties computed using the SCF density matrix

  Nuclear Dipole Moment: [e a0]
     X:     0.0000      Y:     0.0000      Z:     2.2181

  Electronic Dipole Moment: [e a0]
     X:     0.0000      Y:     0.0000      Z:    -1.2993

  Dipole Moment: [e a0]
     X:     0.0000      Y:     0.0000      Z:     0.9189     Total:     0.9189

  Dipole Moment: [D]
     X:     0.0000      Y:     0.0000      Z:     2.3355     Total:     2.3355


*** tstop() called on bp1-compute00107.data.bp.acrc.priv at Tue Apr 27 17:44:35 2021
Module time:
	user time   =      90.29 seconds =       1.50 minutes
	system time =       2.49 seconds =       0.04 minutes
	total time  =          4 seconds =       0.07 minutes
Total time:
	user time   =     645.03 seconds =      10.75 minutes
	system time =      21.22 seconds =       0.35 minutes
	total time  =         29 seconds =       0.48 minutes

         ----------------------------------------------------------
                                   FINDIF
                     R. A. King and Jonathon Misiewicz
         ---------------------------------------------------------

  Computing gradient from energies.
    Using 3-point formula.
    Energy without displacement: -114.5022922959
    Check energies below for precision!
    Forces are for mass-weighted, symmetry-adapted cartesians (in au).

     Coord      Energy(-1)        Energy(+1)            Force
        0   -114.5022653048   -114.5023163983     -0.0051093518
        1   -114.5023001886   -114.5022804536      0.0019734922
        2   -114.5022866606   -114.5022913786     -0.0004717935


-------------------------------------------------------------
  ## New Matrix (Symmetry 0) ##
  Irrep: 1 Size: 4 x 3

                 1                   2                   3

    1     0.00000000000000     0.00000000000000    -0.01396452944376
    2     0.00000000000000     0.00000000000000     0.01454878025307
    3    -0.00033491112010     0.00000000000000    -0.00029212540465
    4     0.00033491112010     0.00000000000000    -0.00029212540465




			-----------------------------------------
			 OPTKING 2.0: for geometry optimizations 
			  - R.A. King,  Bethel University        
			-----------------------------------------
	At level 1: Red. Int., RFO, no backsteps, dynamic trust

	Internal coordinates to be generated automatically.
	Detected frag 1 with atoms:  1 2 3 4
	---Fragment 1 Bond Connectivity---
	 1 : 2
	 2 : 1 3 4
	 3 : 2
	 4 : 2

	---Fragment 1 Geometry and Gradient---
	 O           0.0000000000       -0.0000000000       -1.1385581054
	 C           0.0000000000       -0.0000000000        1.1415854376
	 H           1.7705872275        0.0000000000        2.2385405647
	 H          -1.7705872275       -0.0000000000        2.2385405647
	             0.0000000000        0.0000000000       -0.0139645294
	             0.0000000000        0.0000000000        0.0145487803
	            -0.0003349111        0.0000000000       -0.0002921254
	             0.0003349111        0.0000000000       -0.0002921254

	Previous optimization step data not found.  Starting new optimization.

	---Fragment 1 Intrafragment Coordinates---
	 - Coordinate -           - BOHR/RAD -       - ANG/DEG -
	 R(1,2)           =         2.280144	       1.206600
	 R(2,3)           =         2.082856	       1.102200
	 R(2,4)           =         2.082856	       1.102200
	 B(1,2,3)         =         2.125462	     121.780000
	 B(1,2,4)         =         2.125462	     121.780000
	 B(3,2,4)         =         2.032261	     116.440000

	Current energy   :      -114.5022922959

	Generating empirical Hessian (Schlegel '84) for each fragment.
	Taking RFO optimization step.
	Going to follow RFO solution 1.
	Using RFO vector 1.
	Norm of target step-size    0.01389
	Projected energy change by RFO approximation:        -0.0001974153

	Back-transformation to cartesian coordinates...
	Successfully converged to displaced geometry.

	--- Internal Coordinate Step in ANG or DEG, aJ/ANG or AJ/DEG ---
	 ---------------------------------------------------------------------------
[...]

    Name: CC-PV(T+D)Z
    Role: ORBITAL
    Keyword: BASIS
    atoms 1   entry O          line   271 file /work/zw18965/.conda/envs/p4env/share/psi4/basis/cc-pv_tpd_z.gbs 
    atoms 2   entry C          line   195 file /work/zw18965/.conda/envs/p4env/share/psi4/basis/cc-pv_tpd_z.gbs 
    atoms 3-4 entry H          line    32 file /work/zw18965/.conda/envs/p4env/share/psi4/basis/cc-pv_tpd_z.gbs 


         ---------------------------------------------------------
                                   SCF
               by Justin Turney, Rob Parrish, Andy Simmonett
                          and Daniel G. A. Smith
                              RKS Reference
                       24 Threads, 137329 MiB Core
         ---------------------------------------------------------

  ==> Geometry <==

    Molecular point group: cs
    Full point group: Cs

    Geometry (in Angstrom), charge = 0, multiplicity = 1:

       Center              X                  Y                   Z               Mass       
    ------------   -----------------  -----------------  -----------------  -----------------
         O            0.000000000000    -0.000096750913    -0.598696603649    15.994914619570
         C            0.000000000000     0.000393359198     0.599215668915    12.000000000000
         H            0.936818302415    -0.001574076689     1.183495624298     1.007825032230
         H           -0.936818302415    -0.001574076689     1.183495624298     1.007825032230

  Running in cs symmetry.

  Rotational constants: A =      9.52947  B =      1.31033  C =      1.15194 [cm^-1]
  Rotational constants: A = 285686.42875  B =  39282.81186  C =  34534.27453 [MHz]
  Nuclear repulsion =   31.443076849050012

  Charge       = 0
  Multiplicity = 1
  Electrons    = 16
  Nalpha       = 8
  Nbeta        = 8

  ==> Algorithm <==

  SCF Algorithm Type is DF.
  DIIS enabled.
  MOM disabled.
  Fractional occupation disabled.
  Guess Type is SAD.
  Energy threshold   = 1.00e-10
  Density threshold  = 1.00e-10
  Integral threshold = 0.00e+00

  ==> Primary Basis <==

  Basis Set: CC-PV(T+D)Z
    Blend: CC-PV(T+D)Z
    Number of shells: 32
    Number of basis function: 88
    Number of Cartesian functions: 100
    Spherical Harmonics?: true
    Max angular momentum: 3

  ==> DFT Potential <==

   => Composite Functional: WB97M-V <= 

    wB97M-V Hyb-GGA Exchange-Correlation Functional

    N. Mardirossian and M. Head-Gordon, J. Chem. Phys. 144, 214110 (2016)

    Deriv               =              1
    GGA                 =           TRUE
    Meta                =           TRUE

    Exchange Hybrid     =           TRUE
    MP2 Hybrid          =          FALSE

   => Exchange-Correlation Functionals <=

    1.0000   wB97M-V exchange-correlation functional

   => Exact (HF) Exchange <=

    0.8500            HF,LR [omega = 0.3000]
    0.1500               HF 

   => VV10 Non-Local Parameters <=

    VV10 B              =     6.0000E+00
    VV10 C              =     1.0000E-02

   => Molecular Quadrature <=

    Radial Scheme          =       TREUTLER
    Pruning Scheme         =           FLAT
    Nuclear Scheme         =       TREUTLER

    BS radius alpha        =              1
    Pruning alpha          =              1
    Radial Points          =             75
    Spherical Points       =            302
    Total Points           =          88711
    Total Blocks           =            735
    Max Points             =            256
    Max Functions          =             88

   => Loading Basis Set <=

    Name: (CC-PV(T+D)Z AUX)
    Role: JKFIT
    Keyword: DF_BASIS_SCF
    atoms 1   entry O          line   229 file /work/zw18965/.conda/envs/p4env/share/psi4/basis/cc-pvtz-jkfit.gbs 
    atoms 2   entry C          line   125 file /work/zw18965/.conda/envs/p4env/share/psi4/basis/cc-pvtz-jkfit.gbs 
    atoms 3-4 entry H          line    51 file /work/zw18965/.conda/envs/p4env/share/psi4/basis/cc-pvtz-jkfit.gbs 

  ==> Pre-Iterations <==

   -------------------------------------------------------
    Irrep   Nso     Nmo     Nalpha   Nbeta   Ndocc  Nsocc
   -------------------------------------------------------
     A'        54      54       0       0       0       0
     A"        34      34       0       0       0       0
   -------------------------------------------------------
    Total      88      88       8       8       8       0
   -------------------------------------------------------

  ==> Integral Setup <==

  ==> DiskDFJK: Density-Fitted J/K Matrices <==

    J tasked:                  Yes
    K tasked:                  Yes
    wK tasked:                 Yes
    Omega:               3.000E-01
    OpenMP threads:             24
    Integrals threads:          24
    Memory [MiB]:           102472
    Algorithm:                Core
    Integral Cache:           NONE
    Schwarz Cutoff:          1E-12
    Fitting Condition:       1E-10

   => Auxiliary Basis Set <=

  Basis Set: (CC-PV(T+D)Z AUX)
    Blend: CC-PVTZ-JKFIT
    Number of shells: 70
    Number of basis function: 218
    Number of Cartesian functions: 262
    Spherical Harmonics?: true
    Max angular momentum: 4

  Cached 100.0% of DFT collocation blocks in 0.512 [GiB].

  Minimum eigenvalue in the overlap matrix is 2.1791419450E-03.
  Using Symmetric Orthogonalization.

  SCF Guess: Superposition of Atomic Densities via on-the-fly atomic UHF.

  ==> Iterations <==

                           Total Energy        Delta E     RMS |[F,P]|

   @DF-RKS iter SAD:  -113.88345334119079   -1.13883e+02   0.00000e+00 
   @DF-RKS iter   1:  -114.42323647484265   -5.39783e-01   7.16470e-03 DIIS
   @DF-RKS iter   2:  -114.39301505355770    3.02214e-02   8.94676e-03 DIIS
   @DF-RKS iter   3:  -114.50111039903526   -1.08095e-01   8.38701e-04 DIIS
   @DF-RKS iter   4:  -114.50231312146043   -1.20272e-03   2.26081e-04 DIIS
   @DF-RKS iter   5:  -114.50240639702402   -9.32756e-05   3.09356e-05 DIIS
   @DF-RKS iter   6:  -114.50240915971128   -2.76269e-06   6.18814e-06 DIIS
   @DF-RKS iter   7:  -114.50240935678328   -1.97072e-07   1.16740e-06 DIIS
   @DF-RKS iter   8:  -114.50240936302291   -6.23963e-09   3.18799e-07 DIIS
   @DF-RKS iter   9:  -114.50240936327509   -2.52186e-10   2.83175e-08 DIIS
   @DF-RKS iter  10:  -114.50240936328029   -5.20117e-12   7.74155e-09 DIIS
   @DF-RKS iter  11:  -114.50240936328055   -2.55795e-13   9.12401e-10 DIIS
   @DF-RKS iter  12:  -114.50240936328063   -8.52651e-14   1.91990e-10 DIIS
   @DF-RKS iter  13:  -114.50240936328048    1.56319e-13   3.16253e-11 DIIS
  Energy and wave function converged.


  ==> Post-Iterations <==

    Orbital Energies [Eh]
    ---------------------

    Doubly Occupied:                                                      

       1Ap   -19.350913     2Ap   -10.441241     3Ap    -1.194357  
       4Ap    -0.752376     1App   -0.608137     5Ap    -0.563966  
       6Ap    -0.509396     2App   -0.373462  

    Virtual:                                                              

       7Ap     0.046902     8Ap     0.112075     3App    0.171893  
       9Ap     0.219356    10Ap     0.363274    11Ap     0.373955  
       4App    0.403233    12Ap     0.501778     5App    0.514192  
      13Ap     0.585612     6App    0.619230    14Ap     0.638594  
      15Ap     0.745306     7App    0.797374    16Ap     0.845047  
      17Ap     0.914405     8App    0.966280     9App    1.071411  
      18Ap     1.081845    19Ap     1.102795    20Ap     1.178052  
      10App    1.211807    11App    1.332517    21Ap     1.489329  
      22Ap     1.617190    12App    1.780001    23Ap     1.823358  
      24Ap     1.968827    13App    2.094230    25Ap     2.106668  
      26Ap     2.131458    27Ap     2.270750    14App    2.419245  
      28Ap     2.615273    15App    2.630232    16App    2.686328  
      29Ap     2.784968    17App    2.864101    30Ap     2.932528  
      31Ap     2.984342    18App    3.034766    19App    3.163592  
      32Ap     3.188371    33Ap     3.242507    20App    3.351211  
      34Ap     3.366901    21App    3.406782    35Ap     3.456512  
      22App    3.660944    36Ap     3.763520    37Ap     3.863334  
      23App    3.930426    24App    3.939046    38Ap     4.005059  
      39Ap     4.158093    40Ap     4.190190    41Ap     4.450524  
      25App    4.476372    42Ap     4.626959    26App    4.735605  
      43Ap     4.757053    27App    4.764435    44Ap     5.039511  
      28App    5.091478    45Ap     5.242730    46Ap     5.335785  
      29App    5.341961    30App    5.675688    31App    5.786838  
      47Ap     5.932298    48Ap     6.256003    49Ap     6.260539  
      32App    6.454449    50Ap     6.488969    51Ap     6.893407  
      33App    7.008340    52Ap     7.109618    34App    7.158684  
      53Ap    10.564183    54Ap    13.041086  

    Final Occupation by Irrep:
             Ap   App 
    DOCC [     6,    2 ]

  @DF-RKS Final Energy:  -114.50240936328048

   => Energetics <=

    Nuclear Repulsion Energy =             31.4430768490500121
    One-Electron Energy =                -217.7595903891180171
    Two-Electron Energy =                  82.2316008326901198
    DFT Exchange-Correlation Energy =     -10.4840019254109240
    Empirical Dispersion Energy =           0.0000000000000000
    VV10 Nonlocal Energy =                  0.0665052695083222
    Total Energy =                       -114.5024093632804778

Computation Completed


Properties will be evaluated at   0.000000,   0.000000,   0.000000 [a0]

Properties computed using the SCF density matrix

  Nuclear Dipole Moment: [e a0]
     X:     0.0000      Y:    -0.0030      Z:     2.2161

  Electronic Dipole Moment: [e a0]
     X:     0.0000      Y:     0.0027      Z:    -1.3122

  Dipole Moment: [e a0]
     X:     0.0000      Y:    -0.0003      Z:     0.9039     Total:     0.9039

  Dipole Moment: [D]
     X:     0.0000      Y:    -0.0008      Z:     2.2976     Total:     2.2976


*** tstop() called on bp1-compute00107.data.bp.acrc.priv at Tue Apr 27 17:47:13 2021
Module time:
	user time   =      98.15 seconds =       1.64 minutes
	system time =       2.38 seconds =       0.04 minutes
	total time  =          4 seconds =       0.07 minutes
Total time:
	user time   =    4322.19 seconds =      72.04 minutes
	system time =     117.60 seconds =       1.96 minutes
	total time  =        187 seconds =       3.12 minutes

         ----------------------------------------------------------
                                   FINDIF
                     R. A. King and Jonathon Misiewicz
         ---------------------------------------------------------

  Computing second-derivative from energies using projected, 
  symmetry-adapted, cartesian coordinates.

  18 energies passed in, including the reference geometry.
    Using 3-point formula.
    Energy without displacement: -114.5024100504
    Check energies below for precision!
    0: -1        :      -114.5024085381
    0: 1         :      -114.5024085094
    1: -1        :      -114.5024081529
    1: 1         :      -114.5024079870
    2: -1        :      -114.5024068505
    2: 1         :      -114.5024067696
    0: 1, 1: 1   :      -114.5024067645
    0: -1, 1: -1 :      -114.5024069573
    0: 1, 2: 1   :      -114.5024054611
    0: -1, 2: -1 :      -114.5024055687
    1: 1, 2: 1   :      -114.5024072119
    1: -1, 2: -1 :      -114.5024074726
    3: -1        :      -114.5024092884
    4: -1        :      -114.5024058583
    3: 1, 4: 1   :      -114.5024051374
    3: -1, 4: -1 :      -114.5024051373
    5: -1        :      -114.5024093633

-------------------------------------------------------------


  ==> Harmonic Vibrational Analysis <==

  non-mass-weighted Hessian:       Symmetric? True   Hermitian? True   Lin Dep Dim?  6 (0)
  projection of translations (True) and rotations (True) removed 6 degrees of freedom (6)
  total projector:                 Symmetric? True   Hermitian? True   Lin Dep Dim?  6 (6)
  mass-weighted Hessian:           Symmetric? True   Hermitian? True   Lin Dep Dim?  6 (0)
  pre-proj  low-frequency mode:    0.0000i [cm^-1]
  pre-proj  low-frequency mode:    0.0000i [cm^-1]
  pre-proj  low-frequency mode:    0.0000i [cm^-1]
  pre-proj  low-frequency mode:    0.0000i [cm^-1]
  pre-proj  low-frequency mode:    0.0000  [cm^-1]
  pre-proj  low-frequency mode:    0.0000  [cm^-1]
  pre-proj  all modes:['0.0000i' '0.0000i' '0.0000i' '0.0000i' '0.0000' '0.0000' '1205.2269'
 '1269.1057' '1533.4246' '1850.1444' '2913.6757' '2976.9429']
  projected mass-weighted Hessian: Symmetric? True   Hermitian? True   Lin Dep Dim?  6 (6)
  post-proj low-frequency mode:    0.0000i [cm^-1] (TR)
  post-proj low-frequency mode:    0.0000i [cm^-1] (TR)
  post-proj low-frequency mode:    0.0000i [cm^-1] (TR)
  post-proj low-frequency mode:    0.0000  [cm^-1] (TR)
  post-proj low-frequency mode:    0.0000  [cm^-1] (TR)
  post-proj low-frequency mode:    0.0000  [cm^-1] (TR)
  post-proj  all modes:['0.0000i' '0.0000i' '0.0000i' '0.0000' '0.0000' '0.0000' '1205.2269'
 '1269.1057' '1533.4246' '1850.1444' '2913.6757' '2976.9429']

  Vibration                       7                   8                   9           
  Freq [cm^-1]                1205.2269           1269.1057           1533.4246       
  Irrep                           B2                  B1                  A1          
  Reduced mass [u]              1.3675              1.3440              1.0955        
  Force const [mDyne/A]         1.1703              1.2754              1.5177        
  Turning point v=0 [a0]        0.2703              0.2657              0.2677        
  RMS dev v=0 [a0 u^1/2]        0.2235              0.2178              0.1981        
  Char temp [K]               1734.0532           1825.9606           2206.2566       
  ----------------------------------------------------------------------------------
      1   O               -0.00  0.04  0.00   -0.08  0.00  0.00    0.00 -0.00 -0.08   
      2   C                0.00 -0.17  0.00    0.15  0.00 -0.00    0.00  0.00 -0.00   
      3   H               -0.00  0.70  0.00   -0.25 -0.00  0.65   -0.35 -0.00  0.61   
      4   H                0.00  0.70  0.00   -0.25 -0.00 -0.65    0.35 -0.00  0.61   

  Vibration                       10                  11                  12          
  Freq [cm^-1]                1850.1444           2913.6757           2976.9429       
  Irrep                           A1                  A1                  B1          
  Reduced mass [u]              7.9049              1.0442              1.1203        
  Force const [mDyne/A]        15.9426              5.2229              5.8498        
  Turning point v=0 [a0]        0.0907              0.1989              0.1900        
  RMS dev v=0 [a0 u^1/2]        0.1804              0.1437              0.1422        
  Char temp [K]               2661.9459           4192.1306           4283.1580       
  ----------------------------------------------------------------------------------
      1   O               -0.00  0.00 -0.43   -0.00  0.00 -0.00    0.00  0.00 -0.00   
      2   C                0.00  0.00  0.61    0.00  0.00 -0.06   -0.10  0.00 -0.00   
      3   H                0.44  0.00 -0.18    0.61 -0.00  0.35    0.60  0.00  0.37   
      4   H               -0.44 -0.00 -0.18   -0.61 -0.00  0.35    0.60  0.00 -0.37   

  ==> Thermochemistry Components <==

  Entropy, S
    Electronic S            0.000 [cal/(mol K)]        0.000 [J/(mol K)]       0.00000000 [mEh/K] (multiplicity = 1)
    Translational S        36.130 [cal/(mol K)]      151.169 [J/(mol K)]       0.05757719 [mEh/K] (mol. weight = 30.0106 [u], P = 101325.00 [Pa])
    Rotational S           15.991 [cal/(mol K)]       66.905 [J/(mol K)]       0.02548288 [mEh/K] (symmetry no. = 2)
    Vibrational S           0.084 [cal/(mol K)]        0.353 [J/(mol K)]       0.00013448 [mEh/K]
  Total S                  52.205 [cal/(mol K)]      218.427 [J/(mol K)]       0.08319456 [mEh/K]
  Correction S              0.000 [cal/(mol K)]        0.000 [J/(mol K)]       0.00000000 [mEh/K]

  Constant volume heat capacity, Cv
    Electronic Cv           0.000 [cal/(mol K)]        0.000 [J/(mol K)]       0.00000000 [mEh/K]
    Translational Cv        2.981 [cal/(mol K)]       12.472 [J/(mol K)]       0.00475022 [mEh/K]
    Rotational Cv           2.981 [cal/(mol K)]       12.472 [J/(mol K)]       0.00475022 [mEh/K]
    Vibrational Cv          0.454 [cal/(mol K)]        1.897 [J/(mol K)]       0.00072271 [mEh/K]
  Total Cv                  6.415 [cal/(mol K)]       26.841 [J/(mol K)]       0.01022314 [mEh/K]
  Correction Cv             0.000 [cal/(mol K)]        0.000 [J/(mol K)]       0.00000000 [mEh/K]

  Constant pressure heat capacity, Cp
    Electronic Cp           0.000 [cal/(mol K)]        0.000 [J/(mol K)]       0.00000000 [mEh/K]
    Translational Cp        4.968 [cal/(mol K)]       20.786 [J/(mol K)]       0.00791703 [mEh/K]
    Rotational Cp           2.981 [cal/(mol K)]       12.472 [J/(mol K)]       0.00475022 [mEh/K]
    Vibrational Cp          0.454 [cal/(mol K)]        1.897 [J/(mol K)]       0.00072271 [mEh/K]
  Total Cp                  8.402 [cal/(mol K)]       35.155 [J/(mol K)]       0.01338995 [mEh/K]
  Correction Cp             0.000 [cal/(mol K)]        0.000 [J/(mol K)]       0.00000000 [mEh/K]

  ==> Thermochemistry Energy Analysis <==

  Raw electronic energy, E0
  Total E0, Electronic energy at well bottom at 0 [K]                 -114.50241005 [Eh]

  Zero-point energy, ZPE_vib = Sum_i nu_i / 2
    Electronic ZPE          0.000 [kcal/mol]        0.000 [kJ/mol]       0.00000000 [Eh]
    Translational ZPE       0.000 [kcal/mol]        0.000 [kJ/mol]       0.00000000 [Eh]
    Rotational ZPE          0.000 [kcal/mol]        0.000 [kJ/mol]       0.00000000 [Eh]
    Vibrational ZPE        16.795 [kcal/mol]       70.272 [kJ/mol]       0.02676510 [Eh]        5874.260 [cm^-1]
  Correction ZPE           16.795 [kcal/mol]       70.272 [kJ/mol]       0.02676510 [Eh]        5874.260 [cm^-1]
  Total ZPE, Electronic energy at 0 [K]                               -114.47564495 [Eh]

  Thermal Energy, E (includes ZPE)
    Electronic E            0.000 [kcal/mol]        0.000 [kJ/mol]       0.00000000 [Eh]
    Translational E         0.889 [kcal/mol]        3.718 [kJ/mol]       0.00141628 [Eh]
    Rotational E            0.889 [kcal/mol]        3.718 [kJ/mol]       0.00141628 [Eh]
    Vibrational E          16.817 [kcal/mol]       70.362 [kJ/mol]       0.02679960 [Eh]
  Correction E             18.594 [kcal/mol]       77.799 [kJ/mol]       0.02963216 [Eh]
  Total E, Electronic energy at  298.15 [K]                           -114.47277789 [Eh]

  Enthalpy, H_trans = E_trans + k_B * T
    Electronic H            0.000 [kcal/mol]        0.000 [kJ/mol]       0.00000000 [Eh]
    Translational H         1.481 [kcal/mol]        6.197 [kJ/mol]       0.00236046 [Eh]
    Rotational H            0.889 [kcal/mol]        3.718 [kJ/mol]       0.00141628 [Eh]
    Vibrational H          16.817 [kcal/mol]       70.362 [kJ/mol]       0.02679960 [Eh]
  Correction H             19.187 [kcal/mol]       80.278 [kJ/mol]       0.03057634 [Eh]
  Total H, Enthalpy at  298.15 [K]                                    -114.47183371 [Eh]

  Gibbs free energy, G = H - T * S
    Electronic G            0.000 [kcal/mol]        0.000 [kJ/mol]       0.00000000 [Eh]
    Translational G        -9.291 [kcal/mol]      -38.874 [kJ/mol]      -0.01480618 [Eh]
    Rotational G           -3.879 [kcal/mol]      -16.229 [kJ/mol]      -0.00618144 [Eh]
    Vibrational G          16.792 [kcal/mol]       70.257 [kJ/mol]       0.02675951 [Eh]
  Correction G              3.622 [kcal/mol]       15.154 [kJ/mol]       0.00577189 [Eh]
  Total G, Free enthalpy at  298.15 [K]                               -114.49663817 [Eh]

    Psi4 stopped on: Tuesday, 27 April 2021 05:47PM
    Psi4 wall time for execution: 0:03:07.32

*** Psi4 exiting successfully. Buy a developer a beer!
