
    -----------------------------------------------------------------------
          Psi4: An Open-Source Ab Initio Electronic Structure Package
                               Psi4 1.3.2 release

                         Git: Rev {HEAD} ecbda83 


    R. M. Parrish, L. A. Burns, D. G. A. Smith, A. C. Simmonett,
    A. E. DePrince III, E. G. Hohenstein, U. Bozkaya, A. Yu. Sokolov,
    R. Di Remigio, R. M. Richard, J. F. Gonthier, A. M. James,
    H. R. McAlexander, A. Kumar, M. Saitow, X. Wang, B. P. Pritchard,
    P. Verma, H. F. Schaefer III, K. Patkowski, R. A. King, E. F. Valeev,
    F. A. Evangelista, J. M. Turney, T. D. Crawford, and C. D. Sherrill,
    J. Chem. Theory Comput. 13(7) pp 3185--3197 (2017).
    (doi: 10.1021/acs.jctc.7b00174)


                         Additional Contributions by
    P. Kraus, H. Kruse, M. H. Lechner, M. C. Schieber, R. A. Shaw,
    A. Alenaizan, R. Galvelis, Z. L. Glick, S. Lehtola, and J. P. Misiewicz

    -----------------------------------------------------------------------


    Psi4 started on: Tuesday, 27 April 2021 05:45PM

    Process ID: 188231
    Host:       bp1-compute00090.data.bp.acrc.priv
    PSIDATADIR: /work/zw18965/.conda/envs/p4env/share/psi4
    Memory:     500.0 MiB
    Threads:    24
    
  ==> Input File <==

--------------------------------------------------------------------------
memory 144 GB

molecule {
0 1
S 0.0000000000 0.0000000000 0.0000000000
C 0.0000000000 0.0000000000 1.2066000000
H 0.9369544103 0.0000000000 1.7870836544
H -0.9369544103 0.0000000000 1.7870836544
}

set dynamic_level 1
set basis cc-pV(T+d)Z
 
optimize("wB97M-V")
frequencies("wB97M-V")
--------------------------------------------------------------------------

  Memory set to 134.110 GiB by Python driver.
gradient() will perform gradient computation by finite difference of analytic energies.

         ----------------------------------------------------------
                                   FINDIF
                     R. A. King and Jonathon Misiewicz
         ---------------------------------------------------------

  Using finite-differences of energies to determine gradients.
    Generating geometries for use with 3-point formula.
    Displacement size will be 5.00e-03.
    Number of atoms is 4.
    Number of symmetric SALCs is 3.
    Translations projected? 1. Rotations projected? 1.
    Number of geometries (including reference) is 7.

  //>>>>>>>>>>>>>>>>>>>>>>>>>>>>>>>>>>>//
  //    Loading displacement 1 of 7    //
  //<<<<<<<<<<<<<<<<<<<<<<<<<<<<<<<<<<<//

*** tstart() called on bp1-compute00090.data.bp.acrc.priv
*** at Tue Apr 27 17:45:02 2021

   => Loading Basis Set <=

    Name: CC-PV(T+D)Z
    Role: ORBITAL
    Keyword: BASIS
    atoms 1   entry S          line   788 file /work/zw18965/.conda/envs/p4env/share/psi4/basis/cc-pv_tpd_z.gbs 
    atoms 2   entry C          line   195 file /work/zw18965/.conda/envs/p4env/share/psi4/basis/cc-pv_tpd_z.gbs 
    atoms 3-4 entry H          line    32 file /work/zw18965/.conda/envs/p4env/share/psi4/basis/cc-pv_tpd_z.gbs 


         ---------------------------------------------------------
                                   SCF
               by Justin Turney, Rob Parrish, Andy Simmonett
                          and Daniel G. A. Smith
                              RKS Reference
                       24 Threads, 137329 MiB Core
         ---------------------------------------------------------

  ==> Geometry <==

    Molecular point group: c2v
    Full point group: C2v

    Geometry (in Angstrom), charge = 0, multiplicity = 1:

       Center              X                  Y                   Z               Mass       
    ------------   -----------------  -----------------  -----------------  -----------------
         S            0.000000000000    -0.000000000000    -0.393177456854    31.972071174400
         C            0.000000000000    -0.000000000000     0.813422543146    12.000000000000
         H            0.936954410300     0.000000000000     1.393906197546     1.007825032230
         H           -0.936954410300    -0.000000000000     1.393906197546     1.007825032230

  Running in c2v symmetry.

  Rotational constants: A =      9.52674  B =      1.00351  C =      0.90787 [cm^-1]
  Rotational constants: A = 285604.56383  B =  30084.32876  C =  27217.37063 [MHz]
  Nuclear repulsion =   56.538433832306865

  Charge       = 0
  Multiplicity = 1
  Electrons    = 24
  Nalpha       = 12
  Nbeta        = 12

  ==> Algorithm <==

  SCF Algorithm Type is DF.
  DIIS enabled.
  MOM disabled.
  Fractional occupation disabled.
  Guess Type is SAD.
  Energy threshold   = 1.00e-08
  Density threshold  = 1.00e-08
  Integral threshold = 0.00e+00

  ==> Primary Basis <==

  Basis Set: CC-PV(T+D)Z
    Blend: CC-PV(T+D)Z
    Number of shells: 35
    Number of basis function: 97
    Number of Cartesian functions: 110
    Spherical Harmonics?: true
    Max angular momentum: 3

  ==> DFT Potential <==

   => Composite Functional: WB97M-V <= 

    wB97M-V Hyb-GGA Exchange-Correlation Functional

    N. Mardirossian and M. Head-Gordon, J. Chem. Phys. 144, 214110 (2016)

    Deriv               =              1
    GGA                 =           TRUE
    Meta                =           TRUE

    Exchange Hybrid     =           TRUE
    MP2 Hybrid          =          FALSE

   => Exchange-Correlation Functionals <=

    1.0000   wB97M-V exchange-correlation functional

   => Exact (HF) Exchange <=

    0.8500            HF,LR [omega = 0.3000]
    0.1500               HF 

   => VV10 Non-Local Parameters <=

    VV10 B              =     6.0000E+00
    VV10 C              =     1.0000E-02

   => Molecular Quadrature <=

    Radial Scheme          =       TREUTLER
    Pruning Scheme         =           FLAT
    Nuclear Scheme         =       TREUTLER

    BS radius alpha        =              1
    Pruning alpha          =              1
    Radial Points          =             75
    Spherical Points       =            302
    Total Points           =          88185
    Total Blocks           =            741
    Max Points             =            255
    Max Functions          =             97

   => Loading Basis Set <=

    Name: (CC-PV(T+D)Z AUX)
    Role: JKFIT
    Keyword: DF_BASIS_SCF
    atoms 1   entry S          line   613 file /work/zw18965/.conda/envs/p4env/share/psi4/basis/cc-pvtz-jkfit.gbs 
    atoms 2   entry C          line   125 file /work/zw18965/.conda/envs/p4env/share/psi4/basis/cc-pvtz-jkfit.gbs 
    atoms 3-4 entry H          line    51 file /work/zw18965/.conda/envs/p4env/share/psi4/basis/cc-pvtz-jkfit.gbs 

  ==> Pre-Iterations <==

   -------------------------------------------------------
    Irrep   Nso     Nmo     Nalpha   Nbeta   Ndocc  Nsocc
   -------------------------------------------------------
     A1        40      40       0       0       0       0
     A2        11      11       0       0       0       0
     B1        26      26       0       0       0       0
     B2        20      20       0       0       0       0
   -------------------------------------------------------
    Total      97      97      12      12      12       0
   -------------------------------------------------------

  ==> Integral Setup <==

  ==> DiskDFJK: Density-Fitted J/K Matrices <==

    J tasked:                  Yes
    K tasked:                  Yes
    wK tasked:                 Yes
    Omega:               3.000E-01
    OpenMP threads:             24
    Integrals threads:          24
    Memory [MiB]:           102410
    Algorithm:                Core
    Integral Cache:           NONE
    Schwarz Cutoff:          1E-12
    Fitting Condition:       1E-10

   => Auxiliary Basis Set <=

  Basis Set: (CC-PV(T+D)Z AUX)
    Blend: CC-PVTZ-JKFIT
    Number of shells: 82
    Number of basis function: 260
    Number of Cartesian functions: 311
    Spherical Harmonics?: true
    Max angular momentum: 4

  Cached 100.0% of DFT collocation blocks in 0.572 [GiB].

  Minimum eigenvalue in the overlap matrix is 6.4482243738E-04.
  Using Symmetric Orthogonalization.

  SCF Guess: Superposition of Atomic Densities via on-the-fly atomic UHF.

  ==> Iterations <==

                           Total Energy        Delta E     RMS |[F,P]|

   @DF-RKS iter SAD:  -437.70808428847329   -4.37708e+02   0.00000e+00 
   @DF-RKS iter   1:  -437.02556844241298    6.82516e-01   1.21483e-02 DIIS
   @DF-RKS iter   2:  -437.07825591498761   -5.26875e-02   9.24017e-03 DIIS
   @DF-RKS iter   3:  -437.17799924913515   -9.97433e-02   9.85492e-04 DIIS
   @DF-RKS iter   4:  -437.17907075943282   -1.07151e-03   2.45441e-04 DIIS
   @DF-RKS iter   5:  -437.17915552986000   -8.47704e-05   3.52880e-05 DIIS
   @DF-RKS iter   6:  -437.17915765788484   -2.12802e-06   6.31216e-06 DIIS
   @DF-RKS iter   7:  -437.17915778539327   -1.27508e-07   1.06178e-06 DIIS
   @DF-RKS iter   8:  -437.17915778880558   -3.41231e-09   1.31657e-07 DIIS
   @DF-RKS iter   9:  -437.17915778886442   -5.88329e-11   1.88684e-08 DIIS
   @DF-RKS iter  10:  -437.17915778886623   -1.81899e-12   2.49507e-09 DIIS
  Energy and wave function converged.


  ==> Post-Iterations <==

    Orbital Energies [Eh]
    ---------------------

    Doubly Occupied:                                                      

       1A1   -89.143119     2A1   -10.353405     3A1    -8.094611  
       4A1    -6.003179     1B2    -6.000539     1B1    -5.991528  
       5A1    -1.032949     6A1    -0.666308     2B1    -0.615471  
       2B2    -0.508223     7A1    -0.506198     3B1    -0.288782  

    Virtual:                                                              

       3B2     0.050941     8A1     0.123424     4B1     0.137625  
       9A1     0.211754    10A1     0.263881     4B2     0.305391  
      11A1     0.332215     5B1     0.367644     1A2     0.402979  
       6B1     0.433816     5B2     0.439344    12A1     0.472052  
       7B1     0.498108    13A1     0.505419    14A1     0.564514  
       6B2     0.618587     2A2     0.710282    15A1     0.725356  
       8B1     0.854619    16A1     0.956909     9B1     0.974482  
       7B2     1.018517    17A1     1.055765     8B2     1.157351  
       3A2     1.203232    10B1     1.234505    18A1     1.303136  
      19A1     1.367969    11B1     1.379399    20A1     1.495496  
       4A2     1.527396     9B2     1.553821    21A1     1.644549  
      10B2     1.739268    12B1     1.746380    13B1     1.790851  
      22A1     1.870726    23A1     1.937328    11B2     1.953719  
      14B1     1.998729    24A1     2.051380     5A2     2.078149  
      12B2     2.191696    13B2     2.426966    15B1     2.449674  
      25A1     2.477538    16B1     2.627674    26A1     2.673660  
      17B1     2.712444     6A2     2.806739    14B2     2.900015  
      27A1     3.006652    28A1     3.027788    18B1     3.040099  
       7A2     3.122102    15B2     3.217445    29A1     3.410064  
      19B1     3.424813     8A2     3.506515    30A1     3.577037  
      20B1     3.642482    16B2     3.745558    31A1     3.826873  
      21B1     3.839477    17B2     4.008782    32A1     4.023645  
       9A2     4.105769    18B2     4.164487    22B1     4.287043  
      33A1     4.502895    34A1     4.662101    19B2     4.753288  
      23B1     4.834878    10A2     4.923206    35A1     4.962646  
      36A1     5.180544    24B1     5.559725    25B1     5.826278  
      37A1     6.012234    11A2     6.865816    38A1     6.909834  
      20B2     7.229054    26B1     7.486295    39A1     7.944337  
      40A1    15.205969  

    Final Occupation by Irrep:
             A1    A2    B1    B2 
    DOCC [     7,    0,    3,    2 ]

  @DF-RKS Final Energy:  -437.17915778886623

   => Energetics <=

    Nuclear Repulsion Energy =             56.5384338323068647
    One-Electron Energy =                -713.8670062787275583
    Two-Electron Energy =                 244.3322758277166713
    DFT Exchange-Correlation Energy =     -24.2818680939228173
    Empirical Dispersion Energy =           0.0000000000000000
    VV10 Nonlocal Energy =                  0.0990069237605846
    Total Energy =                       -437.1791577888662346

Computation Completed


Properties will be evaluated at   0.000000,   0.000000,   0.000000 [a0]

Properties computed using the SCF density matrix

  Nuclear Dipole Moment: [e a0]
     X:     0.0000      Y:     0.0000      Z:     2.6031

  Electronic Dipole Moment: [e a0]
     X:     0.0000      Y:     0.0000      Z:    -2.2572

  Dipole Moment: [e a0]
     X:     0.0000      Y:     0.0000      Z:     0.3459     Total:     0.3459

  Dipole Moment: [D]
     X:     0.0000      Y:     0.0000      Z:     0.8792     Total:     0.8792


*** tstop() called on bp1-compute00090.data.bp.acrc.priv at Tue Apr 27 17:45:07 2021
Module time:
	user time   =      92.97 seconds =       1.55 minutes
	system time =       4.91 seconds =       0.08 minutes
	total time  =          5 seconds =       0.08 minutes
Total time:
	user time   =      92.97 seconds =       1.55 minutes
	system time =       4.91 seconds =       0.08 minutes
	total time  =          5 seconds =       0.08 minutes

  //>>>>>>>>>>>>>>>>>>>>>>>>>>>>>>>>>>>//
  //    Loading displacement 2 of 7    //
  //<<<<<<<<<<<<<<<<<<<<<<<<<<<<<<<<<<<//

*** tstart() called on bp1-compute00090.data.bp.acrc.priv
*** at Tue Apr 27 17:45:07 2021

   => Loading Basis Set <=

    Name: CC-PV(T+D)Z
    Role: ORBITAL
    Keyword: BASIS
    atoms 1   entry S          line   788 file /work/zw18965/.conda/envs/p4env/share/psi4/basis/cc-pv_tpd_z.gbs 
    atoms 2   entry C          line   195 file /work/zw18965/.conda/envs/p4env/share/psi4/basis/cc-pv_tpd_z.gbs 
    atoms 3-4 entry H          line    32 file /work/zw18965/.conda/envs/p4env/share/psi4/basis/cc-pv_tpd_z.gbs 


         ---------------------------------------------------------
                                   SCF
               by Justin Turney, Rob Parrish, Andy Simmonett
                          and Daniel G. A. Smith
                              RKS Reference
                       24 Threads, 137329 MiB Core
         ---------------------------------------------------------

  ==> Geometry <==

    Molecular point group: c2v
    Full point group: C2v

    Geometry (in Angstrom), charge = 0, multiplicity = 1:

       Center              X                  Y                   Z               Mass       
    ------------   -----------------  -----------------  -----------------  -----------------
         S            0.000000000000    -0.000000000000    -0.393435784822    31.972071174400
         C            0.000000000000    -0.000000000000     0.814011832988    12.000000000000
         H            0.936954410300     0.000000000000     1.394495487388     1.007825032230
         H           -0.936954410300    -0.000000000000     1.394495487388     1.007825032230

  Running in c2v symmetry.

  Rotational constants: A =      9.52674  B =      1.00223  C =      0.90683 [cm^-1]
  Rotational constants: A = 285604.56383  B =  30046.20069  C =  27186.15954 [MHz]
  Nuclear repulsion =   56.505756996013346

  Charge       = 0
  Multiplicity = 1
  Electrons    = 24
  Nalpha       = 12
  Nbeta        = 12

  ==> Algorithm <==

  SCF Algorithm Type is DF.
  DIIS enabled.
  MOM disabled.
  Fractional occupation disabled.
  Guess Type is SAD.
  Energy threshold   = 1.00e-08
  Density threshold  = 1.00e-08
  Integral threshold = 0.00e+00

  ==> Primary Basis <==

  Basis Set: CC-PV(T+D)Z
    Blend: CC-PV(T+D)Z
    Number of shells: 35
    Number of basis function: 97
    Number of Cartesian functions: 110
    Spherical Harmonics?: true
    Max angular momentum: 3

  ==> DFT Potential <==

   => Composite Functional: WB97M-V <= 

    wB97M-V Hyb-GGA Exchange-Correlation Functional

    N. Mardirossian and M. Head-Gordon, J. Chem. Phys. 144, 214110 (2016)

    Deriv               =              1
    GGA                 =           TRUE
    Meta                =           TRUE

    Exchange Hybrid     =           TRUE
    MP2 Hybrid          =          FALSE

   => Exchange-Correlation Functionals <=

    1.0000   wB97M-V exchange-correlation functional

   => Exact (HF) Exchange <=

    0.8500            HF,LR [omega = 0.3000]
    0.1500               HF 

   => VV10 Non-Local Parameters <=

    VV10 B              =     6.0000E+00
    VV10 C              =     1.0000E-02

   => Molecular Quadrature <=

    Radial Scheme          =       TREUTLER
    Pruning Scheme         =           FLAT
    Nuclear Scheme         =       TREUTLER

    BS radius alpha        =              1
    Pruning alpha          =              1
    Radial Points          =             75
    Spherical Points       =            302
    Total Points           =          88185
    Total Blocks           =            742
    Max Points             =            255
    Max Functions          =             97

   => Loading Basis Set <=

    Name: (CC-PV(T+D)Z AUX)
    Role: JKFIT
    Keyword: DF_BASIS_SCF
    atoms 1   entry S          line   613 file /work/zw18965/.conda/envs/p4env/share/psi4/basis/cc-pvtz-jkfit.gbs 
    atoms 2   entry C          line   125 file /work/zw18965/.conda/envs/p4env/share/psi4/basis/cc-pvtz-jkfit.gbs 
    atoms 3-4 entry H          line    51 file /work/zw18965/.conda/envs/p4env/share/psi4/basis/cc-pvtz-jkfit.gbs 

  ==> Pre-Iterations <==

   -------------------------------------------------------
    Irrep   Nso     Nmo     Nalpha   Nbeta   Ndocc  Nsocc
   -------------------------------------------------------
     A1        40      40       0       0       0       0
     A2        11      11       0       0       0       0
     B1        26      26       0       0       0       0
     B2        20      20       0       0       0       0
   -------------------------------------------------------
    Total      97      97      12      12      12       0
   -------------------------------------------------------

  ==> Integral Setup <==

  ==> DiskDFJK: Density-Fitted J/K Matrices <==

    J tasked:                  Yes
    K tasked:                  Yes
    wK tasked:                 Yes
    Omega:               3.000E-01
    OpenMP threads:             24
    Integrals threads:          24
    Memory [MiB]:           102410
    Algorithm:                Core
    Integral Cache:           NONE
    Schwarz Cutoff:          1E-12
    Fitting Condition:       1E-10

   => Auxiliary Basis Set <=

  Basis Set: (CC-PV(T+D)Z AUX)
    Blend: CC-PVTZ-JKFIT
    Number of shells: 82
    Number of basis function: 260
    Number of Cartesian functions: 311
    Spherical Harmonics?: true
    Max angular momentum: 4

  Cached 100.0% of DFT collocation blocks in 0.572 [GiB].

  Minimum eigenvalue in the overlap matrix is 6.4605830348E-04.
  Using Symmetric Orthogonalization.

  SCF Guess: Superposition of Atomic Densities via on-the-fly atomic UHF.

  ==> Iterations <==

                           Total Energy        Delta E     RMS |[F,P]|

   @DF-RKS iter SAD:  -437.70650201137374   -4.37707e+02   0.00000e+00 
   @DF-RKS iter   1:  -437.02768139174356    6.78821e-01   1.21268e-02 DIIS
   @DF-RKS iter   2:  -437.08026111771329   -5.25797e-02   9.22250e-03 DIIS
   @DF-RKS iter   3:  -437.17965987666201   -9.93988e-02   9.85166e-04 DIIS
   @DF-RKS iter   4:  -437.18073102081405   -1.07114e-03   2.45069e-04 DIIS
   @DF-RKS iter   5:  -437.18081562213081   -8.46013e-05   3.52901e-05 DIIS
   @DF-RKS iter   6:  -437.18081774823600   -2.12611e-06   6.31774e-06 DIIS
   @DF-RKS iter   7:  -437.18081787586334   -1.27627e-07   1.05945e-06 DIIS
   @DF-RKS iter   8:  -437.18081787926997   -3.40663e-09   1.31738e-07 DIIS
   @DF-RKS iter   9:  -437.18081787932903   -5.90603e-11   1.88704e-08 DIIS
   @DF-RKS iter  10:  -437.18081787933028   -1.25056e-12   2.45700e-09 DIIS
  Energy and wave function converged.


  ==> Post-Iterations <==

    Orbital Energies [Eh]
    ---------------------

    Doubly Occupied:                                                      

       1A1   -89.143291     2A1   -10.353500     3A1    -8.094641  
       4A1    -6.003194     1B2    -6.000594     1B1    -5.991581  
       5A1    -1.032748     6A1    -0.666409     2B1    -0.615280  
       2B2    -0.507957     7A1    -0.506225     3B1    -0.288901  

    Virtual:                                                              

       3B2     0.050820     8A1     0.123396     4B1     0.137679  
       9A1     0.211736    10A1     0.263918     4B2     0.305491  
      11A1     0.332277     5B1     0.367633     1A2     0.403048  
       6B1     0.433744     5B2     0.439341    12A1     0.471967  
       7B1     0.498140    13A1     0.505335    14A1     0.564389  
       6B2     0.618280     2A2     0.710161    15A1     0.725172  
       8B1     0.854294    16A1     0.956947     9B1     0.974450  
       7B2     1.018439    17A1     1.055637     8B2     1.157395  
       3A2     1.203125    10B1     1.234630    18A1     1.302781  
      19A1     1.368046    11B1     1.379319    20A1     1.495481  
       4A2     1.527411     9B2     1.553709    21A1     1.644390  
      10B2     1.739272    12B1     1.746345    13B1     1.790466  
      22A1     1.870298    23A1     1.937281    11B2     1.953857  
      14B1     1.998605    24A1     2.050263     5A2     2.077717  
      12B2     2.191053    13B2     2.426787    15B1     2.449411  
      25A1     2.477280    16B1     2.627192    26A1     2.673055  
      17B1     2.712800     6A2     2.806679    14B2     2.899861  
      27A1     3.006392    28A1     3.027186    18B1     3.039974  
       7A2     3.121875    15B2     3.217287    29A1     3.409101  
      19B1     3.424613     8A2     3.506324    30A1     3.576640  
      20B1     3.641617    16B2     3.745125    31A1     3.826271  
      21B1     3.839195    17B2     4.008138    32A1     4.023366  
       9A2     4.105413    18B2     4.163598    22B1     4.286620  
      33A1     4.502617    34A1     4.661512    19B2     4.753158  
      23B1     4.834768    10A2     4.922968    35A1     4.962199  
      36A1     5.180820    24B1     5.558988    25B1     5.825753  
      37A1     6.009904    11A2     6.865623    38A1     6.909506  
      20B2     7.228511    26B1     7.485461    39A1     7.942850  
      40A1    15.194150  

    Final Occupation by Irrep:
             A1    A2    B1    B2 
    DOCC [     7,    0,    3,    2 ]

  @DF-RKS Final Energy:  -437.18081787933028

   => Energetics <=

    Nuclear Repulsion Energy =             56.5057569960133463
    One-Electron Energy =                -713.8054621713849883
    Two-Electron Energy =                 244.3008917386894439
    DFT Exchange-Correlation Energy =     -24.2810115874563337
    Empirical Dispersion Energy =           0.0000000000000000
    VV10 Nonlocal Energy =                  0.0990071448081921
    Total Energy =                       -437.1808178793303341

Computation Completed


Properties will be evaluated at   0.000000,   0.000000,   0.000000 [a0]

Properties computed using the SCF density matrix

  Nuclear Dipole Moment: [e a0]
     X:     0.0000      Y:     0.0000      Z:     2.6042

  Electronic Dipole Moment: [e a0]
     X:     0.0000      Y:     0.0000      Z:    -2.2577

  Dipole Moment: [e a0]
     X:     0.0000      Y:     0.0000      Z:     0.3465     Total:     0.3465

  Dipole Moment: [D]
     X:     0.0000      Y:     0.0000      Z:     0.8807     Total:     0.8807


*** tstop() called on bp1-compute00090.data.bp.acrc.priv at Tue Apr 27 17:45:11 2021
Module time:
	user time   =      93.53 seconds =       1.56 minutes
	system time =       3.82 seconds =       0.06 minutes
	total time  =          4 seconds =       0.07 minutes
Total time:
	user time   =     186.66 seconds =       3.11 minutes
	system time =       8.74 seconds =       0.15 minutes
	total time  =          9 seconds =       0.15 minutes

  //>>>>>>>>>>>>>>>>>>>>>>>>>>>>>>>>>>>//
  //    Loading displacement 3 of 7    //
  //<<<<<<<<<<<<<<<<<<<<<<<<<<<<<<<<<<<//

*** tstart() called on bp1-compute00090.data.bp.acrc.priv
*** at Tue Apr 27 17:45:11 2021

   => Loading Basis Set <=

    Name: CC-PV(T+D)Z
    Role: ORBITAL
    Keyword: BASIS
    atoms 1   entry S          line   788 file /work/zw18965/.conda/envs/p4env/share/psi4/basis/cc-pv_tpd_z.gbs 
    atoms 2   entry C          line   195 file /work/zw18965/.conda/envs/p4env/share/psi4/basis/cc-pv_tpd_z.gbs 
    atoms 3-4 entry H          line    32 file /work/zw18965/.conda/envs/p4env/share/psi4/basis/cc-pv_tpd_z.gbs 


         ---------------------------------------------------------
                                   SCF
               by Justin Turney, Rob Parrish, Andy Simmonett
                          and Daniel G. A. Smith
                              RKS Reference
                       24 Threads, 137329 MiB Core
         ---------------------------------------------------------

  ==> Geometry <==

    Molecular point group: c2v
    Full point group: C2v

    Geometry (in Angstrom), charge = 0, multiplicity = 1:

       Center              X                  Y                   Z               Mass       
    ------------   -----------------  -----------------  -----------------  -----------------
         S            0.000000000000    -0.000000000000    -0.392919128885    31.972071174400
         C            0.000000000000    -0.000000000000     0.812833253305    12.000000000000
         H            0.936954410300     0.000000000000     1.393316907705     1.007825032230
         H           -0.936954410300    -0.000000000000     1.393316907705     1.007825032230

  Running in c2v symmetry.

  Rotational constants: A =      9.52674  B =      1.00478  C =      0.90892 [cm^-1]
  Rotational constants: A = 285604.56383  B =  30122.52857  C =  27248.63289 [MHz]
  Nuclear repulsion =   56.571154226418535

  Charge       = 0
  Multiplicity = 1
  Electrons    = 24
  Nalpha       = 12
  Nbeta        = 12

  ==> Algorithm <==

  SCF Algorithm Type is DF.
  DIIS enabled.
  MOM disabled.
  Fractional occupation disabled.
  Guess Type is SAD.
  Energy threshold   = 1.00e-08
  Density threshold  = 1.00e-08
  Integral threshold = 0.00e+00

  ==> Primary Basis <==

  Basis Set: CC-PV(T+D)Z
    Blend: CC-PV(T+D)Z
    Number of shells: 35
    Number of basis function: 97
    Number of Cartesian functions: 110
    Spherical Harmonics?: true
    Max angular momentum: 3

  ==> DFT Potential <==

   => Composite Functional: WB97M-V <= 

    wB97M-V Hyb-GGA Exchange-Correlation Functional

    N. Mardirossian and M. Head-Gordon, J. Chem. Phys. 144, 214110 (2016)

    Deriv               =              1
    GGA                 =           TRUE
    Meta                =           TRUE

    Exchange Hybrid     =           TRUE
    MP2 Hybrid          =          FALSE

   => Exchange-Correlation Functionals <=

    1.0000   wB97M-V exchange-correlation functional

   => Exact (HF) Exchange <=

    0.8500            HF,LR [omega = 0.3000]
    0.1500               HF 

   => VV10 Non-Local Parameters <=

    VV10 B              =     6.0000E+00
    VV10 C              =     1.0000E-02

   => Molecular Quadrature <=

    Radial Scheme          =       TREUTLER
    Pruning Scheme         =           FLAT
    Nuclear Scheme         =       TREUTLER

    BS radius alpha        =              1
    Pruning alpha          =              1
    Radial Points          =             75
    Spherical Points       =            302
    Total Points           =          88185
    Total Blocks           =            741
    Max Points             =            256
    Max Functions          =             97

   => Loading Basis Set <=

    Name: (CC-PV(T+D)Z AUX)
    Role: JKFIT
    Keyword: DF_BASIS_SCF
    atoms 1   entry S          line   613 file /work/zw18965/.conda/envs/p4env/share/psi4/basis/cc-pvtz-jkfit.gbs 
    atoms 2   entry C          line   125 file /work/zw18965/.conda/envs/p4env/share/psi4/basis/cc-pvtz-jkfit.gbs 
    atoms 3-4 entry H          line    51 file /work/zw18965/.conda/envs/p4env/share/psi4/basis/cc-pvtz-jkfit.gbs 

  ==> Pre-Iterations <==

   -------------------------------------------------------
    Irrep   Nso     Nmo     Nalpha   Nbeta   Ndocc  Nsocc
   -------------------------------------------------------
     A1        40      40       0       0       0       0
     A2        11      11       0       0       0       0
     B1        26      26       0       0       0       0
     B2        20      20       0       0       0       0
   -------------------------------------------------------
    Total      97      97      12      12      12       0
   -------------------------------------------------------

  ==> Integral Setup <==

  ==> DiskDFJK: Density-Fitted J/K Matrices <==

    J tasked:                  Yes
    K tasked:                  Yes
    wK tasked:                 Yes
    Omega:               3.000E-01
    OpenMP threads:             24
    Integrals threads:          24
    Memory [MiB]:           102410
    Algorithm:                Core
    Integral Cache:           NONE
    Schwarz Cutoff:          1E-12
    Fitting Condition:       1E-10

   => Auxiliary Basis Set <=

  Basis Set: (CC-PV(T+D)Z AUX)
    Blend: CC-PVTZ-JKFIT
    Number of shells: 82
    Number of basis function: 260
    Number of Cartesian functions: 311
    Spherical Harmonics?: true
    Max angular momentum: 4

  Cached 100.0% of DFT collocation blocks in 0.572 [GiB].

  Minimum eigenvalue in the overlap matrix is 6.4359025196E-04.
  Using Symmetric Orthogonalization.

  SCF Guess: Superposition of Atomic Densities via on-the-fly atomic UHF.

  ==> Iterations <==

                           Total Energy        Delta E     RMS |[F,P]|

   @DF-RKS iter SAD:  -437.70966520598267   -4.37710e+02   0.00000e+00 
   @DF-RKS iter   1:  -437.02344406161626    6.86221e-01   1.21699e-02 DIIS
   @DF-RKS iter   2:  -437.07624010258394   -5.27960e-02   9.25794e-03 DIIS
   @DF-RKS iter   3:  -437.17633073664842   -1.00091e-01   9.85829e-04 DIIS
   @DF-RKS iter   4:  -437.17740264044903   -1.07190e-03   2.45817e-04 DIIS
   @DF-RKS iter   5:  -437.17748758368663   -8.49432e-05   3.52864e-05 DIIS
   @DF-RKS iter   6:  -437.17748971371850   -2.13003e-06   6.30670e-06 DIIS
   @DF-RKS iter   7:  -437.17748984111518   -1.27397e-07   1.06418e-06 DIIS
   @DF-RKS iter   8:  -437.17748984453323   -3.41805e-09   1.31600e-07 DIIS
   @DF-RKS iter   9:  -437.17748984459212   -5.88898e-11   1.88784e-08 DIIS
   @DF-RKS iter  10:  -437.17748984459382   -1.70530e-12   2.53939e-09 DIIS
  Energy and wave function converged.


  ==> Post-Iterations <==

    Orbital Energies [Eh]
    ---------------------

    Doubly Occupied:                                                      

       1A1   -89.142947     2A1   -10.353312     3A1    -8.094581  
       4A1    -6.003165     1B2    -6.000484     1B1    -5.991475  
       5A1    -1.033149     6A1    -0.666207     2B1    -0.615662  
       2B2    -0.508489     7A1    -0.506171     3B1    -0.288664  

    Virtual:                                                              

       3B2     0.051061     8A1     0.123452     4B1     0.137571  
       9A1     0.211772    10A1     0.263845     4B2     0.305290  
      11A1     0.332153     5B1     0.367656     1A2     0.402909  
       6B1     0.433887     5B2     0.439346    12A1     0.472136  
       7B1     0.498077    13A1     0.505503    14A1     0.564640  
       6B2     0.618895     2A2     0.710404    15A1     0.725540  
       8B1     0.854943    16A1     0.956872     9B1     0.974514  
       7B2     1.018595    17A1     1.055893     8B2     1.157307  
       3A2     1.203339    10B1     1.234379    18A1     1.303490  
      19A1     1.367892    11B1     1.379479    20A1     1.495511  
       4A2     1.527381     9B2     1.553934    21A1     1.644707  
      10B2     1.739264    12B1     1.746415    13B1     1.791238  
      22A1     1.871153    23A1     1.937375    11B2     1.953581  
      14B1     1.998853    24A1     2.052499     5A2     2.078580  
      12B2     2.192339    13B2     2.427145    15B1     2.449936  
      25A1     2.477795    16B1     2.628158    26A1     2.674266  
      17B1     2.712087     6A2     2.806798    14B2     2.900169  
      27A1     3.006900    28A1     3.028400    18B1     3.040225  
       7A2     3.122330    15B2     3.217604    29A1     3.411031  
      19B1     3.425013     8A2     3.506707    30A1     3.577437  
      20B1     3.643348    16B2     3.745989    31A1     3.827474  
      21B1     3.839761    17B2     4.009423    32A1     4.023926  
       9A2     4.106126    18B2     4.165382    22B1     4.287468  
      33A1     4.503173    34A1     4.662681    19B2     4.753419  
      23B1     4.834989    10A2     4.923445    35A1     4.963093  
      36A1     5.180268    24B1     5.560460    25B1     5.826803  
      37A1     6.014566    11A2     6.866010    38A1     6.910164  
      20B2     7.229594    26B1     7.487128    39A1     7.945832  
      40A1    15.217795  

    Final Occupation by Irrep:
             A1    A2    B1    B2 
    DOCC [     7,    0,    3,    2 ]

  @DF-RKS Final Energy:  -437.17748984459382

   => Energetics <=

    Nuclear Repulsion Energy =             56.5711542264185354
    One-Electron Energy =                -713.9286181678095318
    Two-Electron Energy =                 244.3636933229121269
    DFT Exchange-Correlation Energy =     -24.2827259301857268
    Empirical Dispersion Energy =           0.0000000000000000
    VV10 Nonlocal Energy =                  0.0990067040707592
    Total Energy =                       -437.1774898445938220

Computation Completed


Properties will be evaluated at   0.000000,   0.000000,   0.000000 [a0]

Properties computed using the SCF density matrix

  Nuclear Dipole Moment: [e a0]
     X:     0.0000      Y:     0.0000      Z:     2.6020

  Electronic Dipole Moment: [e a0]
     X:     0.0000      Y:     0.0000      Z:    -2.2567

  Dipole Moment: [e a0]
     X:     0.0000      Y:     0.0000      Z:     0.3453     Total:     0.3453

  Dipole Moment: [D]
     X:     0.0000      Y:     0.0000      Z:     0.8776     Total:     0.8776


*** tstop() called on bp1-compute00090.data.bp.acrc.priv at Tue Apr 27 17:45:15 2021
Module time:
	user time   =      89.42 seconds =       1.49 minutes
	system time =       2.82 seconds =       0.05 minutes
	total time  =          4 seconds =       0.07 minutes
Total time:
	user time   =     276.22 seconds =       4.60 minutes
	system time =      11.57 seconds =       0.19 minutes
	total time  =         13 seconds =       0.22 minutes

  //>>>>>>>>>>>>>>>>>>>>>>>>>>>>>>>>>>>//
  //    Loading displacement 4 of 7    //
  //<<<<<<<<<<<<<<<<<<<<<<<<<<<<<<<<<<<//

*** tstart() called on bp1-compute00090.data.bp.acrc.priv
*** at Tue Apr 27 17:45:15 2021

   => Loading Basis Set <=

    Name: CC-PV(T+D)Z
    Role: ORBITAL
    Keyword: BASIS
    atoms 1   entry S          line   788 file /work/zw18965/.conda/envs/p4env/share/psi4/basis/cc-pv_tpd_z.gbs 
    atoms 2   entry C          line   195 file /work/zw18965/.conda/envs/p4env/share/psi4/basis/cc-pv_tpd_z.gbs 
    atoms 3-4 entry H          line    32 file /work/zw18965/.conda/envs/p4env/share/psi4/basis/cc-pv_tpd_z.gbs 


         ---------------------------------------------------------
                                   SCF
               by Justin Turney, Rob Parrish, Andy Simmonett
                          and Daniel G. A. Smith
                              RKS Reference
                       24 Threads, 137329 MiB Core
         ---------------------------------------------------------

  ==> Geometry <==

    Molecular point group: c2v
    Full point group: C2v

    Geometry (in Angstrom), charge = 0, multiplicity = 1:

       Center              X                  Y                   Z               Mass       
    ------------   -----------------  -----------------  -----------------  -----------------
         S            0.000000000000    -0.000000000000    -0.393177456854    31.972071174400
         C            0.000000000000    -0.000000000000     0.813132887860    12.000000000000
         H            0.936954410300     0.000000000000     1.395630635485     1.007825032230
         H           -0.936954410300    -0.000000000000     1.395630635485     1.007825032230

  Running in c2v symmetry.

  Rotational constants: A =      9.52674  B =      1.00326  C =      0.90768 [cm^-1]
  Rotational constants: A = 285604.56383  B =  30077.09116  C =  27211.44661 [MHz]
  Nuclear repulsion =   56.536649411938946

  Charge       = 0
  Multiplicity = 1
  Electrons    = 24
  Nalpha       = 12
  Nbeta        = 12

  ==> Algorithm <==

  SCF Algorithm Type is DF.
  DIIS enabled.
  MOM disabled.
  Fractional occupation disabled.
  Guess Type is SAD.
  Energy threshold   = 1.00e-08
  Density threshold  = 1.00e-08
  Integral threshold = 0.00e+00

  ==> Primary Basis <==

  Basis Set: CC-PV(T+D)Z
    Blend: CC-PV(T+D)Z
    Number of shells: 35
    Number of basis function: 97
    Number of Cartesian functions: 110
    Spherical Harmonics?: true
    Max angular momentum: 3

  ==> DFT Potential <==

   => Composite Functional: WB97M-V <= 

    wB97M-V Hyb-GGA Exchange-Correlation Functional

    N. Mardirossian and M. Head-Gordon, J. Chem. Phys. 144, 214110 (2016)

    Deriv               =              1
    GGA                 =           TRUE
    Meta                =           TRUE

    Exchange Hybrid     =           TRUE
    MP2 Hybrid          =          FALSE

   => Exchange-Correlation Functionals <=

    1.0000   wB97M-V exchange-correlation functional

   => Exact (HF) Exchange <=

    0.8500            HF,LR [omega = 0.3000]
    0.1500               HF 

   => VV10 Non-Local Parameters <=

    VV10 B              =     6.0000E+00
    VV10 C              =     1.0000E-02

   => Molecular Quadrature <=

    Radial Scheme          =       TREUTLER
    Pruning Scheme         =           FLAT
    Nuclear Scheme         =       TREUTLER

    BS radius alpha        =              1
    Pruning alpha          =              1
    Radial Points          =             75
    Spherical Points       =            302
    Total Points           =          88185
    Total Blocks           =            741
    Max Points             =            256
    Max Functions          =             97

   => Loading Basis Set <=

    Name: (CC-PV(T+D)Z AUX)
    Role: JKFIT
    Keyword: DF_BASIS_SCF
    atoms 1   entry S          line   613 file /work/zw18965/.conda/envs/p4env/share/psi4/basis/cc-pvtz-jkfit.gbs 
    atoms 2   entry C          line   125 file /work/zw18965/.conda/envs/p4env/share/psi4/basis/cc-pvtz-jkfit.gbs 
    atoms 3-4 entry H          line    51 file /work/zw18965/.conda/envs/p4env/share/psi4/basis/cc-pvtz-jkfit.gbs 

  ==> Pre-Iterations <==

   -------------------------------------------------------
    Irrep   Nso     Nmo     Nalpha   Nbeta   Ndocc  Nsocc
   -------------------------------------------------------
     A1        40      40       0       0       0       0
     A2        11      11       0       0       0       0
     B1        26      26       0       0       0       0
     B2        20      20       0       0       0       0
   -------------------------------------------------------
    Total      97      97      12      12      12       0
   -------------------------------------------------------

  ==> Integral Setup <==

  ==> DiskDFJK: Density-Fitted J/K Matrices <==

    J tasked:                  Yes
    K tasked:                  Yes
    wK tasked:                 Yes
    Omega:               3.000E-01
    OpenMP threads:             24
    Integrals threads:          24
    Memory [MiB]:           102410
    Algorithm:                Core
    Integral Cache:           NONE
    Schwarz Cutoff:          1E-12
    Fitting Condition:       1E-10

   => Auxiliary Basis Set <=

  Basis Set: (CC-PV(T+D)Z AUX)
    Blend: CC-PVTZ-JKFIT
    Number of shells: 82
    Number of basis function: 260
    Number of Cartesian functions: 311
    Spherical Harmonics?: true
    Max angular momentum: 4

  Cached 100.0% of DFT collocation blocks in 0.572 [GiB].

  Minimum eigenvalue in the overlap matrix is 6.4433952794E-04.
  Using Symmetric Orthogonalization.

  SCF Guess: Superposition of Atomic Densities via on-the-fly atomic UHF.

  ==> Iterations <==

                           Total Energy        Delta E     RMS |[F,P]|

   @DF-RKS iter SAD:  -437.70754892567629   -4.37708e+02   0.00000e+00 
   @DF-RKS iter   1:  -437.02518696726020    6.82362e-01   1.21480e-02 DIIS
   @DF-RKS iter   2:  -437.07776481949492   -5.25779e-02   9.24366e-03 DIIS
   @DF-RKS iter   3:  -437.17759341772199   -9.98286e-02   9.85888e-04 DIIS
   @DF-RKS iter   4:  -437.17866577660493   -1.07236e-03   2.45608e-04 DIIS
   @DF-RKS iter   5:  -437.17875063326494   -8.48567e-05   3.52246e-05 DIIS
   @DF-RKS iter   6:  -437.17875275741079   -2.12415e-06   6.30744e-06 DIIS
   @DF-RKS iter   7:  -437.17875288448772   -1.27077e-07   1.05928e-06 DIIS
   @DF-RKS iter   8:  -437.17875288788633   -3.39861e-09   1.31392e-07 DIIS
   @DF-RKS iter   9:  -437.17875288794482   -5.84919e-11   1.86824e-08 DIIS
   @DF-RKS iter  10:  -437.17875288794590   -1.08002e-12   2.28625e-09 DIIS
  Energy and wave function converged.


  ==> Post-Iterations <==

    Orbital Energies [Eh]
    ---------------------

    Doubly Occupied:                                                      

       1A1   -89.143164     2A1   -10.353575     3A1    -8.094699  
       4A1    -6.003274     1B2    -6.000616     1B1    -5.991613  
       5A1    -1.032947     6A1    -0.666209     2B1    -0.615053  
       2B2    -0.508320     7A1    -0.506318     3B1    -0.288790  

    Virtual:                                                              

       3B2     0.050944     8A1     0.123391     4B1     0.137584  
       9A1     0.211729    10A1     0.263854     4B2     0.305351  
      11A1     0.332473     5B1     0.367468     1A2     0.402969  
       6B1     0.433540     5B2     0.439316    12A1     0.472047  
       7B1     0.498066    13A1     0.505029    14A1     0.564526  
       6B2     0.618585     2A2     0.710237    15A1     0.725557  
       8B1     0.854254    16A1     0.956622     9B1     0.974892  
       7B2     1.018393    17A1     1.055707     8B2     1.157615  
       3A2     1.202649    10B1     1.234454    18A1     1.303151  
      19A1     1.368363    11B1     1.379444    20A1     1.494742  
       4A2     1.527241     9B2     1.554001    21A1     1.643364  
      10B2     1.739122    12B1     1.746124    13B1     1.790289  
      22A1     1.870838    23A1     1.939127    11B2     1.953581  
      14B1     1.998585    24A1     2.051876     5A2     2.078003  
      12B2     2.191852    13B2     2.426675    15B1     2.449565  
      25A1     2.477982    16B1     2.626631    26A1     2.672987  
      17B1     2.714194     6A2     2.806768    14B2     2.899308  
      27A1     3.006591    28A1     3.027725    18B1     3.039910  
       7A2     3.123460    15B2     3.217332    29A1     3.409984  
      19B1     3.422683     8A2     3.505464    30A1     3.576492  
      20B1     3.642585    16B2     3.745521    31A1     3.824811  
      21B1     3.839078    17B2     4.008109    32A1     4.023180  
       9A2     4.104407    18B2     4.164894    22B1     4.285634  
      33A1     4.498914    34A1     4.662246    19B2     4.750193  
      23B1     4.831365    10A2     4.920796    35A1     4.961505  
      36A1     5.177861    24B1     5.557929    25B1     5.824756  
      37A1     6.010611    11A2     6.865784    38A1     6.909460  
      20B2     7.229238    26B1     7.486105    39A1     7.942296  
      40A1    15.202366  

    Final Occupation by Irrep:
             A1    A2    B1    B2 
    DOCC [     7,    0,    3,    2 ]

  @DF-RKS Final Energy:  -437.17875288794590

   => Energetics <=

    Nuclear Repulsion Energy =             56.5366494119389458
    One-Electron Energy =                -713.8622889029129510
    Two-Electron Energy =                 244.3294244662278345
    DFT Exchange-Correlation Energy =     -24.2815446534576935
    Empirical Dispersion Energy =           0.0000000000000000
    VV10 Nonlocal Energy =                  0.0990067902580137
    Total Energy =                       -437.1787528879459046

Computation Completed


Properties will be evaluated at   0.000000,   0.000000,   0.000000 [a0]

Properties computed using the SCF density matrix

  Nuclear Dipole Moment: [e a0]
     X:     0.0000      Y:     0.0000      Z:     2.6063

  Electronic Dipole Moment: [e a0]
     X:     0.0000      Y:     0.0000      Z:    -2.2626

  Dipole Moment: [e a0]
     X:     0.0000      Y:     0.0000      Z:     0.3437     Total:     0.3437

  Dipole Moment: [D]
     X:     0.0000      Y:     0.0000      Z:     0.8737     Total:     0.8737


*** tstop() called on bp1-compute00090.data.bp.acrc.priv at Tue Apr 27 17:45:19 2021
Module time:
	user time   =      87.75 seconds =       1.46 minutes
	system time =       2.45 seconds =       0.04 minutes
	total time  =          4 seconds =       0.07 minutes
Total time:
	user time   =     364.12 seconds =       6.07 minutes
	system time =      14.03 seconds =       0.23 minutes
	total time  =         17 seconds =       0.28 minutes

  //>>>>>>>>>>>>>>>>>>>>>>>>>>>>>>>>>>>//
  //    Loading displacement 5 of 7    //
  //<<<<<<<<<<<<<<<<<<<<<<<<<<<<<<<<<<<//

*** tstart() called on bp1-compute00090.data.bp.acrc.priv
*** at Tue Apr 27 17:45:19 2021

   => Loading Basis Set <=

    Name: CC-PV(T+D)Z
    Role: ORBITAL
    Keyword: BASIS
    atoms 1   entry S          line   788 file /work/zw18965/.conda/envs/p4env/share/psi4/basis/cc-pv_tpd_z.gbs 
    atoms 2   entry C          line   195 file /work/zw18965/.conda/envs/p4env/share/psi4/basis/cc-pv_tpd_z.gbs 
    atoms 3-4 entry H          line    32 file /work/zw18965/.conda/envs/p4env/share/psi4/basis/cc-pv_tpd_z.gbs 


         ---------------------------------------------------------
                                   SCF
               by Justin Turney, Rob Parrish, Andy Simmonett
                          and Daniel G. A. Smith
                              RKS Reference
                       24 Threads, 137329 MiB Core
         ---------------------------------------------------------

  ==> Geometry <==

    Molecular point group: c2v
    Full point group: C2v

    Geometry (in Angstrom), charge = 0, multiplicity = 1:

       Center              X                  Y                   Z               Mass       
    ------------   -----------------  -----------------  -----------------  -----------------
         S            0.000000000000    -0.000000000000    -0.393177456854    31.972071174400
         C            0.000000000000    -0.000000000000     0.813712198433    12.000000000000
         H            0.936954410300     0.000000000000     1.392181759608     1.007825032230
         H           -0.936954410300    -0.000000000000     1.392181759608     1.007825032230

  Running in c2v symmetry.

  Rotational constants: A =      9.52674  B =      1.00375  C =      0.90807 [cm^-1]
  Rotational constants: A = 285604.56383  B =  30091.54475  C =  27223.27669 [MHz]
  Nuclear repulsion =   56.540228169185632

  Charge       = 0
  Multiplicity = 1
  Electrons    = 24
  Nalpha       = 12
  Nbeta        = 12

  ==> Algorithm <==

  SCF Algorithm Type is DF.
  DIIS enabled.
  MOM disabled.
  Fractional occupation disabled.
  Guess Type is SAD.
  Energy threshold   = 1.00e-08
  Density threshold  = 1.00e-08
  Integral threshold = 0.00e+00

  ==> Primary Basis <==

  Basis Set: CC-PV(T+D)Z
    Blend: CC-PV(T+D)Z
    Number of shells: 35
    Number of basis function: 97
    Number of Cartesian functions: 110
    Spherical Harmonics?: true
    Max angular momentum: 3

  ==> DFT Potential <==

   => Composite Functional: WB97M-V <= 

    wB97M-V Hyb-GGA Exchange-Correlation Functional

    N. Mardirossian and M. Head-Gordon, J. Chem. Phys. 144, 214110 (2016)

    Deriv               =              1
    GGA                 =           TRUE
    Meta                =           TRUE

    Exchange Hybrid     =           TRUE
    MP2 Hybrid          =          FALSE

   => Exchange-Correlation Functionals <=

    1.0000   wB97M-V exchange-correlation functional

   => Exact (HF) Exchange <=

    0.8500            HF,LR [omega = 0.3000]
    0.1500               HF 

   => VV10 Non-Local Parameters <=

    VV10 B              =     6.0000E+00
    VV10 C              =     1.0000E-02

   => Molecular Quadrature <=

    Radial Scheme          =       TREUTLER
    Pruning Scheme         =           FLAT
    Nuclear Scheme         =       TREUTLER

    BS radius alpha        =              1
    Pruning alpha          =              1
    Radial Points          =             75
    Spherical Points       =            302
    Total Points           =          88185
    Total Blocks           =            742
    Max Points             =            256
    Max Functions          =             97

   => Loading Basis Set <=

    Name: (CC-PV(T+D)Z AUX)
    Role: JKFIT
    Keyword: DF_BASIS_SCF
    atoms 1   entry S          line   613 file /work/zw18965/.conda/envs/p4env/share/psi4/basis/cc-pvtz-jkfit.gbs 
    atoms 2   entry C          line   125 file /work/zw18965/.conda/envs/p4env/share/psi4/basis/cc-pvtz-jkfit.gbs 
    atoms 3-4 entry H          line    51 file /work/zw18965/.conda/envs/p4env/share/psi4/basis/cc-pvtz-jkfit.gbs 

  ==> Pre-Iterations <==

   -------------------------------------------------------
    Irrep   Nso     Nmo     Nalpha   Nbeta   Ndocc  Nsocc
   -------------------------------------------------------
     A1        40      40       0       0       0       0
     A2        11      11       0       0       0       0
     B1        26      26       0       0       0       0
     B2        20      20       0       0       0       0
   -------------------------------------------------------
    Total      97      97      12      12      12       0
   -------------------------------------------------------

  ==> Integral Setup <==

  ==> DiskDFJK: Density-Fitted J/K Matrices <==

    J tasked:                  Yes
    K tasked:                  Yes
    wK tasked:                 Yes
    Omega:               3.000E-01
    OpenMP threads:             24
    Integrals threads:          24
    Memory [MiB]:           102410
    Algorithm:                Core
    Integral Cache:           NONE
    Schwarz Cutoff:          1E-12
    Fitting Condition:       1E-10

   => Auxiliary Basis Set <=

  Basis Set: (CC-PV(T+D)Z AUX)
    Blend: CC-PVTZ-JKFIT
    Number of shells: 82
    Number of basis function: 260
    Number of Cartesian functions: 311
    Spherical Harmonics?: true
    Max angular momentum: 4

  Cached 100.0% of DFT collocation blocks in 0.572 [GiB].

  Minimum eigenvalue in the overlap matrix is 6.4530410319E-04.
  Using Symmetric Orthogonalization.

  SCF Guess: Superposition of Atomic Densities via on-the-fly atomic UHF.

  ==> Iterations <==

                           Total Energy        Delta E     RMS |[F,P]|

   @DF-RKS iter SAD:  -437.70861659203320   -4.37709e+02   0.00000e+00 
   @DF-RKS iter   1:  -437.02594287900257    6.82674e-01   1.21486e-02 DIIS
   @DF-RKS iter   2:  -437.07874016506076   -5.27973e-02   9.23677e-03 DIIS
   @DF-RKS iter   3:  -437.17840036468664   -9.96602e-02   9.85104e-04 DIIS
   @DF-RKS iter   4:  -437.17947105077383   -1.07069e-03   2.45277e-04 DIIS
   @DF-RKS iter   5:  -437.17955573938883   -8.46886e-05   3.53524e-05 DIIS
   @DF-RKS iter   6:  -437.17955787147662   -2.13209e-06   6.31720e-06 DIIS
   @DF-RKS iter   7:  -437.17955799943428   -1.27958e-07   1.06438e-06 DIIS
   @DF-RKS iter   8:  -437.17955800286165   -3.42737e-09   1.32012e-07 DIIS
   @DF-RKS iter   9:  -437.17955800292202   -6.03677e-11   1.91169e-08 DIIS
   @DF-RKS iter  10:  -437.17955800292310   -1.08002e-12   2.72055e-09 DIIS
  Energy and wave function converged.


  ==> Post-Iterations <==

    Orbital Energies [Eh]
    ---------------------

    Doubly Occupied:                                                      

       1A1   -89.143074     2A1   -10.353236     3A1    -8.094523  
       4A1    -6.003085     1B2    -6.000463     1B1    -5.991444  
       5A1    -1.032951     6A1    -0.666405     2B1    -0.615890  
       2B2    -0.508126     7A1    -0.506078     3B1    -0.288775  

    Virtual:                                                              

       3B2     0.050937     8A1     0.123456     4B1     0.137665  
       9A1     0.211777    10A1     0.263908     4B2     0.305430  
      11A1     0.331957     5B1     0.367821     1A2     0.402988  
       6B1     0.434093     5B2     0.439371    12A1     0.472056  
       7B1     0.498152    13A1     0.505807    14A1     0.564502  
       6B2     0.618589     2A2     0.710328    15A1     0.725155  
       8B1     0.854979    16A1     0.957197     9B1     0.974074  
       7B2     1.018639    17A1     1.055822     8B2     1.157087  
       3A2     1.203816    10B1     1.234555    18A1     1.303120  
      19A1     1.367560    11B1     1.379359    20A1     1.496249  
       4A2     1.527551     9B2     1.553644    21A1     1.645734  
      10B2     1.739414    12B1     1.746632    13B1     1.791422  
      22A1     1.870612    23A1     1.935538    11B2     1.953857  
      14B1     1.998871    24A1     2.050894     5A2     2.078290  
      12B2     2.191539    13B2     2.427258    15B1     2.449776  
      25A1     2.477096    16B1     2.628719    26A1     2.674334  
      17B1     2.710681     6A2     2.806712    14B2     2.900720  
      27A1     3.006706    28A1     3.027857    18B1     3.040290  
       7A2     3.120741    15B2     3.217559    29A1     3.410146  
      19B1     3.426930     8A2     3.507573    30A1     3.577566  
      20B1     3.642386    16B2     3.745588    31A1     3.828913  
      21B1     3.839875    17B2     4.009431    32A1     4.024117  
       9A2     4.107131    18B2     4.164084    22B1     4.288460  
      33A1     4.506873    34A1     4.661968    19B2     4.756405  
      23B1     4.838393    10A2     4.925614    35A1     4.963771  
      36A1     5.183243    24B1     5.561445    25B1     5.827881  
      37A1     6.013859    11A2     6.865848    38A1     6.910208  
      20B2     7.228871    26B1     7.486483    39A1     7.946388  
      40A1    15.209557  

    Final Occupation by Irrep:
             A1    A2    B1    B2 
    DOCC [     7,    0,    3,    2 ]

  @DF-RKS Final Energy:  -437.17955800292310

   => Energetics <=

    Nuclear Repulsion Energy =             56.5402281691856317
    One-Electron Energy =                -713.8717246177444622
    Two-Electron Energy =                 244.3351225619370553
    DFT Exchange-Correlation Energy =     -24.2821911717262182
    Empirical Dispersion Energy =           0.0000000000000000
    VV10 Nonlocal Energy =                  0.0990070554249186
    Total Energy =                       -437.1795580029230450

Computation Completed


Properties will be evaluated at   0.000000,   0.000000,   0.000000 [a0]

Properties computed using the SCF density matrix

  Nuclear Dipole Moment: [e a0]
     X:     0.0000      Y:     0.0000      Z:     2.5999

  Electronic Dipole Moment: [e a0]
     X:     0.0000      Y:     0.0000      Z:    -2.2518

  Dipole Moment: [e a0]
     X:     0.0000      Y:     0.0000      Z:     0.3480     Total:     0.3480

  Dipole Moment: [D]
     X:     0.0000      Y:     0.0000      Z:     0.8846     Total:     0.8846


*** tstop() called on bp1-compute00090.data.bp.acrc.priv at Tue Apr 27 17:45:22 2021
Module time:
	user time   =      89.36 seconds =       1.49 minutes
	system time =       2.68 seconds =       0.04 minutes
	total time  =          3 seconds =       0.05 minutes
Total time:
	user time   =     453.61 seconds =       7.56 minutes
	system time =      16.72 seconds =       0.28 minutes
	total time  =         20 seconds =       0.33 minutes

  //>>>>>>>>>>>>>>>>>>>>>>>>>>>>>>>>>>>//
  //    Loading displacement 6 of 7    //
  //<<<<<<<<<<<<<<<<<<<<<<<<<<<<<<<<<<<//

*** tstart() called on bp1-compute00090.data.bp.acrc.priv
*** at Tue Apr 27 17:45:22 2021

   => Loading Basis Set <=

    Name: CC-PV(T+D)Z
    Role: ORBITAL
    Keyword: BASIS
    atoms 1   entry S          line   788 file /work/zw18965/.conda/envs/p4env/share/psi4/basis/cc-pv_tpd_z.gbs 
    atoms 2   entry C          line   195 file /work/zw18965/.conda/envs/p4env/share/psi4/basis/cc-pv_tpd_z.gbs 
    atoms 3-4 entry H          line    32 file /work/zw18965/.conda/envs/p4env/share/psi4/basis/cc-pv_tpd_z.gbs 


         ---------------------------------------------------------
                                   SCF
               by Justin Turney, Rob Parrish, Andy Simmonett
                          and Daniel G. A. Smith
                              RKS Reference
                       24 Threads, 137329 MiB Core
         ---------------------------------------------------------

  ==> Geometry <==

    Molecular point group: c2v
    Full point group: C2v

    Geometry (in Angstrom), charge = 0, multiplicity = 1:

       Center              X                  Y                   Z               Mass       
    ------------   -----------------  -----------------  -----------------  -----------------
         S            0.000000000000    -0.000000000000    -0.393177456854    31.972071174400
         C            0.000000000000    -0.000000000000     0.813422543146    12.000000000000
         H            0.935090763668     0.000000000000     1.393906197546     1.007825032230
         H           -0.935090763668    -0.000000000000     1.393906197546     1.007825032230

  Running in c2v symmetry.

  Rotational constants: A =      9.56475  B =      1.00351  C =      0.90822 [cm^-1]
  Rotational constants: A = 286744.12463  B =  30084.32876  C =  27227.68243 [MHz]
  Nuclear repulsion =   56.550885103772920

  Charge       = 0
  Multiplicity = 1
  Electrons    = 24
  Nalpha       = 12
  Nbeta        = 12

  ==> Algorithm <==

  SCF Algorithm Type is DF.
  DIIS enabled.
  MOM disabled.
  Fractional occupation disabled.
  Guess Type is SAD.
  Energy threshold   = 1.00e-08
  Density threshold  = 1.00e-08
  Integral threshold = 0.00e+00

  ==> Primary Basis <==

  Basis Set: CC-PV(T+D)Z
    Blend: CC-PV(T+D)Z
    Number of shells: 35
    Number of basis function: 97
    Number of Cartesian functions: 110
    Spherical Harmonics?: true
    Max angular momentum: 3

  ==> DFT Potential <==

   => Composite Functional: WB97M-V <= 

    wB97M-V Hyb-GGA Exchange-Correlation Functional

    N. Mardirossian and M. Head-Gordon, J. Chem. Phys. 144, 214110 (2016)

    Deriv               =              1
    GGA                 =           TRUE
    Meta                =           TRUE

    Exchange Hybrid     =           TRUE
    MP2 Hybrid          =          FALSE

   => Exchange-Correlation Functionals <=

    1.0000   wB97M-V exchange-correlation functional

   => Exact (HF) Exchange <=

    0.8500            HF,LR [omega = 0.3000]
    0.1500               HF 

   => VV10 Non-Local Parameters <=

    VV10 B              =     6.0000E+00
    VV10 C              =     1.0000E-02

   => Molecular Quadrature <=

    Radial Scheme          =       TREUTLER
    Pruning Scheme         =           FLAT
    Nuclear Scheme         =       TREUTLER

    BS radius alpha        =              1
    Pruning alpha          =              1
    Radial Points          =             75
    Spherical Points       =            302
    Total Points           =          88185
    Total Blocks           =            741
    Max Points             =            255
    Max Functions          =             97

   => Loading Basis Set <=

    Name: (CC-PV(T+D)Z AUX)
    Role: JKFIT
    Keyword: DF_BASIS_SCF
    atoms 1   entry S          line   613 file /work/zw18965/.conda/envs/p4env/share/psi4/basis/cc-pvtz-jkfit.gbs 
    atoms 2   entry C          line   125 file /work/zw18965/.conda/envs/p4env/share/psi4/basis/cc-pvtz-jkfit.gbs 
    atoms 3-4 entry H          line    51 file /work/zw18965/.conda/envs/p4env/share/psi4/basis/cc-pvtz-jkfit.gbs 

  ==> Pre-Iterations <==

   -------------------------------------------------------
    Irrep   Nso     Nmo     Nalpha   Nbeta   Ndocc  Nsocc
   -------------------------------------------------------
     A1        40      40       0       0       0       0
     A2        11      11       0       0       0       0
     B1        26      26       0       0       0       0
     B2        20      20       0       0       0       0
   -------------------------------------------------------
    Total      97      97      12      12      12       0
   -------------------------------------------------------

  ==> Integral Setup <==

  ==> DiskDFJK: Density-Fitted J/K Matrices <==

    J tasked:                  Yes
    K tasked:                  Yes
    wK tasked:                 Yes
    Omega:               3.000E-01
    OpenMP threads:             24
    Integrals threads:          24
    Memory [MiB]:           102410
    Algorithm:                Core
    Integral Cache:           NONE
    Schwarz Cutoff:          1E-12
    Fitting Condition:       1E-10

   => Auxiliary Basis Set <=

  Basis Set: (CC-PV(T+D)Z AUX)
    Blend: CC-PVTZ-JKFIT
    Number of shells: 82
    Number of basis function: 260
    Number of Cartesian functions: 311
    Spherical Harmonics?: true
    Max angular momentum: 4

  Cached 100.0% of DFT collocation blocks in 0.572 [GiB].

  Minimum eigenvalue in the overlap matrix is 6.4467196276E-04.
  Using Symmetric Orthogonalization.

  SCF Guess: Superposition of Atomic Densities via on-the-fly atomic UHF.

  ==> Iterations <==

                           Total Energy        Delta E     RMS |[F,P]|

   @DF-RKS iter SAD:  -437.70915896850647   -4.37709e+02   0.00000e+00 
   @DF-RKS iter   1:  -437.02538606619316    6.83773e-01   1.21579e-02 DIIS
   @DF-RKS iter   2:  -437.07821143958728   -5.28254e-02   9.24571e-03 DIIS
   @DF-RKS iter   3:  -437.17804965748905   -9.98382e-02   9.84698e-04 DIIS
   @DF-RKS iter   4:  -437.17911928128541   -1.06962e-03   2.45373e-04 DIIS
   @DF-RKS iter   5:  -437.17920400905155   -8.47278e-05   3.54134e-05 DIIS
   @DF-RKS iter   6:  -437.17920614696880   -2.13792e-06   6.32339e-06 DIIS
   @DF-RKS iter   7:  -437.17920627515258   -1.28184e-07   1.06410e-06 DIIS
   @DF-RKS iter   8:  -437.17920627858075   -3.42817e-09   1.32169e-07 DIIS
   @DF-RKS iter   9:  -437.17920627864117   -6.04246e-11   1.91963e-08 DIIS
   @DF-RKS iter  10:  -437.17920627864214   -9.66338e-13   2.74640e-09 DIIS
  Energy and wave function converged.


  ==> Post-Iterations <==

    Orbital Energies [Eh]
    ---------------------

    Doubly Occupied:                                                      

       1A1   -89.143085     2A1   -10.353108     3A1    -8.094568  
       4A1    -6.003138     1B2    -6.000499     1B1    -5.991484  
       5A1    -1.032947     6A1    -0.666776     2B1    -0.615656  
       2B2    -0.508197     7A1    -0.506248     3B1    -0.288788  

    Virtual:                                                              

       3B2     0.050951     8A1     0.123520     4B1     0.137792  
       9A1     0.211792    10A1     0.263891     4B2     0.305409  
      11A1     0.332474     5B1     0.367704     1A2     0.403059  
       6B1     0.433908     5B2     0.439366    12A1     0.472187  
       7B1     0.498075    13A1     0.506261    14A1     0.564203  
       6B2     0.618541     2A2     0.710617    15A1     0.725370  
       8B1     0.855042    16A1     0.956774     9B1     0.975691  
       7B2     1.019029    17A1     1.055906     8B2     1.157692  
       3A2     1.203369    10B1     1.234668    18A1     1.303263  
      19A1     1.369045    11B1     1.379537    20A1     1.496464  
       4A2     1.527414     9B2     1.553901    21A1     1.645296  
      10B2     1.739356    12B1     1.746478    13B1     1.790774  
      22A1     1.870914    23A1     1.936455    11B2     1.953792  
      14B1     1.998817    24A1     2.051229     5A2     2.078695  
      12B2     2.191774    13B2     2.427018    15B1     2.449545  
      25A1     2.477363    16B1     2.627654    26A1     2.673444  
      17B1     2.713191     6A2     2.806650    14B2     2.901071  
      27A1     3.006990    28A1     3.027459    18B1     3.040672  
       7A2     3.122342    15B2     3.216705    29A1     3.410725  
      19B1     3.427137     8A2     3.506875    30A1     3.579282  
      20B1     3.643122    16B2     3.747225    31A1     3.829108  
      21B1     3.841805    17B2     4.009653    32A1     4.024885  
       9A2     4.107795    18B2     4.166859    22B1     4.289521  
      33A1     4.509003    34A1     4.663669    19B2     4.756338  
      23B1     4.838770    10A2     4.928166    35A1     4.968872  
      36A1     5.183952    24B1     5.560712    25B1     5.832884  
      37A1     6.012996    11A2     6.866018    38A1     6.909923  
      20B2     7.229110    26B1     7.487247    39A1     7.946711  
      40A1    15.217711  

    Final Occupation by Irrep:
             A1    A2    B1    B2 
    DOCC [     7,    0,    3,    2 ]

  @DF-RKS Final Energy:  -437.17920627864214

   => Energetics <=

    Nuclear Repulsion Energy =             56.5508851037729201
    One-Electron Energy =                -713.8911189958903378
    Two-Electron Energy =                 244.3447614710653113
    DFT Exchange-Correlation Energy =     -24.2827424511278096
    Empirical Dispersion Energy =           0.0000000000000000
    VV10 Nonlocal Energy =                  0.0990085935377695
    Total Energy =                       -437.1792062786421980

Computation Completed


Properties will be evaluated at   0.000000,   0.000000,   0.000000 [a0]

Properties computed using the SCF density matrix

  Nuclear Dipole Moment: [e a0]
     X:     0.0000      Y:     0.0000      Z:     2.6031

  Electronic Dipole Moment: [e a0]
     X:     0.0000      Y:     0.0000      Z:    -2.2551

  Dipole Moment: [e a0]
     X:     0.0000      Y:     0.0000      Z:     0.3480     Total:     0.3480

  Dipole Moment: [D]
     X:     0.0000      Y:     0.0000      Z:     0.8846     Total:     0.8846


*** tstop() called on bp1-compute00090.data.bp.acrc.priv at Tue Apr 27 17:45:26 2021
Module time:
	user time   =      89.10 seconds =       1.48 minutes
	system time =       2.74 seconds =       0.05 minutes
	total time  =          4 seconds =       0.07 minutes
Total time:
	user time   =     542.84 seconds =       9.05 minutes
	system time =      19.47 seconds =       0.32 minutes
	total time  =         24 seconds =       0.40 minutes

  //>>>>>>>>>>>>>>>>>>>>>>>>>>>>>>>>>>>//
  //    Loading displacement 7 of 7    //
  //<<<<<<<<<<<<<<<<<<<<<<<<<<<<<<<<<<<//

*** tstart() called on bp1-compute00090.data.bp.acrc.priv
*** at Tue Apr 27 17:45:26 2021

   => Loading Basis Set <=

    Name: CC-PV(T+D)Z
    Role: ORBITAL
    Keyword: BASIS
    atoms 1   entry S          line   788 file /work/zw18965/.conda/envs/p4env/share/psi4/basis/cc-pv_tpd_z.gbs 
    atoms 2   entry C          line   195 file /work/zw18965/.conda/envs/p4env/share/psi4/basis/cc-pv_tpd_z.gbs 
    atoms 3-4 entry H          line    32 file /work/zw18965/.conda/envs/p4env/share/psi4/basis/cc-pv_tpd_z.gbs 


         ---------------------------------------------------------
                                   SCF
               by Justin Turney, Rob Parrish, Andy Simmonett
                          and Daniel G. A. Smith
                              RKS Reference
                       24 Threads, 137329 MiB Core
         ---------------------------------------------------------

  ==> Geometry <==

    Molecular point group: c2v
    Full point group: C2v

    Geometry (in Angstrom), charge = 0, multiplicity = 1:

       Center              X                  Y                   Z               Mass       
    ------------   -----------------  -----------------  -----------------  -----------------
         S            0.000000000000    -0.000000000000    -0.393177456854    31.972071174400
         C            0.000000000000    -0.000000000000     0.813422543146    12.000000000000
         H            0.938818056932     0.000000000000     1.393906197546     1.007825032230
         H           -0.938818056932    -0.000000000000     1.393906197546     1.007825032230

  Running in c2v symmetry.

  Rotational constants: A =      9.48896  B =      1.00351  C =      0.90753 [cm^-1]
  Rotational constants: A = 284471.78271  B =  30084.32876  C =  27207.04612 [MHz]
  Nuclear repulsion =   56.526001503822336

  Charge       = 0
  Multiplicity = 1
  Electrons    = 24
  Nalpha       = 12
  Nbeta        = 12

  ==> Algorithm <==

  SCF Algorithm Type is DF.
  DIIS enabled.
  MOM disabled.
  Fractional occupation disabled.
  Guess Type is SAD.
  Energy threshold   = 1.00e-08
  Density threshold  = 1.00e-08
  Integral threshold = 0.00e+00

  ==> Primary Basis <==

  Basis Set: CC-PV(T+D)Z
    Blend: CC-PV(T+D)Z
    Number of shells: 35
    Number of basis function: 97
    Number of Cartesian functions: 110
    Spherical Harmonics?: true
    Max angular momentum: 3

  ==> DFT Potential <==

   => Composite Functional: WB97M-V <= 

    wB97M-V Hyb-GGA Exchange-Correlation Functional

    N. Mardirossian and M. Head-Gordon, J. Chem. Phys. 144, 214110 (2016)

    Deriv               =              1
    GGA                 =           TRUE
    Meta                =           TRUE

    Exchange Hybrid     =           TRUE
    MP2 Hybrid          =          FALSE

   => Exchange-Correlation Functionals <=

    1.0000   wB97M-V exchange-correlation functional

   => Exact (HF) Exchange <=

    0.8500            HF,LR [omega = 0.3000]
    0.1500               HF 

   => VV10 Non-Local Parameters <=

    VV10 B              =     6.0000E+00
    VV10 C              =     1.0000E-02

   => Molecular Quadrature <=

    Radial Scheme          =       TREUTLER
    Pruning Scheme         =           FLAT
    Nuclear Scheme         =       TREUTLER

    BS radius alpha        =              1
    Pruning alpha          =              1
    Radial Points          =             75
    Spherical Points       =            302
    Total Points           =          88185
    Total Blocks           =            743
    Max Points             =            256
    Max Functions          =             97

   => Loading Basis Set <=

    Name: (CC-PV(T+D)Z AUX)
    Role: JKFIT
    Keyword: DF_BASIS_SCF
    atoms 1   entry S          line   613 file /work/zw18965/.conda/envs/p4env/share/psi4/basis/cc-pvtz-jkfit.gbs 
    atoms 2   entry C          line   125 file /work/zw18965/.conda/envs/p4env/share/psi4/basis/cc-pvtz-jkfit.gbs 
    atoms 3-4 entry H          line    51 file /work/zw18965/.conda/envs/p4env/share/psi4/basis/cc-pvtz-jkfit.gbs 

  ==> Pre-Iterations <==

   -------------------------------------------------------
    Irrep   Nso     Nmo     Nalpha   Nbeta   Ndocc  Nsocc
   -------------------------------------------------------
     A1        40      40       0       0       0       0
     A2        11      11       0       0       0       0
     B1        26      26       0       0       0       0
     B2        20      20       0       0       0       0
   -------------------------------------------------------
    Total      97      97      12      12      12       0
   -------------------------------------------------------

  ==> Integral Setup <==

  ==> DiskDFJK: Density-Fitted J/K Matrices <==

    J tasked:                  Yes
    K tasked:                  Yes
    wK tasked:                 Yes
    Omega:               3.000E-01
    OpenMP threads:             24
    Integrals threads:          24
    Memory [MiB]:           102410
    Algorithm:                Core
    Integral Cache:           NONE
    Schwarz Cutoff:          1E-12
    Fitting Condition:       1E-10

   => Auxiliary Basis Set <=

  Basis Set: (CC-PV(T+D)Z AUX)
    Blend: CC-PVTZ-JKFIT
    Number of shells: 82
    Number of basis function: 260
    Number of Cartesian functions: 311
    Spherical Harmonics?: true
    Max angular momentum: 4

  Cached 100.0% of DFT collocation blocks in 0.572 [GiB].

  Minimum eigenvalue in the overlap matrix is 6.4496945608E-04.
  Using Symmetric Orthogonalization.

  SCF Guess: Superposition of Atomic Densities via on-the-fly atomic UHF.

  ==> Iterations <==

                           Total Energy        Delta E     RMS |[F,P]|

   @DF-RKS iter SAD:  -437.70700575752062   -4.37707e+02   0.00000e+00 
   @DF-RKS iter   1:  -437.02574119919024    6.81265e-01   1.21388e-02 DIIS
   @DF-RKS iter   2:  -437.07829177012246   -5.25506e-02   9.23474e-03 DIIS
   @DF-RKS iter   3:  -437.17794280014061   -9.96510e-02   9.86302e-04 DIIS
   @DF-RKS iter   4:  -437.17901624056299   -1.07344e-03   2.45511e-04 DIIS
   @DF-RKS iter   5:  -437.17910105648167   -8.48159e-05   3.51633e-05 DIIS
   @DF-RKS iter   6:  -437.17910317478436   -2.11830e-06   6.30112e-06 DIIS
   @DF-RKS iter   7:  -437.17910330163426   -1.26850e-07   1.05959e-06 DIIS
   @DF-RKS iter   8:  -437.17910330503184   -3.39759e-09   1.31235e-07 DIIS
   @DF-RKS iter   9:  -437.17910330508965   -5.78098e-11   1.86025e-08 DIIS
   @DF-RKS iter  10:  -437.17910330509119   -1.53477e-12   2.26135e-09 DIIS
  Energy and wave function converged.


  ==> Post-Iterations <==

    Orbital Energies [Eh]
    ---------------------

    Doubly Occupied:                                                      

       1A1   -89.143153     2A1   -10.353702     3A1    -8.094653  
       4A1    -6.003221     1B2    -6.000579     1B1    -5.991572  
       5A1    -1.032950     6A1    -0.665842     2B1    -0.615285  
       2B2    -0.508249     7A1    -0.506148     3B1    -0.288776  

    Virtual:                                                              

       3B2     0.050929     8A1     0.123326     4B1     0.137457  
       9A1     0.211716    10A1     0.263872     4B2     0.305372  
      11A1     0.331956     5B1     0.367585     1A2     0.402898  
       6B1     0.433722     5B2     0.439322    12A1     0.471914  
       7B1     0.498144    13A1     0.504583    14A1     0.564826  
       6B2     0.618633     2A2     0.709949    15A1     0.725342  
       8B1     0.854191    16A1     0.957044     9B1     0.973277  
       7B2     1.018002    17A1     1.055625     8B2     1.157014  
       3A2     1.203094    10B1     1.234337    18A1     1.303008  
      19A1     1.366892    11B1     1.379268    20A1     1.494522  
       4A2     1.527377     9B2     1.553742    21A1     1.643814  
      10B2     1.739180    12B1     1.746282    13B1     1.790930  
      22A1     1.870539    23A1     1.938204    11B2     1.953647  
      14B1     1.998640    24A1     2.051535     5A2     2.077601  
      12B2     2.191615    13B2     2.426914    15B1     2.449799  
      25A1     2.477726    16B1     2.627697    26A1     2.673870  
      17B1     2.711681     6A2     2.806832    14B2     2.898957  
      27A1     3.006300    28A1     3.028123    18B1     3.039528  
       7A2     3.121868    15B2     3.218187    29A1     3.409388  
      19B1     3.422480     8A2     3.506159    30A1     3.574811  
      20B1     3.641858    16B2     3.743875    31A1     3.824614  
      21B1     3.837175    17B2     4.007899    32A1     4.022414  
       9A2     4.103743    18B2     4.162147    22B1     4.284575  
      33A1     4.496798    34A1     4.660539    19B2     4.750248  
      23B1     4.830992    10A2     4.918248    35A1     4.956430  
      36A1     5.177162    24B1     5.558727    25B1     5.819680  
      37A1     6.011474    11A2     6.865615    38A1     6.909746  
      20B2     7.228998    26B1     7.485349    39A1     7.941966  
      40A1    15.194237  

    Final Occupation by Irrep:
             A1    A2    B1    B2 
    DOCC [     7,    0,    3,    2 ]

  @DF-RKS Final Energy:  -437.17910330509119

   => Energetics <=

    Nuclear Repulsion Energy =             56.5260015038223358
    One-Electron Energy =                -713.8429126558802409
    Two-Electron Energy =                 244.3197980338641457
    DFT Exchange-Correlation Energy =     -24.2809954454424854
    Empirical Dispersion Energy =           0.0000000000000000
    VV10 Nonlocal Energy =                  0.0990052585450021
    Total Energy =                       -437.1791033050912461

Computation Completed


Properties will be evaluated at   0.000000,   0.000000,   0.000000 [a0]

Properties computed using the SCF density matrix

  Nuclear Dipole Moment: [e a0]
     X:     0.0000      Y:     0.0000      Z:     2.6031

  Electronic Dipole Moment: [e a0]
     X:     0.0000      Y:     0.0000      Z:    -2.2593

  Dipole Moment: [e a0]
     X:     0.0000      Y:     0.0000      Z:     0.3438     Total:     0.3438

  Dipole Moment: [D]
     X:     0.0000      Y:     0.0000      Z:     0.8738     Total:     0.8738


*** tstop() called on bp1-compute00090.data.bp.acrc.priv at Tue Apr 27 17:45:30 2021
Module time:
	user time   =      89.23 seconds =       1.49 minutes
	system time =       2.51 seconds =       0.04 minutes
	total time  =          4 seconds =       0.07 minutes
Total time:
	user time   =     632.21 seconds =      10.54 minutes
	system time =      21.98 seconds =       0.37 minutes
	total time  =         28 seconds =       0.47 minutes

         ----------------------------------------------------------
                                   FINDIF
                     R. A. King and Jonathon Misiewicz
         ---------------------------------------------------------

  Computing gradient from energies.
    Using 3-point formula.
    Energy without displacement: -437.1791577889
    Check energies below for precision!
    Forces are for mass-weighted, symmetry-adapted cartesians (in au).

     Coord      Energy(-1)        Energy(+1)            Force
        0   -437.1808178793   -437.1774898446      0.3328034736
        1   -437.1787528879   -437.1795580029     -0.0805114977
        2   -437.1792062786   -437.1791033051      0.0102973551


-------------------------------------------------------------
  ## New Matrix (Symmetry 0) ##
  Irrep: 1 Size: 4 x 3

                 1                   2                   3

    1     0.00000000000000     0.00000000000000     1.03886451934929
    2     0.00000000000000     0.00000000000000    -0.99522783450280
    3     0.00730976242204     0.00000000000000    -0.02181834242324
    4    -0.00730976242204     0.00000000000000    -0.02181834242324




			-----------------------------------------
			 OPTKING 2.0: for geometry optimizations 
			  - R.A. King,  Bethel University        
			-----------------------------------------
	At level 1: Red. Int., RFO, no backsteps, dynamic trust

	Internal coordinates to be generated automatically.
	Detected frag 1 with atoms:  1 2 3 4
	---Fragment 1 Bond Connectivity---
	 1 : 2
	 2 : 1 3 4
	 3 : 2
	 4 : 2

	---Fragment 1 Geometry and Gradient---
	 S           0.0000000000       -0.0000000000       -0.7429977122
	 C           0.0000000000       -0.0000000000        1.5371458308
	 H           1.7705872275        0.0000000000        2.6341009579
	 H          -1.7705872275       -0.0000000000        2.6341009579
	             0.0000000000        0.0000000000        1.0388645193
	             0.0000000000        0.0000000000       -0.9952278345
	             0.0073097624        0.0000000000       -0.0218183424
	            -0.0073097624        0.0000000000       -0.0218183424

	Previous optimization step data not found.  Starting new optimization.

	---Fragment 1 Intrafragment Coordinates---
[...]
    atoms 3-4 entry H          line    32 file /work/zw18965/.conda/envs/p4env/share/psi4/basis/cc-pv_tpd_z.gbs 


         ---------------------------------------------------------
                                   SCF
               by Justin Turney, Rob Parrish, Andy Simmonett
                          and Daniel G. A. Smith
                              RKS Reference
                       24 Threads, 137329 MiB Core
         ---------------------------------------------------------

  ==> Geometry <==

    Molecular point group: cs
    Full point group: Cs

    Geometry (in Angstrom), charge = 0, multiplicity = 1:

       Center              X                  Y                   Z               Mass       
    ------------   -----------------  -----------------  -----------------  -----------------
         S            0.000000000000    -0.000036919942    -0.512250711273    31.972071174400
         C            0.000000000000     0.000370902443     1.085590714516    12.000000000000
         H            0.920587004696    -0.001622514920     1.662306213189     1.007825032230
         H           -0.920587004696    -0.001622514920     1.662306213189     1.007825032230

  Running in cs symmetry.

  Rotational constants: A =      9.86847  B =      0.59989  C =      0.56551 [cm^-1]
  Rotational constants: A = 295849.33867  B =  17984.14816  C =  16953.57908 [MHz]
  Nuclear repulsion =   45.097540780662186

  Charge       = 0
  Multiplicity = 1
  Electrons    = 24
  Nalpha       = 12
  Nbeta        = 12

  ==> Algorithm <==

  SCF Algorithm Type is DF.
  DIIS enabled.
  MOM disabled.
  Fractional occupation disabled.
  Guess Type is SAD.
  Energy threshold   = 1.00e-10
  Density threshold  = 1.00e-10
  Integral threshold = 0.00e+00

  ==> Primary Basis <==

  Basis Set: CC-PV(T+D)Z
    Blend: CC-PV(T+D)Z
    Number of shells: 35
    Number of basis function: 97
    Number of Cartesian functions: 110
    Spherical Harmonics?: true
    Max angular momentum: 3

  ==> DFT Potential <==

   => Composite Functional: WB97M-V <= 

    wB97M-V Hyb-GGA Exchange-Correlation Functional

    N. Mardirossian and M. Head-Gordon, J. Chem. Phys. 144, 214110 (2016)

    Deriv               =              1
    GGA                 =           TRUE
    Meta                =           TRUE

    Exchange Hybrid     =           TRUE
    MP2 Hybrid          =          FALSE

   => Exchange-Correlation Functionals <=

    1.0000   wB97M-V exchange-correlation functional

   => Exact (HF) Exchange <=

    0.8500            HF,LR [omega = 0.3000]
    0.1500               HF 

   => VV10 Non-Local Parameters <=

    VV10 B              =     6.0000E+00
    VV10 C              =     1.0000E-02

   => Molecular Quadrature <=

    Radial Scheme          =       TREUTLER
    Pruning Scheme         =           FLAT
    Nuclear Scheme         =       TREUTLER

    BS radius alpha        =              1
    Pruning alpha          =              1
    Radial Points          =             75
    Spherical Points       =            302
    Total Points           =          88205
    Total Blocks           =            733
    Max Points             =            256
    Max Functions          =             97

   => Loading Basis Set <=

    Name: (CC-PV(T+D)Z AUX)
    Role: JKFIT
    Keyword: DF_BASIS_SCF
    atoms 1   entry S          line   613 file /work/zw18965/.conda/envs/p4env/share/psi4/basis/cc-pvtz-jkfit.gbs 
    atoms 2   entry C          line   125 file /work/zw18965/.conda/envs/p4env/share/psi4/basis/cc-pvtz-jkfit.gbs 
    atoms 3-4 entry H          line    51 file /work/zw18965/.conda/envs/p4env/share/psi4/basis/cc-pvtz-jkfit.gbs 

  ==> Pre-Iterations <==

   -------------------------------------------------------
    Irrep   Nso     Nmo     Nalpha   Nbeta   Ndocc  Nsocc
   -------------------------------------------------------
     A'        60      60       0       0       0       0
     A"        37      37       0       0       0       0
   -------------------------------------------------------
    Total      97      97      12      12      12       0
   -------------------------------------------------------

  ==> Integral Setup <==

  ==> DiskDFJK: Density-Fitted J/K Matrices <==

    J tasked:                  Yes
    K tasked:                  Yes
    wK tasked:                 Yes
    Omega:               3.000E-01
    OpenMP threads:             24
    Integrals threads:          24
    Memory [MiB]:           102417
    Algorithm:                Core
    Integral Cache:           NONE
    Schwarz Cutoff:          1E-12
    Fitting Condition:       1E-10

   => Auxiliary Basis Set <=

  Basis Set: (CC-PV(T+D)Z AUX)
    Blend: CC-PVTZ-JKFIT
    Number of shells: 82
    Number of basis function: 260
    Number of Cartesian functions: 311
    Spherical Harmonics?: true
    Max angular momentum: 4

  Cached 100.0% of DFT collocation blocks in 0.566 [GiB].

  Minimum eigenvalue in the overlap matrix is 1.6299673450E-03.
  Using Symmetric Orthogonalization.

  SCF Guess: Superposition of Atomic Densities via on-the-fly atomic UHF.

  ==> Iterations <==

                           Total Energy        Delta E     RMS |[F,P]|

   @DF-RKS iter SAD:  -436.99663849511541   -4.36997e+02   0.00000e+00 
   @DF-RKS iter   1:  -437.40181511472906   -4.05177e-01   4.66848e-03 DIIS
   @DF-RKS iter   2:  -437.42420891539763   -2.23938e-02   3.34711e-03 DIIS
   @DF-RKS iter   3:  -437.44953663881773   -2.53277e-02   8.40780e-04 DIIS
   @DF-RKS iter   4:  -437.45125678801310   -1.72015e-03   1.51900e-04 DIIS
   @DF-RKS iter   5:  -437.45134085066616   -8.40627e-05   3.81957e-05 DIIS
   @DF-RKS iter   6:  -437.45134591116334   -5.06050e-06   1.27615e-05 DIIS
   @DF-RKS iter   7:  -437.45134678047043   -8.69307e-07   2.89146e-06 DIIS
   @DF-RKS iter   8:  -437.45134685456077   -7.40903e-08   4.90285e-07 DIIS
   @DF-RKS iter   9:  -437.45134685638260   -1.82183e-09   1.00693e-07 DIIS
   @DF-RKS iter  10:  -437.45134685644121   -5.86056e-11   1.32526e-08 DIIS
   @DF-RKS iter  11:  -437.45134685644280   -1.59162e-12   3.48467e-09 DIIS
   @DF-RKS iter  12:  -437.45134685644280    0.00000e+00   4.59055e-10 DIIS
   @DF-RKS iter  13:  -437.45134685644274    5.68434e-14   1.17721e-10 DIIS
   @DF-RKS iter  14:  -437.45134685644240    3.41061e-13   3.74012e-11 DIIS
  Energy and wave function converged.


  ==> Post-Iterations <==

    Orbital Energies [Eh]
    ---------------------

    Doubly Occupied:                                                      

       1Ap   -89.201474     2Ap   -10.414077     3Ap    -8.117180  
       4Ap    -6.027383     5Ap    -6.025166     1App   -6.018096  
       6Ap    -0.923023     7Ap    -0.714790     2App   -0.571410  
       8Ap    -0.496053     9Ap    -0.416979     3App   -0.326085  

    Virtual:                                                              

      10Ap    -0.008407    11Ap     0.108095     4App    0.152144  
      12Ap     0.186320    13Ap     0.287271    14Ap     0.346044  
       5App    0.353979    15Ap     0.355489     6App    0.403980  
      16Ap     0.407010    17Ap     0.429095     7App    0.431272  
      18Ap     0.473306    19Ap     0.511172     8App    0.512891  
      20Ap     0.527362    21Ap     0.659621     9App    0.665143  
      10App    0.727211    22Ap     0.895460    23Ap     0.957642  
      24Ap     0.973098    11App    0.974262    25Ap     1.125381  
      26Ap     1.133772    12App    1.150287    13App    1.224083  
      14App    1.360474    27Ap     1.370218    28Ap     1.521922  
      15App    1.541988    29Ap     1.550481    30Ap     1.564219  
      16App    1.663565    31Ap     1.697982    32Ap     1.749542  
      17App    1.755416    33Ap     1.825807    18App    1.900397  
      34Ap     1.957475    35Ap     1.968934    19App    1.984362  
      36Ap     2.033297    20App    2.228329    37Ap     2.268984  
      38Ap     2.286766    39Ap     2.494049    21App    2.519203  
      22App    2.699128    23App    2.741647    40Ap     2.780443  
      41Ap     2.832954    42Ap     2.999611    24App    3.041641  
      25App    3.070928    43Ap     3.143634    26App    3.200569  
      44Ap     3.241282    45Ap     3.388674    27App    3.435425  
      46Ap     3.443337    28App    3.458461    47Ap     3.521194  
      29App    3.792700    48Ap     3.834442    49Ap     3.903869  
      30App    3.987358    50Ap     4.056906    51Ap     4.062450  
      31App    4.201133    52Ap     4.427240    53Ap     4.744215  
      32App    4.829903    33App    4.894263    54Ap     4.900815  
      55Ap     5.097831    34App    5.255431    56Ap     5.293623  
      35App    5.720634    36App    6.809446    57Ap     6.814564  
      58Ap     6.915642    37App    7.065022    59Ap     7.506530  
      60Ap    11.593454  

    Final Occupation by Irrep:
             Ap   App 
    DOCC [     9,    3 ]

  @DF-RKS Final Energy:  -437.45134685644240

   => Energetics <=

    Nuclear Repulsion Energy =             45.0975407806621860
    One-Electron Energy =                -691.5933429878307379
    Two-Electron Energy =                 232.9573080037143313
    DFT Exchange-Correlation Energy =     -24.0120895500274472
    Empirical Dispersion Energy =           0.0000000000000000
    VV10 Nonlocal Energy =                  0.0992368970393143
    Total Energy =                       -437.4513468564423988

Computation Completed


Properties will be evaluated at   0.000000,   0.000000,   0.000000 [a0]

Properties computed using the SCF density matrix

  Nuclear Dipole Moment: [e a0]
     X:     0.0000      Y:    -0.0030      Z:     3.1032

  Electronic Dipole Moment: [e a0]
     X:     0.0000      Y:     0.0020      Z:    -2.4426

  Dipole Moment: [e a0]
     X:     0.0000      Y:    -0.0010      Z:     0.6606     Total:     0.6606

  Dipole Moment: [D]
     X:     0.0000      Y:    -0.0026      Z:     1.6791     Total:     1.6791


*** tstop() called on bp1-compute00090.data.bp.acrc.priv at Tue Apr 27 17:49:50 2021
Module time:
	user time   =     104.48 seconds =       1.74 minutes
	system time =       2.57 seconds =       0.04 minutes
	total time  =          5 seconds =       0.08 minutes
Total time:
	user time   =    6657.64 seconds =     110.96 minutes
	system time =     176.20 seconds =       2.94 minutes
	total time  =        288 seconds =       4.80 minutes

         ----------------------------------------------------------
                                   FINDIF
                     R. A. King and Jonathon Misiewicz
         ---------------------------------------------------------

  Computing second-derivative from energies using projected, 
  symmetry-adapted, cartesian coordinates.

  18 energies passed in, including the reference geometry.
    Using 3-point formula.
    Energy without displacement: -437.4513473695
    Check energies below for precision!
    0: -1        :      -437.4513467890
    0: 1         :      -437.4513467310
    1: -1        :      -437.4513453777
    1: 1         :      -437.4513453093
    2: -1        :      -437.4513438424
    2: 1         :      -437.4513438259
    0: 1, 1: 1   :      -437.4513448256
    0: -1, 1: -1 :      -437.4513449517
    0: 1, 2: 1   :      -437.4513431697
    0: -1, 2: -1 :      -437.4513432431
    1: 1, 2: 1   :      -437.4513448703
    1: -1, 2: -1 :      -437.4513449725
    3: -1        :      -437.4513468907
    4: -1        :      -437.4513426078
    3: 1, 4: 1   :      -437.4513421607
    3: -1, 4: -1 :      -437.4513421606
    5: -1        :      -437.4513468564

-------------------------------------------------------------


  ==> Harmonic Vibrational Analysis <==

  non-mass-weighted Hessian:       Symmetric? True   Hermitian? True   Lin Dep Dim?  6 (0)
  projection of translations (True) and rotations (True) removed 6 degrees of freedom (6)
  total projector:                 Symmetric? True   Hermitian? True   Lin Dep Dim?  6 (6)
  mass-weighted Hessian:           Symmetric? True   Hermitian? True   Lin Dep Dim?  6 (0)
  pre-proj  low-frequency mode:    0.0000i [cm^-1]
  pre-proj  low-frequency mode:    0.0000i [cm^-1]
  pre-proj  low-frequency mode:    0.0000i [cm^-1]
  pre-proj  low-frequency mode:    0.0000i [cm^-1]
  pre-proj  low-frequency mode:    0.0000  [cm^-1]
  pre-proj  low-frequency mode:    0.0000  [cm^-1]
  pre-proj  all modes:['0.0000i' '0.0000i' '0.0000i' '0.0000i' '0.0000' '0.0000' '1006.0557'
 '1041.4756' '1126.9212' '1496.1999' '3088.1259' '3172.7440']
  projected mass-weighted Hessian: Symmetric? True   Hermitian? True   Lin Dep Dim?  6 (6)
  post-proj low-frequency mode:    0.0000i [cm^-1] (TR)
  post-proj low-frequency mode:    0.0000i [cm^-1] (TR)
  post-proj low-frequency mode:    0.0000i [cm^-1] (TR)
  post-proj low-frequency mode:    0.0000  [cm^-1] (TR)
  post-proj low-frequency mode:    0.0000  [cm^-1] (TR)
  post-proj low-frequency mode:    0.0001  [cm^-1] (TR)
  post-proj  all modes:['0.0000i' '0.0000i' '0.0000i' '0.0000' '0.0000' '0.0001' '1006.0557'
 '1041.4756' '1126.9212' '1496.1999' '3088.1259' '3172.7440']

  Vibration                       7                   8                   9           
  Freq [cm^-1]                1006.0557           1041.4756           1126.9212       
  Irrep                           B1                  B2                  A1          
  Reduced mass [u]              1.2077              1.2955              4.2621        
  Force const [mDyne/A]         0.7202              0.8279              3.1891        
  Turning point v=0 [a0]        0.3148              0.2987              0.1583        
  RMS dev v=0 [a0 u^1/2]        0.2446              0.2404              0.2311        
  Char temp [K]               1447.4901           1498.4515           1621.3886       
  ----------------------------------------------------------------------------------
      1   S               -0.03  0.00 -0.00   -0.00  0.02 -0.00    0.00  0.00 -0.20   
      2   C                0.13  0.00  0.00    0.00 -0.16  0.00   -0.00  0.00  0.43   
      3   H               -0.28 -0.00  0.64   -0.00  0.70  0.00   -0.09 -0.00  0.62   
      4   H               -0.28 -0.00 -0.64    0.00  0.70  0.00    0.09 -0.00  0.62   

  Vibration                       10                  11                  12          
  Freq [cm^-1]                1496.1999           3088.1259           3172.7440       
  Irrep                           A1                  A1                  B1          
  Reduced mass [u]              1.2110              1.0507              1.1192        
  Force const [mDyne/A]         1.5972              5.9039              6.6377        
  Turning point v=0 [a0]        0.2578              0.1926              0.1841        
  RMS dev v=0 [a0 u^1/2]        0.2006              0.1396              0.1377        
  Char temp [K]               2152.6985           4443.1256           4564.8722       
  ----------------------------------------------------------------------------------
      1   S                0.00  0.00  0.01    0.00  0.00  0.00    0.00  0.00 -0.00   
      2   C               -0.00  0.00 -0.13   -0.00 -0.00 -0.06   -0.10  0.00  0.00   
      3   H               -0.41 -0.00  0.57    0.61  0.00  0.35    0.60  0.00  0.37   
      4   H                0.41 -0.00  0.57   -0.61  0.00  0.35    0.60  0.00 -0.37   

  ==> Thermochemistry Components <==

  Entropy, S
    Electronic S            0.000 [cal/(mol K)]        0.000 [J/(mol K)]       0.00000000 [mEh/K] (multiplicity = 1)
    Translational S        37.403 [cal/(mol K)]      156.492 [J/(mol K)]       0.05960470 [mEh/K] (mol. weight = 45.9877 [u], P = 101325.00 [Pa])
    Rotational S           17.439 [cal/(mol K)]       72.966 [J/(mol K)]       0.02779119 [mEh/K] (symmetry no. = 2)
    Vibrational S           0.238 [cal/(mol K)]        0.997 [J/(mol K)]       0.00037962 [mEh/K]
  Total S                  55.080 [cal/(mol K)]      230.455 [J/(mol K)]       0.08777551 [mEh/K]
  Correction S              0.000 [cal/(mol K)]        0.000 [J/(mol K)]       0.00000000 [mEh/K]

  Constant volume heat capacity, Cv
    Electronic Cv           0.000 [cal/(mol K)]        0.000 [J/(mol K)]       0.00000000 [mEh/K]
    Translational Cv        2.981 [cal/(mol K)]       12.472 [J/(mol K)]       0.00475022 [mEh/K]
    Rotational Cv           2.981 [cal/(mol K)]       12.472 [J/(mol K)]       0.00475022 [mEh/K]
    Vibrational Cv          1.038 [cal/(mol K)]        4.345 [J/(mol K)]       0.00165492 [mEh/K]
  Total Cv                  7.000 [cal/(mol K)]       29.288 [J/(mol K)]       0.01115535 [mEh/K]
  Correction Cv             0.000 [cal/(mol K)]        0.000 [J/(mol K)]       0.00000000 [mEh/K]

  Constant pressure heat capacity, Cp
    Electronic Cp           0.000 [cal/(mol K)]        0.000 [J/(mol K)]       0.00000000 [mEh/K]
    Translational Cp        4.968 [cal/(mol K)]       20.786 [J/(mol K)]       0.00791703 [mEh/K]
    Rotational Cp           2.981 [cal/(mol K)]       12.472 [J/(mol K)]       0.00475022 [mEh/K]
    Vibrational Cp          1.038 [cal/(mol K)]        4.345 [J/(mol K)]       0.00165492 [mEh/K]
  Total Cp                  8.987 [cal/(mol K)]       37.603 [J/(mol K)]       0.01432216 [mEh/K]
  Correction Cp             0.000 [cal/(mol K)]        0.000 [J/(mol K)]       0.00000000 [mEh/K]

  ==> Thermochemistry Energy Analysis <==

  Raw electronic energy, E0
  Total E0, Electronic energy at well bottom at 0 [K]                 -437.45134737 [Eh]

  Zero-point energy, ZPE_vib = Sum_i nu_i / 2
    Electronic ZPE          0.000 [kcal/mol]        0.000 [kJ/mol]       0.00000000 [Eh]
    Translational ZPE       0.000 [kcal/mol]        0.000 [kJ/mol]       0.00000000 [Eh]
    Rotational ZPE          0.000 [kcal/mol]        0.000 [kJ/mol]       0.00000000 [Eh]
    Vibrational ZPE        15.627 [kcal/mol]       65.385 [kJ/mol]       0.02490384 [Eh]        5465.761 [cm^-1]
  Correction ZPE           15.627 [kcal/mol]       65.385 [kJ/mol]       0.02490384 [Eh]        5465.761 [cm^-1]
  Total ZPE, Electronic energy at 0 [K]                               -437.42644353 [Eh]

  Thermal Energy, E (includes ZPE)
    Electronic E            0.000 [kcal/mol]        0.000 [kJ/mol]       0.00000000 [Eh]
    Translational E         0.889 [kcal/mol]        3.718 [kJ/mol]       0.00141628 [Eh]
    Rotational E            0.889 [kcal/mol]        3.718 [kJ/mol]       0.00141628 [Eh]
    Vibrational E          15.687 [kcal/mol]       65.634 [kJ/mol]       0.02499861 [Eh]
  Correction E             17.464 [kcal/mol]       73.071 [kJ/mol]       0.02783117 [Eh]
  Total E, Electronic energy at  298.15 [K]                           -437.42351620 [Eh]

  Enthalpy, H_trans = E_trans + k_B * T
    Electronic H            0.000 [kcal/mol]        0.000 [kJ/mol]       0.00000000 [Eh]
    Translational H         1.481 [kcal/mol]        6.197 [kJ/mol]       0.00236046 [Eh]
    Rotational H            0.889 [kcal/mol]        3.718 [kJ/mol]       0.00141628 [Eh]
    Vibrational H          15.687 [kcal/mol]       65.634 [kJ/mol]       0.02499861 [Eh]
  Correction H             18.057 [kcal/mol]       75.550 [kJ/mol]       0.02877535 [Eh]
  Total H, Enthalpy at  298.15 [K]                                    -437.42257202 [Eh]

  Gibbs free energy, G = H - T * S
    Electronic G            0.000 [kcal/mol]        0.000 [kJ/mol]       0.00000000 [Eh]
    Translational G        -9.670 [kcal/mol]      -40.461 [kJ/mol]      -0.01541068 [Eh]
    Rotational G           -4.311 [kcal/mol]      -18.036 [kJ/mol]      -0.00686967 [Eh]
    Vibrational G          15.616 [kcal/mol]       65.337 [kJ/mol]       0.02488543 [Eh]
  Correction G              1.635 [kcal/mol]        6.840 [kJ/mol]       0.00260508 [Eh]
  Total G, Free enthalpy at  298.15 [K]                               -437.44874229 [Eh]

    Psi4 stopped on: Tuesday, 27 April 2021 05:49PM
    Psi4 wall time for execution: 0:04:48.16

*** Psi4 exiting successfully. Buy a developer a beer!
