
    -----------------------------------------------------------------------
          Psi4: An Open-Source Ab Initio Electronic Structure Package
                               Psi4 1.3.2 release

                         Git: Rev {HEAD} ecbda83 


    R. M. Parrish, L. A. Burns, D. G. A. Smith, A. C. Simmonett,
    A. E. DePrince III, E. G. Hohenstein, U. Bozkaya, A. Yu. Sokolov,
    R. Di Remigio, R. M. Richard, J. F. Gonthier, A. M. James,
    H. R. McAlexander, A. Kumar, M. Saitow, X. Wang, B. P. Pritchard,
    P. Verma, H. F. Schaefer III, K. Patkowski, R. A. King, E. F. Valeev,
    F. A. Evangelista, J. M. Turney, T. D. Crawford, and C. D. Sherrill,
    J. Chem. Theory Comput. 13(7) pp 3185--3197 (2017).
    (doi: 10.1021/acs.jctc.7b00174)


                         Additional Contributions by
    P. Kraus, H. Kruse, M. H. Lechner, M. C. Schieber, R. A. Shaw,
    A. Alenaizan, R. Galvelis, Z. L. Glick, S. Lehtola, and J. P. Misiewicz

    -----------------------------------------------------------------------


    Psi4 started on: Tuesday, 27 April 2021 05:45PM

    Process ID: 141943
    Host:       bp1-compute00113.data.bp.acrc.priv
    PSIDATADIR: /work/zw18965/.conda/envs/p4env/share/psi4
    Memory:     500.0 MiB
    Threads:    24
    
  ==> Input File <==

--------------------------------------------------------------------------
memory 144 GB

molecule {
0 1
O 0.0000000000 0.0000000000 0.0000000000
H 0.0000000000 0.0000000000 0.9579000000
H 0.9289588892 0.0000000000 -0.2336831018
}

set dynamic_level 1
set basis cc-pV(T+d)Z
 
optimize("wB97M-V")
frequencies("wB97M-V")
--------------------------------------------------------------------------

  Memory set to 134.110 GiB by Python driver.
gradient() will perform gradient computation by finite difference of analytic energies.

         ----------------------------------------------------------
                                   FINDIF
                     R. A. King and Jonathon Misiewicz
         ---------------------------------------------------------

  Using finite-differences of energies to determine gradients.
    Generating geometries for use with 3-point formula.
    Displacement size will be 5.00e-03.
    Number of atoms is 3.
    Number of symmetric SALCs is 2.
    Translations projected? 1. Rotations projected? 1.
    Number of geometries (including reference) is 5.

  //>>>>>>>>>>>>>>>>>>>>>>>>>>>>>>>>>>>//
  //    Loading displacement 1 of 5    //
  //<<<<<<<<<<<<<<<<<<<<<<<<<<<<<<<<<<<//

*** tstart() called on bp1-compute00113.data.bp.acrc.priv
*** at Tue Apr 27 17:45:03 2021

   => Loading Basis Set <=

    Name: CC-PV(T+D)Z
    Role: ORBITAL
    Keyword: BASIS
    atoms 1   entry O          line   271 file /work/zw18965/.conda/envs/p4env/share/psi4/basis/cc-pv_tpd_z.gbs 
    atoms 2-3 entry H          line    32 file /work/zw18965/.conda/envs/p4env/share/psi4/basis/cc-pv_tpd_z.gbs 


         ---------------------------------------------------------
                                   SCF
               by Justin Turney, Rob Parrish, Andy Simmonett
                          and Daniel G. A. Smith
                              RKS Reference
                       24 Threads, 137329 MiB Core
         ---------------------------------------------------------

  ==> Geometry <==

    Molecular point group: c2v
    Full point group: C2v

    Geometry (in Angstrom), charge = 0, multiplicity = 1:

       Center              X                  Y                   Z               Mass       
    ------------   -----------------  -----------------  -----------------  -----------------
         O            0.000000000000     0.000000000000    -0.065912414824    15.994914619570
         H           -0.000000000000     0.755452663361     0.523038927279     1.007825032230
         H            0.000000000000    -0.755452663361     0.523038927279     1.007825032230

  Running in c2v symmetry.

  Rotational constants: A =     27.14988  B =     14.65436  C =      9.51731 [cm^-1]
  Rotational constants: A = 813932.95770  B = 439326.65046  C = 285321.92187 [MHz]
  Nuclear repulsion =    9.189193889971767

  Charge       = 0
  Multiplicity = 1
  Electrons    = 10
  Nalpha       = 5
  Nbeta        = 5

  ==> Algorithm <==

  SCF Algorithm Type is DF.
  DIIS enabled.
  MOM disabled.
  Fractional occupation disabled.
  Guess Type is SAD.
  Energy threshold   = 1.00e-08
  Density threshold  = 1.00e-08
  Integral threshold = 0.00e+00

  ==> Primary Basis <==

  Basis Set: CC-PV(T+D)Z
    Blend: CC-PV(T+D)Z
    Number of shells: 22
    Number of basis function: 58
    Number of Cartesian functions: 65
    Spherical Harmonics?: true
    Max angular momentum: 3

  ==> DFT Potential <==

   => Composite Functional: WB97M-V <= 

    wB97M-V Hyb-GGA Exchange-Correlation Functional

    N. Mardirossian and M. Head-Gordon, J. Chem. Phys. 144, 214110 (2016)

    Deriv               =              1
    GGA                 =           TRUE
    Meta                =           TRUE

    Exchange Hybrid     =           TRUE
    MP2 Hybrid          =          FALSE

   => Exchange-Correlation Functionals <=

    1.0000   wB97M-V exchange-correlation functional

   => Exact (HF) Exchange <=

    0.8500            HF,LR [omega = 0.3000]
    0.1500               HF 

   => VV10 Non-Local Parameters <=

    VV10 B              =     6.0000E+00
    VV10 C              =     1.0000E-02

   => Molecular Quadrature <=

    Radial Scheme          =       TREUTLER
    Pruning Scheme         =           FLAT
    Nuclear Scheme         =       TREUTLER

    BS radius alpha        =              1
    Pruning alpha          =              1
    Radial Points          =             75
    Spherical Points       =            302
    Total Points           =          66783
    Total Blocks           =            573
    Max Points             =            255
    Max Functions          =             58

   => Loading Basis Set <=

    Name: (CC-PV(T+D)Z AUX)
    Role: JKFIT
    Keyword: DF_BASIS_SCF
    atoms 1   entry O          line   229 file /work/zw18965/.conda/envs/p4env/share/psi4/basis/cc-pvtz-jkfit.gbs 
    atoms 2-3 entry H          line    51 file /work/zw18965/.conda/envs/p4env/share/psi4/basis/cc-pvtz-jkfit.gbs 

  ==> Pre-Iterations <==

   -------------------------------------------------------
    Irrep   Nso     Nmo     Nalpha   Nbeta   Ndocc  Nsocc
   -------------------------------------------------------
     A1        23      23       0       0       0       0
     A2         7       7       0       0       0       0
     B1        11      11       0       0       0       0
     B2        17      17       0       0       0       0
   -------------------------------------------------------
    Total      58      58       5       5       5       0
   -------------------------------------------------------

  ==> Integral Setup <==

  ==> DiskDFJK: Density-Fitted J/K Matrices <==

    J tasked:                  Yes
    K tasked:                  Yes
    wK tasked:                 Yes
    Omega:               3.000E-01
    OpenMP threads:             24
    Integrals threads:          24
    Memory [MiB]:           102727
    Algorithm:                Core
    Integral Cache:           NONE
    Schwarz Cutoff:          1E-12
    Fitting Condition:       1E-10

   => Auxiliary Basis Set <=

  Basis Set: (CC-PV(T+D)Z AUX)
    Blend: CC-PVTZ-JKFIT
    Number of shells: 45
    Number of basis function: 139
    Number of Cartesian functions: 166
    Spherical Harmonics?: true
    Max angular momentum: 4

  Cached 100.0% of DFT collocation blocks in 0.263 [GiB].

  Minimum eigenvalue in the overlap matrix is 2.5046649193E-03.
  Using Symmetric Orthogonalization.

  SCF Guess: Superposition of Atomic Densities via on-the-fly atomic UHF.

  ==> Iterations <==

                           Total Energy        Delta E     RMS |[F,P]|

   @DF-RKS iter SAD:   -75.97363652258096   -7.59736e+01   0.00000e+00 
   @DF-RKS iter   1:   -76.30117530309407   -3.27539e-01   1.89676e-02 DIIS
   @DF-RKS iter   2:   -76.30154043727619   -3.65134e-04   1.99729e-02 DIIS
   @DF-RKS iter   3:   -76.42587453144300   -1.24334e-01   4.89495e-04 DIIS
   @DF-RKS iter   4:   -76.42602317279160   -1.48641e-04   1.53032e-04 DIIS
   @DF-RKS iter   5:   -76.42603508076587   -1.19080e-05   2.24767e-05 DIIS
   @DF-RKS iter   6:   -76.42603554053997   -4.59774e-07   4.19069e-06 DIIS
   @DF-RKS iter   7:   -76.42603556696069   -2.64207e-08   9.95376e-07 DIIS
   @DF-RKS iter   8:   -76.42603556837352   -1.41283e-09   1.16465e-07 DIIS
   @DF-RKS iter   9:   -76.42603556839899   -2.54659e-11   1.36107e-08 DIIS
   @DF-RKS iter  10:   -76.42603556839917   -1.84741e-13   1.16972e-09 DIIS
  Energy and wave function converged.


  ==> Post-Iterations <==

    Orbital Energies [Eh]
    ---------------------

    Doubly Occupied:                                                      

       1A1   -19.321401     2A1    -1.132260     1B2    -0.629848  
       3A1    -0.491098     1B1    -0.414612  

    Virtual:                                                              

       4A1     0.097383     2B2     0.161019     3B2     0.457435  
       5A1     0.506300     6A1     0.588022     2B1     0.688234  
       4B2     0.707683     7A1     0.715040     1A2     0.775469  
       3B1     0.865994     8A1     1.012984     5B2     1.099989  
       6B2     1.381769     9A1     1.414264     4B1     1.871960  
       7B2     1.892058     2A2     1.893877    10A1     1.991332  
      11A1     2.056864    12A1     2.348386     8B2     2.712814  
       5B1     3.144296    13A1     3.281403     3A2     3.363891  
       9B2     3.447442     6B1     3.502109    10B2     3.617887  
      14A1     3.670967     4A2     3.737359     7B1     3.784150  
      11B2     3.817584    15A1     3.903902     5A2     4.080633  
      16A1     4.122923    12B2     4.341253     8B1     4.391595  
      13B2     4.591250    17A1     4.848278    18A1     4.931859  
      14B2     5.198782     9B1     5.718707    19A1     6.220210  
      10B1     6.532718     6A2     6.541589    20A1     6.628386  
      11B1     6.642611    15B2     6.690782    21A1     6.781712  
       7A2     6.882762    22A1     7.063422    16B2     7.401209  
      17B2     7.871691    23A1    12.335724  

    Final Occupation by Irrep:
             A1    A2    B1    B2 
    DOCC [     3,    0,    1,    1 ]

  @DF-RKS Final Energy:   -76.42603556839917

   => Energetics <=

    Nuclear Repulsion Energy =              9.1891938899717669
    One-Electron Energy =                -123.1018895047019441
    Two-Electron Energy =                  44.1117950008501296
    DFT Exchange-Correlation Energy =      -6.6677367747553529
    Empirical Dispersion Energy =           0.0000000000000000
    VV10 Nonlocal Energy =                  0.0426018202362363
    Total Energy =                        -76.4260355683991719

Computation Completed


Properties will be evaluated at   0.000000,   0.000000,   0.000000 [a0]

Properties computed using the SCF density matrix

  Nuclear Dipole Moment: [e a0]
     X:     0.0000      Y:     0.0000      Z:     0.9803

  Electronic Dipole Moment: [e a0]
     X:     0.0000      Y:     0.0000      Z:    -0.2269

  Dipole Moment: [e a0]
     X:     0.0000      Y:     0.0000      Z:     0.7534     Total:     0.7534

  Dipole Moment: [D]
     X:     0.0000      Y:     0.0000      Z:     1.9150     Total:     1.9150


*** tstop() called on bp1-compute00113.data.bp.acrc.priv at Tue Apr 27 17:45:06 2021
Module time:
	user time   =      63.70 seconds =       1.06 minutes
	system time =       2.90 seconds =       0.05 minutes
	total time  =          3 seconds =       0.05 minutes
Total time:
	user time   =      63.70 seconds =       1.06 minutes
	system time =       2.90 seconds =       0.05 minutes
	total time  =          3 seconds =       0.05 minutes

  //>>>>>>>>>>>>>>>>>>>>>>>>>>>>>>>>>>>//
  //    Loading displacement 2 of 5    //
  //<<<<<<<<<<<<<<<<<<<<<<<<<<<<<<<<<<<//

*** tstart() called on bp1-compute00113.data.bp.acrc.priv
*** at Tue Apr 27 17:45:06 2021

   => Loading Basis Set <=

    Name: CC-PV(T+D)Z
    Role: ORBITAL
    Keyword: BASIS
    atoms 1   entry O          line   271 file /work/zw18965/.conda/envs/p4env/share/psi4/basis/cc-pv_tpd_z.gbs 
    atoms 2-3 entry H          line    32 file /work/zw18965/.conda/envs/p4env/share/psi4/basis/cc-pv_tpd_z.gbs 


         ---------------------------------------------------------
                                   SCF
               by Justin Turney, Rob Parrish, Andy Simmonett
                          and Daniel G. A. Smith
                              RKS Reference
                       24 Threads, 137329 MiB Core
         ---------------------------------------------------------

  ==> Geometry <==

    Molecular point group: c2v
    Full point group: C2v

    Geometry (in Angstrom), charge = 0, multiplicity = 1:

       Center              X                  Y                   Z               Mass       
    ------------   -----------------  -----------------  -----------------  -----------------
         O            0.000000000000     0.000000000000    -0.066133736565    15.994914619570
         H           -0.000000000000     0.755452663361     0.524795195598     1.007825032230
         H            0.000000000000    -0.755452663361     0.524795195598     1.007825032230

  Running in c2v symmetry.

  Rotational constants: A =     26.96847  B =     14.65436  C =      9.49492 [cm^-1]
  Rotational constants: A = 808494.29234  B = 439326.65046  C = 284650.68760 [MHz]
  Nuclear repulsion =    9.177976870071999

  Charge       = 0
  Multiplicity = 1
  Electrons    = 10
  Nalpha       = 5
  Nbeta        = 5

  ==> Algorithm <==

  SCF Algorithm Type is DF.
  DIIS enabled.
  MOM disabled.
  Fractional occupation disabled.
  Guess Type is SAD.
  Energy threshold   = 1.00e-08
  Density threshold  = 1.00e-08
  Integral threshold = 0.00e+00

  ==> Primary Basis <==

  Basis Set: CC-PV(T+D)Z
    Blend: CC-PV(T+D)Z
    Number of shells: 22
    Number of basis function: 58
    Number of Cartesian functions: 65
    Spherical Harmonics?: true
    Max angular momentum: 3

  ==> DFT Potential <==

   => Composite Functional: WB97M-V <= 

    wB97M-V Hyb-GGA Exchange-Correlation Functional

    N. Mardirossian and M. Head-Gordon, J. Chem. Phys. 144, 214110 (2016)

    Deriv               =              1
    GGA                 =           TRUE
    Meta                =           TRUE

    Exchange Hybrid     =           TRUE
    MP2 Hybrid          =          FALSE

   => Exchange-Correlation Functionals <=

    1.0000   wB97M-V exchange-correlation functional

   => Exact (HF) Exchange <=

    0.8500            HF,LR [omega = 0.3000]
    0.1500               HF 

   => VV10 Non-Local Parameters <=

    VV10 B              =     6.0000E+00
    VV10 C              =     1.0000E-02

   => Molecular Quadrature <=

    Radial Scheme          =       TREUTLER
    Pruning Scheme         =           FLAT
    Nuclear Scheme         =       TREUTLER

    BS radius alpha        =              1
    Pruning alpha          =              1
    Radial Points          =             75
    Spherical Points       =            302
    Total Points           =          66787
    Total Blocks           =            575
    Max Points             =            255
    Max Functions          =             58

   => Loading Basis Set <=

    Name: (CC-PV(T+D)Z AUX)
    Role: JKFIT
    Keyword: DF_BASIS_SCF
    atoms 1   entry O          line   229 file /work/zw18965/.conda/envs/p4env/share/psi4/basis/cc-pvtz-jkfit.gbs 
    atoms 2-3 entry H          line    51 file /work/zw18965/.conda/envs/p4env/share/psi4/basis/cc-pvtz-jkfit.gbs 

  ==> Pre-Iterations <==

   -------------------------------------------------------
    Irrep   Nso     Nmo     Nalpha   Nbeta   Ndocc  Nsocc
   -------------------------------------------------------
     A1        23      23       0       0       0       0
     A2         7       7       0       0       0       0
     B1        11      11       0       0       0       0
     B2        17      17       0       0       0       0
   -------------------------------------------------------
    Total      58      58       5       5       5       0
   -------------------------------------------------------

  ==> Integral Setup <==

  ==> DiskDFJK: Density-Fitted J/K Matrices <==

    J tasked:                  Yes
    K tasked:                  Yes
    wK tasked:                 Yes
    Omega:               3.000E-01
    OpenMP threads:             24
    Integrals threads:          24
    Memory [MiB]:           102727
    Algorithm:                Core
    Integral Cache:           NONE
    Schwarz Cutoff:          1E-12
    Fitting Condition:       1E-10

   => Auxiliary Basis Set <=

  Basis Set: (CC-PV(T+D)Z AUX)
    Blend: CC-PVTZ-JKFIT
    Number of shells: 45
    Number of basis function: 139
    Number of Cartesian functions: 166
    Spherical Harmonics?: true
    Max angular momentum: 4

  Cached 100.0% of DFT collocation blocks in 0.263 [GiB].

  Minimum eigenvalue in the overlap matrix is 2.5169213743E-03.
  Using Symmetric Orthogonalization.

  SCF Guess: Superposition of Atomic Densities via on-the-fly atomic UHF.

  ==> Iterations <==

                           Total Energy        Delta E     RMS |[F,P]|

   @DF-RKS iter SAD:   -75.97273271508850   -7.59727e+01   0.00000e+00 
   @DF-RKS iter   1:   -76.30117204011265   -3.28439e-01   1.89576e-02 DIIS
   @DF-RKS iter   2:   -76.30124224417082   -7.02041e-05   1.99897e-02 DIIS
   @DF-RKS iter   3:   -76.42587897455940   -1.24637e-01   4.90641e-04 DIIS
   @DF-RKS iter   4:   -76.42602792570386   -1.48951e-04   1.53487e-04 DIIS
   @DF-RKS iter   5:   -76.42603990270544   -1.19770e-05   2.25370e-05 DIIS
   @DF-RKS iter   6:   -76.42604036322649   -4.60521e-07   4.18447e-06 DIIS
   @DF-RKS iter   7:   -76.42604038950191   -2.62754e-08   9.94633e-07 DIIS
   @DF-RKS iter   8:   -76.42604039091046   -1.40855e-09   1.16975e-07 DIIS
   @DF-RKS iter   9:   -76.42604039093628   -2.58211e-11   1.37108e-08 DIIS
   @DF-RKS iter  10:   -76.42604039093644   -1.56319e-13   1.18287e-09 DIIS
  Energy and wave function converged.


  ==> Post-Iterations <==

    Orbital Energies [Eh]
    ---------------------

    Doubly Occupied:                                                      

       1A1   -19.321681     2A1    -1.131861     1B2    -0.629021  
       3A1    -0.491336     1B1    -0.414563  

    Virtual:                                                              

       4A1     0.097195     2B2     0.160913     3B2     0.456567  
       5A1     0.506076     6A1     0.588155     2B1     0.688163  
       4B2     0.707777     7A1     0.713977     1A2     0.775585  
       3B1     0.865130     8A1     1.013991     5B2     1.099784  
       6B2     1.380376     9A1     1.412837     4B1     1.872256  
       2A2     1.893013     7B2     1.893521    10A1     1.991304  
      11A1     2.057018    12A1     2.346758     8B2     2.712264  
       5B1     3.142659    13A1     3.279864     3A2     3.364523  
       9B2     3.446861     6B1     3.500782    10B2     3.616549  
      14A1     3.670976     4A2     3.736911     7B1     3.783762  
      11B2     3.816238    15A1     3.902381     5A2     4.078088  
      16A1     4.119669    12B2     4.340531     8B1     4.390114  
      13B2     4.589645    17A1     4.845330    18A1     4.930570  
      14B2     5.197414     9B1     5.717073    19A1     6.217722  
      10B1     6.529282     6A2     6.539365    20A1     6.625555  
      11B1     6.641299    15B2     6.683027    21A1     6.782823  
       7A2     6.880440    22A1     7.061545    16B2     7.398587  
      17B2     7.867734    23A1    12.314943  

    Final Occupation by Irrep:
             A1    A2    B1    B2 
    DOCC [     3,    0,    1,    1 ]

  @DF-RKS Final Energy:   -76.42604039093644

   => Energetics <=

    Nuclear Repulsion Energy =              9.1779768700719995
    One-Electron Energy =                -123.0815311832559473
    Two-Electron Energy =                  44.1017148809433905
    DFT Exchange-Correlation Energy =      -6.6668015957516236
    Empirical Dispersion Energy =           0.0000000000000000
    VV10 Nonlocal Energy =                  0.0426006370557422
    Total Energy =                        -76.4260403909364356

Computation Completed


Properties will be evaluated at   0.000000,   0.000000,   0.000000 [a0]

Properties computed using the SCF density matrix

  Nuclear Dipole Moment: [e a0]
     X:     0.0000      Y:     0.0000      Z:     0.9836

  Electronic Dipole Moment: [e a0]
     X:     0.0000      Y:     0.0000      Z:    -0.2290

  Dipole Moment: [e a0]
     X:     0.0000      Y:     0.0000      Z:     0.7547     Total:     0.7547

  Dipole Moment: [D]
     X:     0.0000      Y:     0.0000      Z:     1.9182     Total:     1.9182


*** tstop() called on bp1-compute00113.data.bp.acrc.priv at Tue Apr 27 17:45:09 2021
Module time:
	user time   =      66.49 seconds =       1.11 minutes
	system time =       2.39 seconds =       0.04 minutes
	total time  =          3 seconds =       0.05 minutes
Total time:
	user time   =     130.33 seconds =       2.17 minutes
	system time =       5.30 seconds =       0.09 minutes
	total time  =          6 seconds =       0.10 minutes

  //>>>>>>>>>>>>>>>>>>>>>>>>>>>>>>>>>>>//
  //    Loading displacement 3 of 5    //
  //<<<<<<<<<<<<<<<<<<<<<<<<<<<<<<<<<<<//

*** tstart() called on bp1-compute00113.data.bp.acrc.priv
*** at Tue Apr 27 17:45:09 2021

   => Loading Basis Set <=

    Name: CC-PV(T+D)Z
    Role: ORBITAL
    Keyword: BASIS
    atoms 1   entry O          line   271 file /work/zw18965/.conda/envs/p4env/share/psi4/basis/cc-pv_tpd_z.gbs 
    atoms 2-3 entry H          line    32 file /work/zw18965/.conda/envs/p4env/share/psi4/basis/cc-pv_tpd_z.gbs 


         ---------------------------------------------------------
                                   SCF
               by Justin Turney, Rob Parrish, Andy Simmonett
                          and Daniel G. A. Smith
                              RKS Reference
                       24 Threads, 137329 MiB Core
         ---------------------------------------------------------

  ==> Geometry <==

    Molecular point group: c2v
    Full point group: C2v

    Geometry (in Angstrom), charge = 0, multiplicity = 1:

       Center              X                  Y                   Z               Mass       
    ------------   -----------------  -----------------  -----------------  -----------------
         O            0.000000000000     0.000000000000    -0.065691093083    15.994914619570
         H           -0.000000000000     0.755452663361     0.521282658961     1.007825032230
         H            0.000000000000    -0.755452663361     0.521282658961     1.007825032230

  Running in c2v symmetry.

  Rotational constants: A =     27.33313  B =     14.65436  C =      9.53974 [cm^-1]
  Rotational constants: A = 819426.68630  B = 439326.65046  C = 285994.06324 [MHz]
  Nuclear repulsion =    9.200415960578663

  Charge       = 0
  Multiplicity = 1
  Electrons    = 10
  Nalpha       = 5
  Nbeta        = 5

  ==> Algorithm <==

  SCF Algorithm Type is DF.
  DIIS enabled.
  MOM disabled.
  Fractional occupation disabled.
  Guess Type is SAD.
  Energy threshold   = 1.00e-08
  Density threshold  = 1.00e-08
  Integral threshold = 0.00e+00

  ==> Primary Basis <==

  Basis Set: CC-PV(T+D)Z
    Blend: CC-PV(T+D)Z
    Number of shells: 22
    Number of basis function: 58
    Number of Cartesian functions: 65
    Spherical Harmonics?: true
    Max angular momentum: 3

  ==> DFT Potential <==

   => Composite Functional: WB97M-V <= 

    wB97M-V Hyb-GGA Exchange-Correlation Functional

    N. Mardirossian and M. Head-Gordon, J. Chem. Phys. 144, 214110 (2016)

    Deriv               =              1
    GGA                 =           TRUE
    Meta                =           TRUE

    Exchange Hybrid     =           TRUE
    MP2 Hybrid          =          FALSE

   => Exchange-Correlation Functionals <=

    1.0000   wB97M-V exchange-correlation functional

   => Exact (HF) Exchange <=

    0.8500            HF,LR [omega = 0.3000]
    0.1500               HF 

   => VV10 Non-Local Parameters <=

    VV10 B              =     6.0000E+00
    VV10 C              =     1.0000E-02

   => Molecular Quadrature <=

    Radial Scheme          =       TREUTLER
    Pruning Scheme         =           FLAT
    Nuclear Scheme         =       TREUTLER

    BS radius alpha        =              1
    Pruning alpha          =              1
    Radial Points          =             75
    Spherical Points       =            302
    Total Points           =          66783
    Total Blocks           =            573
    Max Points             =            256
    Max Functions          =             58

   => Loading Basis Set <=

    Name: (CC-PV(T+D)Z AUX)
    Role: JKFIT
    Keyword: DF_BASIS_SCF
    atoms 1   entry O          line   229 file /work/zw18965/.conda/envs/p4env/share/psi4/basis/cc-pvtz-jkfit.gbs 
    atoms 2-3 entry H          line    51 file /work/zw18965/.conda/envs/p4env/share/psi4/basis/cc-pvtz-jkfit.gbs 

  ==> Pre-Iterations <==

   -------------------------------------------------------
    Irrep   Nso     Nmo     Nalpha   Nbeta   Ndocc  Nsocc
   -------------------------------------------------------
     A1        23      23       0       0       0       0
     A2         7       7       0       0       0       0
     B1        11      11       0       0       0       0
     B2        17      17       0       0       0       0
   -------------------------------------------------------
    Total      58      58       5       5       5       0
   -------------------------------------------------------

  ==> Integral Setup <==

  ==> DiskDFJK: Density-Fitted J/K Matrices <==

    J tasked:                  Yes
    K tasked:                  Yes
    wK tasked:                 Yes
    Omega:               3.000E-01
    OpenMP threads:             24
    Integrals threads:          24
    Memory [MiB]:           102727
    Algorithm:                Core
    Integral Cache:           NONE
    Schwarz Cutoff:          1E-12
    Fitting Condition:       1E-10

   => Auxiliary Basis Set <=

  Basis Set: (CC-PV(T+D)Z AUX)
    Blend: CC-PVTZ-JKFIT
    Number of shells: 45
    Number of basis function: 139
    Number of Cartesian functions: 166
    Spherical Harmonics?: true
    Max angular momentum: 4

  Cached 100.0% of DFT collocation blocks in 0.263 [GiB].

  Minimum eigenvalue in the overlap matrix is 2.4925252270E-03.
  Using Symmetric Orthogonalization.

  SCF Guess: Superposition of Atomic Densities via on-the-fly atomic UHF.

  ==> Iterations <==

                           Total Energy        Delta E     RMS |[F,P]|

   @DF-RKS iter SAD:   -75.97453460019526   -7.59745e+01   0.00000e+00 
   @DF-RKS iter   1:   -76.30117043753003   -3.26636e-01   1.89777e-02 DIIS
   @DF-RKS iter   2:   -76.30182840317524   -6.57966e-04   1.99563e-02 DIIS
   @DF-RKS iter   3:   -76.42586359225393   -1.24035e-01   4.88353e-04 DIIS
   @DF-RKS iter   4:   -76.42601192630738   -1.48334e-04   1.52581e-04 DIIS
   @DF-RKS iter   5:   -76.42602376597631   -1.18397e-05   2.24172e-05 DIIS
   @DF-RKS iter   6:   -76.42602422502436   -4.59048e-07   4.19698e-06 DIIS
   @DF-RKS iter   7:   -76.42602425158998   -2.65656e-08   9.96063e-07 DIIS
   @DF-RKS iter   8:   -76.42602425300664   -1.41667e-09   1.15958e-07 DIIS
   @DF-RKS iter   9:   -76.42602425303188   -2.52385e-11   1.35122e-08 DIIS
   @DF-RKS iter  10:   -76.42602425303208   -1.98952e-13   1.15666e-09 DIIS
  Energy and wave function converged.


  ==> Post-Iterations <==

    Orbital Energies [Eh]
    ---------------------

    Doubly Occupied:                                                      

       1A1   -19.321121     2A1    -1.132658     1B2    -0.630675  
       3A1    -0.490859     1B1    -0.414662  

    Virtual:                                                              

       4A1     0.097569     2B2     0.161123     3B2     0.458304  
       5A1     0.506517     6A1     0.587892     2B1     0.688302  
       4B2     0.707591     7A1     0.716110     1A2     0.775352  
       3B1     0.866863     8A1     1.011983     5B2     1.100190  
       6B2     1.383167     9A1     1.415688     4B1     1.871655  
       7B2     1.890609     2A2     1.894740    10A1     1.991325  
      11A1     2.056716    12A1     2.350062     8B2     2.713350  
       5B1     3.145945    13A1     3.282945     3A2     3.363258  
       9B2     3.447992     6B1     3.503434    10B2     3.619264  
      14A1     3.670964     4A2     3.737790     7B1     3.784541  
      11B2     3.818921    15A1     3.905411     5A2     4.083201  
      16A1     4.126175    12B2     4.341883     8B1     4.393075  
      13B2     4.592974    17A1     4.851199    18A1     4.933198  
      14B2     5.200158     9B1     5.720319    19A1     6.222650  
      10B1     6.535939     6A2     6.543770    20A1     6.631149  
      11B1     6.644149    15B2     6.698551    21A1     6.780665  
       7A2     6.885099    22A1     7.065345    16B2     7.403847  
      17B2     7.875613    23A1    12.356512  

    Final Occupation by Irrep:
             A1    A2    B1    B2 
    DOCC [     3,    0,    1,    1 ]

  @DF-RKS Final Energy:   -76.42602425303208

   => Energetics <=

    Nuclear Repulsion Energy =              9.2004159605786633
    One-Electron Energy =                -123.1222440272367038
    Two-Electron Energy =                  44.1218729069964013
    DFT Exchange-Correlation Energy =      -6.6686720960363033
    Empirical Dispersion Energy =           0.0000000000000000
    VV10 Nonlocal Energy =                  0.0426030026658617
    Total Energy =                        -76.4260242530320824

Computation Completed


Properties will be evaluated at   0.000000,   0.000000,   0.000000 [a0]

Properties computed using the SCF density matrix

  Nuclear Dipole Moment: [e a0]
     X:     0.0000      Y:     0.0000      Z:     0.9771

  Electronic Dipole Moment: [e a0]
     X:     0.0000      Y:     0.0000      Z:    -0.2249

  Dipole Moment: [e a0]
     X:     0.0000      Y:     0.0000      Z:     0.7522     Total:     0.7522

  Dipole Moment: [D]
     X:     0.0000      Y:     0.0000      Z:     1.9118     Total:     1.9118


*** tstop() called on bp1-compute00113.data.bp.acrc.priv at Tue Apr 27 17:45:12 2021
Module time:
	user time   =      63.49 seconds =       1.06 minutes
	system time =       2.28 seconds =       0.04 minutes
	total time  =          3 seconds =       0.05 minutes
Total time:
	user time   =     193.95 seconds =       3.23 minutes
	system time =       7.58 seconds =       0.13 minutes
	total time  =          9 seconds =       0.15 minutes

  //>>>>>>>>>>>>>>>>>>>>>>>>>>>>>>>>>>>//
  //    Loading displacement 4 of 5    //
  //<<<<<<<<<<<<<<<<<<<<<<<<<<<<<<<<<<<//

*** tstart() called on bp1-compute00113.data.bp.acrc.priv
*** at Tue Apr 27 17:45:12 2021

   => Loading Basis Set <=

    Name: CC-PV(T+D)Z
    Role: ORBITAL
    Keyword: BASIS
    atoms 1   entry O          line   271 file /work/zw18965/.conda/envs/p4env/share/psi4/basis/cc-pv_tpd_z.gbs 
    atoms 2-3 entry H          line    32 file /work/zw18965/.conda/envs/p4env/share/psi4/basis/cc-pv_tpd_z.gbs 


         ---------------------------------------------------------
                                   SCF
               by Justin Turney, Rob Parrish, Andy Simmonett
                          and Daniel G. A. Smith
                              RKS Reference
                       24 Threads, 137329 MiB Core
         ---------------------------------------------------------

  ==> Geometry <==

    Molecular point group: c2v
    Full point group: C2v

    Geometry (in Angstrom), charge = 0, multiplicity = 1:

       Center              X                  Y                   Z               Mass       
    ------------   -----------------  -----------------  -----------------  -----------------
         O            0.000000000000     0.000000000000    -0.065912414824    15.994914619570
         H           -0.000000000000     0.753589016730     0.523038927279     1.007825032230
         H            0.000000000000    -0.753589016730     0.523038927279     1.007825032230

  Running in c2v symmetry.

  Rotational constants: A =     27.14988  B =     14.72693  C =      9.54787 [cm^-1]
  Rotational constants: A = 813932.95770  B = 441502.27142  C = 286237.98446 [MHz]
  Nuclear repulsion =    9.203636767920623

  Charge       = 0
  Multiplicity = 1
  Electrons    = 10
  Nalpha       = 5
  Nbeta        = 5

  ==> Algorithm <==

  SCF Algorithm Type is DF.
  DIIS enabled.
  MOM disabled.
  Fractional occupation disabled.
  Guess Type is SAD.
  Energy threshold   = 1.00e-08
  Density threshold  = 1.00e-08
  Integral threshold = 0.00e+00

  ==> Primary Basis <==

  Basis Set: CC-PV(T+D)Z
    Blend: CC-PV(T+D)Z
    Number of shells: 22
    Number of basis function: 58
    Number of Cartesian functions: 65
    Spherical Harmonics?: true
    Max angular momentum: 3

  ==> DFT Potential <==

   => Composite Functional: WB97M-V <= 

    wB97M-V Hyb-GGA Exchange-Correlation Functional

    N. Mardirossian and M. Head-Gordon, J. Chem. Phys. 144, 214110 (2016)

    Deriv               =              1
    GGA                 =           TRUE
    Meta                =           TRUE

    Exchange Hybrid     =           TRUE
    MP2 Hybrid          =          FALSE

   => Exchange-Correlation Functionals <=

    1.0000   wB97M-V exchange-correlation functional

   => Exact (HF) Exchange <=

    0.8500            HF,LR [omega = 0.3000]
    0.1500               HF 

   => VV10 Non-Local Parameters <=

    VV10 B              =     6.0000E+00
    VV10 C              =     1.0000E-02

   => Molecular Quadrature <=

    Radial Scheme          =       TREUTLER
    Pruning Scheme         =           FLAT
    Nuclear Scheme         =       TREUTLER

    BS radius alpha        =              1
    Pruning alpha          =              1
    Radial Points          =             75
    Spherical Points       =            302
    Total Points           =          66783
    Total Blocks           =            573
    Max Points             =            255
    Max Functions          =             58

   => Loading Basis Set <=

    Name: (CC-PV(T+D)Z AUX)
    Role: JKFIT
    Keyword: DF_BASIS_SCF
    atoms 1   entry O          line   229 file /work/zw18965/.conda/envs/p4env/share/psi4/basis/cc-pvtz-jkfit.gbs 
    atoms 2-3 entry H          line    51 file /work/zw18965/.conda/envs/p4env/share/psi4/basis/cc-pvtz-jkfit.gbs 

  ==> Pre-Iterations <==

   -------------------------------------------------------
    Irrep   Nso     Nmo     Nalpha   Nbeta   Ndocc  Nsocc
   -------------------------------------------------------
     A1        23      23       0       0       0       0
     A2         7       7       0       0       0       0
     B1        11      11       0       0       0       0
     B2        17      17       0       0       0       0
   -------------------------------------------------------
    Total      58      58       5       5       5       0
   -------------------------------------------------------

  ==> Integral Setup <==

  ==> DiskDFJK: Density-Fitted J/K Matrices <==

    J tasked:                  Yes
    K tasked:                  Yes
    wK tasked:                 Yes
    Omega:               3.000E-01
    OpenMP threads:             24
    Integrals threads:          24
    Memory [MiB]:           102727
    Algorithm:                Core
    Integral Cache:           NONE
    Schwarz Cutoff:          1E-12
    Fitting Condition:       1E-10

   => Auxiliary Basis Set <=

  Basis Set: (CC-PV(T+D)Z AUX)
    Blend: CC-PVTZ-JKFIT
    Number of shells: 45
    Number of basis function: 139
    Number of Cartesian functions: 166
    Spherical Harmonics?: true
    Max angular momentum: 4

  Cached 100.0% of DFT collocation blocks in 0.263 [GiB].

  Minimum eigenvalue in the overlap matrix is 2.4933199510E-03.
  Using Symmetric Orthogonalization.

  SCF Guess: Superposition of Atomic Densities via on-the-fly atomic UHF.

  ==> Iterations <==

                           Total Energy        Delta E     RMS |[F,P]|

   @DF-RKS iter SAD:   -75.97505400565963   -7.59751e+01   0.00000e+00 
   @DF-RKS iter   1:   -76.30113574382784   -3.26082e-01   1.89784e-02 DIIS
   @DF-RKS iter   2:   -76.30178012482040   -6.44381e-04   1.99591e-02 DIIS
   @DF-RKS iter   3:   -76.42585619796475   -1.24076e-01   4.88378e-04 DIIS
   @DF-RKS iter   4:   -76.42600418902779   -1.47991e-04   1.52342e-04 DIIS
   @DF-RKS iter   5:   -76.42601595809285   -1.17691e-05   2.23569e-05 DIIS
   @DF-RKS iter   6:   -76.42601641058481   -4.52492e-07   4.16307e-06 DIIS
   @DF-RKS iter   7:   -76.42601643650524   -2.59204e-08   9.86001e-07 DIIS
   @DF-RKS iter   8:   -76.42601643789067   -1.38543e-09   1.15638e-07 DIIS
   @DF-RKS iter   9:   -76.42601643791582   -2.51532e-11   1.35024e-08 DIIS
   @DF-RKS iter  10:   -76.42601643791602   -1.98952e-13   1.16037e-09 DIIS
  Energy and wave function converged.


  ==> Post-Iterations <==

    Orbital Energies [Eh]
    ---------------------

    Doubly Occupied:                                                      

       1A1   -19.321226     2A1    -1.133016     1B2    -0.630202  
       3A1    -0.491509     1B1    -0.414768  

    Virtual:                                                              

       4A1     0.097543     2B2     0.161216     3B2     0.457896  
       5A1     0.507683     6A1     0.587727     2B1     0.688253  
       4B2     0.707809     7A1     0.714626     1A2     0.776060  
       3B1     0.865585     8A1     1.012146     5B2     1.101218  
       6B2     1.382710     9A1     1.416684     4B1     1.873176  
       7B2     1.890075     2A2     1.894178    10A1     1.992025  
      11A1     2.056249    12A1     2.348561     8B2     2.714502  
       5B1     3.143042    13A1     3.281347     3A2     3.365899  
       9B2     3.450319     6B1     3.502983    10B2     3.619685  
      14A1     3.671815     4A2     3.738992     7B1     3.783980  
      11B2     3.818100    15A1     3.905837     5A2     4.082226  
      16A1     4.123824    12B2     4.346863     8B1     4.392751  
      13B2     4.594244    17A1     4.854266    18A1     4.932648  
      14B2     5.199417     9B1     5.722183    19A1     6.227410  
      10B1     6.536015     6A2     6.543439    20A1     6.632127  
      11B1     6.644519    15B2     6.692828    21A1     6.784432  
       7A2     6.886665    22A1     7.064037    16B2     7.405559  
      17B2     7.879048    23A1    12.359126  

    Final Occupation by Irrep:
             A1    A2    B1    B2 
    DOCC [     3,    0,    1,    1 ]

  @DF-RKS Final Energy:   -76.42601643791602

   => Energetics <=

    Nuclear Repulsion Energy =              9.2036367679206226
    One-Electron Energy =                -123.1270357497518262
    Two-Electron Energy =                  44.1236801524560036
    DFT Exchange-Correlation Energy =      -6.6689009315552781
    Empirical Dispersion Energy =           0.0000000000000000
    VV10 Nonlocal Energy =                  0.0426033230144527
    Total Energy =                        -76.4260164379160187

Computation Completed


Properties will be evaluated at   0.000000,   0.000000,   0.000000 [a0]

Properties computed using the SCF density matrix

  Nuclear Dipole Moment: [e a0]
     X:     0.0000      Y:     0.0000      Z:     0.9803

  Electronic Dipole Moment: [e a0]
     X:     0.0000      Y:     0.0000      Z:    -0.2264

  Dipole Moment: [e a0]
     X:     0.0000      Y:     0.0000      Z:     0.7539     Total:     0.7539

  Dipole Moment: [D]
     X:     0.0000      Y:     0.0000      Z:     1.9163     Total:     1.9163


*** tstop() called on bp1-compute00113.data.bp.acrc.priv at Tue Apr 27 17:45:15 2021
Module time:
	user time   =      62.67 seconds =       1.04 minutes
	system time =       1.95 seconds =       0.03 minutes
	total time  =          3 seconds =       0.05 minutes
Total time:
	user time   =     256.76 seconds =       4.28 minutes
	system time =       9.54 seconds =       0.16 minutes
	total time  =         12 seconds =       0.20 minutes

  //>>>>>>>>>>>>>>>>>>>>>>>>>>>>>>>>>>>//
  //    Loading displacement 5 of 5    //
  //<<<<<<<<<<<<<<<<<<<<<<<<<<<<<<<<<<<//

*** tstart() called on bp1-compute00113.data.bp.acrc.priv
*** at Tue Apr 27 17:45:15 2021

   => Loading Basis Set <=

    Name: CC-PV(T+D)Z
    Role: ORBITAL
    Keyword: BASIS
    atoms 1   entry O          line   271 file /work/zw18965/.conda/envs/p4env/share/psi4/basis/cc-pv_tpd_z.gbs 
    atoms 2-3 entry H          line    32 file /work/zw18965/.conda/envs/p4env/share/psi4/basis/cc-pv_tpd_z.gbs 


         ---------------------------------------------------------
                                   SCF
               by Justin Turney, Rob Parrish, Andy Simmonett
                          and Daniel G. A. Smith
                              RKS Reference
                       24 Threads, 137329 MiB Core
         ---------------------------------------------------------

  ==> Geometry <==

    Molecular point group: c2v
    Full point group: C2v

    Geometry (in Angstrom), charge = 0, multiplicity = 1:

       Center              X                  Y                   Z               Mass       
    ------------   -----------------  -----------------  -----------------  -----------------
         O           -0.000000000000     0.000000000000    -0.065912414824    15.994914619570
         H           -0.000000000000     0.757316309993     0.523038927279     1.007825032230
         H            0.000000000000    -0.757316309993     0.523038927279     1.007825032230

  Running in c2v symmetry.

  Rotational constants: A =     27.14988  B =     14.58232  C =      9.48688 [cm^-1]
  Rotational constants: A = 813932.95770  B = 437167.07141  C = 284409.46300 [MHz]
  Nuclear repulsion =    9.174784246374898

  Charge       = 0
  Multiplicity = 1
  Electrons    = 10
  Nalpha       = 5
  Nbeta        = 5

  ==> Algorithm <==

  SCF Algorithm Type is DF.
  DIIS enabled.
  MOM disabled.
  Fractional occupation disabled.
  Guess Type is SAD.
  Energy threshold   = 1.00e-08
  Density threshold  = 1.00e-08
  Integral threshold = 0.00e+00

  ==> Primary Basis <==

  Basis Set: CC-PV(T+D)Z
    Blend: CC-PV(T+D)Z
    Number of shells: 22
    Number of basis function: 58
    Number of Cartesian functions: 65
    Spherical Harmonics?: true
    Max angular momentum: 3

  ==> DFT Potential <==

   => Composite Functional: WB97M-V <= 

    wB97M-V Hyb-GGA Exchange-Correlation Functional

    N. Mardirossian and M. Head-Gordon, J. Chem. Phys. 144, 214110 (2016)

    Deriv               =              1
    GGA                 =           TRUE
    Meta                =           TRUE

    Exchange Hybrid     =           TRUE
    MP2 Hybrid          =          FALSE

   => Exchange-Correlation Functionals <=

    1.0000   wB97M-V exchange-correlation functional

   => Exact (HF) Exchange <=

    0.8500            HF,LR [omega = 0.3000]
    0.1500               HF 

   => VV10 Non-Local Parameters <=

    VV10 B              =     6.0000E+00
    VV10 C              =     1.0000E-02

   => Molecular Quadrature <=

    Radial Scheme          =       TREUTLER
    Pruning Scheme         =           FLAT
    Nuclear Scheme         =       TREUTLER

    BS radius alpha        =              1
    Pruning alpha          =              1
    Radial Points          =             75
    Spherical Points       =            302
    Total Points           =          66787
    Total Blocks           =            573
    Max Points             =            256
    Max Functions          =             58

   => Loading Basis Set <=

    Name: (CC-PV(T+D)Z AUX)
    Role: JKFIT
    Keyword: DF_BASIS_SCF
    atoms 1   entry O          line   229 file /work/zw18965/.conda/envs/p4env/share/psi4/basis/cc-pvtz-jkfit.gbs 
    atoms 2-3 entry H          line    51 file /work/zw18965/.conda/envs/p4env/share/psi4/basis/cc-pvtz-jkfit.gbs 

  ==> Pre-Iterations <==

   -------------------------------------------------------
    Irrep   Nso     Nmo     Nalpha   Nbeta   Ndocc  Nsocc
   -------------------------------------------------------
     A1        23      23       0       0       0       0
     A2         7       7       0       0       0       0
     B1        11      11       0       0       0       0
     B2        17      17       0       0       0       0
   -------------------------------------------------------
    Total      58      58       5       5       5       0
   -------------------------------------------------------

  ==> Integral Setup <==

  ==> DiskDFJK: Density-Fitted J/K Matrices <==

    J tasked:                  Yes
    K tasked:                  Yes
    wK tasked:                 Yes
    Omega:               3.000E-01
    OpenMP threads:             24
    Integrals threads:          24
    Memory [MiB]:           102727
    Algorithm:                Core
    Integral Cache:           NONE
    Schwarz Cutoff:          1E-12
    Fitting Condition:       1E-10

   => Auxiliary Basis Set <=

  Basis Set: (CC-PV(T+D)Z AUX)
    Blend: CC-PVTZ-JKFIT
    Number of shells: 45
    Number of basis function: 139
    Number of Cartesian functions: 166
    Spherical Harmonics?: true
    Max angular momentum: 4

  Cached 100.0% of DFT collocation blocks in 0.263 [GiB].

  Minimum eigenvalue in the overlap matrix is 2.5160686569E-03.
  Using Symmetric Orthogonalization.

  SCF Guess: Superposition of Atomic Densities via on-the-fly atomic UHF.

  ==> Iterations <==

                           Total Energy        Delta E     RMS |[F,P]|

   @DF-RKS iter SAD:   -75.97221355268850   -7.59722e+01   0.00000e+00 
   @DF-RKS iter   1:   -76.30120266186495   -3.28989e-01   1.89569e-02 DIIS
   @DF-RKS iter   2:   -76.30128751420551   -8.48523e-05   1.99869e-02 DIIS
   @DF-RKS iter   3:   -76.42588270385360   -1.24595e-01   4.90612e-04 DIIS
   @DF-RKS iter   4:   -76.42603200145479   -1.49298e-04   1.53726e-04 DIIS
   @DF-RKS iter   5:   -76.42604404989741   -1.20484e-05   2.25980e-05 DIIS
   @DF-RKS iter   6:   -76.42604451708311   -4.67186e-07   4.21854e-06 DIIS
   @DF-RKS iter   7:   -76.42604454401331   -2.69302e-08   1.00484e-06 DIIS
   @DF-RKS iter   8:   -76.42604454545382   -1.44051e-09   1.17300e-07 DIIS
   @DF-RKS iter   9:   -76.42604454547968   -2.58638e-11   1.37198e-08 DIIS
   @DF-RKS iter  10:   -76.42604454547994   -2.55795e-13   1.17911e-09 DIIS
  Energy and wave function converged.


  ==> Post-Iterations <==

    Orbital Energies [Eh]
    ---------------------

    Doubly Occupied:                                                      

       1A1   -19.321576     2A1    -1.131506     1B2    -0.629491  
       3A1    -0.490687     1B1    -0.414457  

    Virtual:                                                              

       4A1     0.097220     2B2     0.160822     3B2     0.456973  
       5A1     0.504920     6A1     0.588319     2B1     0.688212  
       4B2     0.707560     7A1     0.715460     1A2     0.774879  
       3B1     0.866403     8A1     1.013830     5B2     1.098762  
       6B2     1.380826     9A1     1.411847     4B1     1.870744  
       2A2     1.893574     7B2     1.894046    10A1     1.990624  
      11A1     2.057487    12A1     2.348242     8B2     2.711121  
       5B1     3.145528    13A1     3.281450     3A2     3.361888  
       9B2     3.444575     6B1     3.501236    10B2     3.616077  
      14A1     3.670143     4A2     3.735749     7B1     3.784329  
      11B2     3.817064    15A1     3.901941     5A2     4.079042  
      16A1     4.122017    12B2     4.335678     8B1     4.390419  
      13B2     4.588241    17A1     4.842330    18A1     4.931058  
      14B2     5.198206     9B1     5.715225    19A1     6.212980  
      10B1     6.529320     6A2     6.539659    20A1     6.624574  
      11B1     6.640822    15B2     6.688744    21A1     6.779125  
       7A2     6.878937    22A1     7.062841    16B2     7.396859  
      17B2     7.864342    23A1    12.312357  

    Final Occupation by Irrep:
             A1    A2    B1    B2 
    DOCC [     3,    0,    1,    1 ]

  @DF-RKS Final Energy:   -76.42604454547994

   => Energetics <=

    Nuclear Repulsion Energy =              9.1747842463748981
    One-Electron Energy =                -123.0767837143579015
    Two-Electron Energy =                  44.0999298071516321
    DFT Exchange-Correlation Energy =      -6.6665752050483107
    Empirical Dispersion Energy =           0.0000000000000000
    VV10 Nonlocal Energy =                  0.0426003203997426
    Total Energy =                        -76.4260445454799253

Computation Completed


Properties will be evaluated at   0.000000,   0.000000,   0.000000 [a0]

Properties computed using the SCF density matrix

  Nuclear Dipole Moment: [e a0]
     X:     0.0000      Y:     0.0000      Z:     0.9803

  Electronic Dipole Moment: [e a0]
     X:     0.0000      Y:     0.0000      Z:    -0.2275

  Dipole Moment: [e a0]
     X:     0.0000      Y:     0.0000      Z:     0.7529     Total:     0.7529

  Dipole Moment: [D]
     X:     0.0000      Y:     0.0000      Z:     1.9136     Total:     1.9136


*** tstop() called on bp1-compute00113.data.bp.acrc.priv at Tue Apr 27 17:45:17 2021
Module time:
	user time   =      63.11 seconds =       1.05 minutes
	system time =       2.02 seconds =       0.03 minutes
	total time  =          2 seconds =       0.03 minutes
Total time:
	user time   =     320.00 seconds =       5.33 minutes
	system time =      11.57 seconds =       0.19 minutes
	total time  =         14 seconds =       0.23 minutes

         ----------------------------------------------------------
                                   FINDIF
                     R. A. King and Jonathon Misiewicz
         ---------------------------------------------------------

  Computing gradient from energies.
    Using 3-point formula.
    Energy without displacement:  -76.4260355684
    Check energies below for precision!
    Forces are for mass-weighted, symmetry-adapted cartesians (in au).

     Coord      Energy(-1)        Energy(+1)            Force
        0    -76.4260403909    -76.4260242530      0.0016137904
        1    -76.4260164379    -76.4260445455     -0.0028107564


-------------------------------------------------------------
  ## New Matrix (Symmetry 0) ##
  Irrep: 1 Size: 3 x 3

                 1                   2                   3

    1     0.00000000000000     0.00000000000000     0.00215914596952
    2     0.00000000000000    -0.00199526589715    -0.00107957298476
    3     0.00000000000000     0.00199526589715    -0.00107957298476




			-----------------------------------------
			 OPTKING 2.0: for geometry optimizations 
			  - R.A. King,  Bethel University        
			-----------------------------------------
	At level 1: Red. Int., RFO, no backsteps, dynamic trust

	Internal coordinates to be generated automatically.
	Detected frag 1 with atoms:  1 2 3
	---Fragment 1 Bond Connectivity---
	 1 : 2 3
	 2 : 1
	 3 : 1

	---Fragment 1 Geometry and Gradient---
	 O           0.0000000000        0.0000000000       -0.1245564123
	 H          -0.0000000000        1.4275986345        0.9884003255
	 H           0.0000000000       -1.4275986345        0.9884003255
	             0.0000000000        0.0000000000        0.0021591460
	             0.0000000000       -0.0019952659       -0.0010795730
	             0.0000000000        0.0019952659       -0.0010795730

	Previous optimization step data not found.  Starting new optimization.

	---Fragment 1 Intrafragment Coordinates---
	 - Coordinate -           - BOHR/RAD -       - ANG/DEG -
	 R(1,2)           =         1.810169	       0.957900
	 R(1,3)           =         1.810169	       0.957900
	 B(2,1,3)         =         1.817237	     104.120000

	Current energy   :       -76.4260355684

	Generating empirical Hessian (Schlegel '84) for each fragment.
	Taking RFO optimization step.
	Going to follow RFO solution 1.
	Using RFO vector 1.
	Norm of target step-size    0.00707
	Projected energy change by RFO approximation:        -0.0000234471

	Back-transformation to cartesian coordinates...
	Successfully converged to displaced geometry.

	--- Internal Coordinate Step in ANG or DEG, aJ/ANG or AJ/DEG ---
	 ---------------------------------------------------------------------------
	   Coordinate                Previous        Force       Change         New 
	   ----------                --------       ------       ------       ------
	    1 R(1,2)          =      0.957900     0.018433     0.002117     0.960017
	    2 R(1,3)          =      0.957900     0.018433     0.002117     0.960017
	    3 B(2,1,3)        =    104.120000     0.000052     0.243278   104.363278
	 ---------------------------------------------------------------------------
	Successfully symmetrized geometry.

  ==> Convergence Check <==

  Measures of convergence in internal coordinates in au.
  Criteria marked as inactive (o), active & met (*), and active & unmet ( ).
  --------------------------------------------------------------------------------------------- ~
   Step     Total Energy     Delta E     MAX Force     RMS Force      MAX Disp      RMS Disp    ~
  --------------------------------------------------------------------------------------------- ~
    Convergence Criteria    1.00e-06 *    3.00e-04 *             o    1.20e-03 *             o  ~
  --------------------------------------------------------------------------------------------- ~
      1     -76.42603557   -7.64e+01      2.24e-03      1.87e-03 o    4.25e-03      4.08e-03 o  ~
  ---------------------------------------------------------------------------------------------

	Writing optimization data to binary file.
	Structure for next step:
	Cartesian Geometry (in Angstrom)
	    O    -0.0000000000   0.0000000000  -0.0657076271
	    H    -0.0000000000   0.7583735252   0.5229365315
	    H     0.0000000000  -0.7583735252   0.5229365315
			--------------------------
			 OPTKING Finished Execution 
			--------------------------

    Structure for next step:
    Molecular point group: c2v
    Full point group: C2v

    Geometry (in Angstrom), charge = 0, multiplicity = 1:

    O            0.000000000000     0.000000000000    -0.065878036685
    H           -0.000000000000     0.758373528166     0.522766124270
    H            0.000000000000    -0.758373528166     0.522766124270

gradient() will perform gradient computation by finite difference of analytic energies.

         ----------------------------------------------------------
                                   FINDIF
                     R. A. King and Jonathon Misiewicz
         ---------------------------------------------------------

  Using finite-differences of energies to determine gradients.
    Generating geometries for use with 3-point formula.
    Displacement size will be 5.00e-03.
    Number of atoms is 3.
    Number of symmetric SALCs is 2.
    Translations projected? 1. Rotations projected? 1.
    Number of geometries (including reference) is 5.

  //>>>>>>>>>>>>>>>>>>>>>>>>>>>>>>>>>>>//
  //    Loading displacement 1 of 5    //
  //<<<<<<<<<<<<<<<<<<<<<<<<<<<<<<<<<<<//

*** tstart() called on bp1-compute00113.data.bp.acrc.priv
*** at Tue Apr 27 17:45:17 2021

   => Loading Basis Set <=

    Name: CC-PV(T+D)Z
    Role: ORBITAL
    Keyword: BASIS
    atoms 1   entry O          line   271 file /work/zw18965/.conda/envs/p4env/share/psi4/basis/cc-pv_tpd_z.gbs 
    atoms 2-3 entry H          line    32 file /work/zw18965/.conda/envs/p4env/share/psi4/basis/cc-pv_tpd_z.gbs 


         ---------------------------------------------------------
                                   SCF
               by Justin Turney, Rob Parrish, Andy Simmonett
                          and Daniel G. A. Smith
                              RKS Reference
                       24 Threads, 137329 MiB Core
         ---------------------------------------------------------

  ==> Geometry <==

    Molecular point group: c2v
    Full point group: C2v

    Geometry (in Angstrom), charge = 0, multiplicity = 1:

       Center              X                  Y                   Z               Mass       
    ------------   -----------------  -----------------  -----------------  -----------------
         O            0.000000000000     0.000000000000    -0.065878036685    15.994914619570
         H           -0.000000000000     0.758373528166     0.522766124270     1.007825032230
         H            0.000000000000    -0.758373528166     0.522766124270     1.007825032230

  Running in c2v symmetry.

  Rotational constants: A =     27.17822  B =     14.54169  C =      9.47311 [cm^-1]
  Rotational constants: A = 814782.67341  B = 435949.04678  C = 283996.73893 [MHz]
  Nuclear repulsion =    9.168354916294142

  Charge       = 0
  Multiplicity = 1
  Electrons    = 10
  Nalpha       = 5
  Nbeta        = 5

  ==> Algorithm <==

  SCF Algorithm Type is DF.
  DIIS enabled.
  MOM disabled.
  Fractional occupation disabled.
  Guess Type is READ.
  Energy threshold   = 1.00e-08
  Density threshold  = 1.00e-08
  Integral threshold = 0.00e+00

  ==> Primary Basis <==

  Basis Set: CC-PV(T+D)Z
    Blend: CC-PV(T+D)Z
    Number of shells: 22
    Number of basis function: 58
    Number of Cartesian functions: 65
    Spherical Harmonics?: true
    Max angular momentum: 3

  ==> DFT Potential <==

   => Composite Functional: WB97M-V <= 

    wB97M-V Hyb-GGA Exchange-Correlation Functional

    N. Mardirossian and M. Head-Gordon, J. Chem. Phys. 144, 214110 (2016)

    Deriv               =              1
    GGA                 =           TRUE
    Meta                =           TRUE

    Exchange Hybrid     =           TRUE
    MP2 Hybrid          =          FALSE

   => Exchange-Correlation Functionals <=

    1.0000   wB97M-V exchange-correlation functional

   => Exact (HF) Exchange <=

    0.8500            HF,LR [omega = 0.3000]
    0.1500               HF 

   => VV10 Non-Local Parameters <=

    VV10 B              =     6.0000E+00
    VV10 C              =     1.0000E-02

   => Molecular Quadrature <=

    Radial Scheme          =       TREUTLER
    Pruning Scheme         =           FLAT
    Nuclear Scheme         =       TREUTLER

    BS radius alpha        =              1
    Pruning alpha          =              1
    Radial Points          =             75
    Spherical Points       =            302
    Total Points           =          66787
    Total Blocks           =            573
    Max Points             =            256
    Max Functions          =             58

   => Loading Basis Set <=

    Name: (CC-PV(T+D)Z AUX)
    Role: JKFIT
    Keyword: DF_BASIS_SCF
    atoms 1   entry O          line   229 file /work/zw18965/.conda/envs/p4env/share/psi4/basis/cc-pvtz-jkfit.gbs 
    atoms 2-3 entry H          line    51 file /work/zw18965/.conda/envs/p4env/share/psi4/basis/cc-pvtz-jkfit.gbs 

   => Loading Basis Set <=

    Name: CC-PV(T+D)Z
    Role: ORBITAL
    Keyword: BASIS
    atoms 1   entry O          line   271 file /work/zw18965/.conda/envs/p4env/share/psi4/basis/cc-pv_tpd_z.gbs 
    atoms 2-3 entry H          line    32 file /work/zw18965/.conda/envs/p4env/share/psi4/basis/cc-pv_tpd_z.gbs 

  Reading orbitals from file 180, no projection.

  ==> Pre-Iterations <==

   -------------------------------------------------------
    Irrep   Nso     Nmo     Nalpha   Nbeta   Ndocc  Nsocc
   -------------------------------------------------------
     A1        23      23       0       0       0       0
     A2         7       7       0       0       0       0
     B1        11      11       0       0       0       0
     B2        17      17       0       0       0       0
   -------------------------------------------------------
    Total      58      58       5       5       5       0
   -------------------------------------------------------

  ==> Integral Setup <==

  ==> DiskDFJK: Density-Fitted J/K Matrices <==

    J tasked:                  Yes
    K tasked:                  Yes
    wK tasked:                 Yes
    Omega:               3.000E-01
    OpenMP threads:             24
    Integrals threads:          24
    Memory [MiB]:           102727
    Algorithm:                Core
    Integral Cache:           NONE
    Schwarz Cutoff:          1E-12
    Fitting Condition:       1E-10

   => Auxiliary Basis Set <=

  Basis Set: (CC-PV(T+D)Z AUX)
    Blend: CC-PVTZ-JKFIT
    Number of shells: 45
    Number of basis function: 139
    Number of Cartesian functions: 166
    Spherical Harmonics?: true
    Max angular momentum: 4

  Cached 100.0% of DFT collocation blocks in 0.263 [GiB].

  Minimum eigenvalue in the overlap matrix is 2.5206507930E-03.
  Using Symmetric Orthogonalization.

  SCF Guess: Orbitals guess was supplied from a previous computation.

  ==> Iterations <==

                           Total Energy        Delta E     RMS |[F,P]|

   @DF-RKS iter   0:   -76.42464656414627   -7.64246e+01   1.59924e-04 
   @DF-RKS iter   1:   -76.42604467188370   -1.39811e-03   3.33532e-05 DIIS
   @DF-RKS iter   2:   -76.42604492548887   -2.53605e-07   2.77761e-05 DIIS
   @DF-RKS iter   3:   -76.42604514074795   -2.15259e-07   4.01820e-06 DIIS
   @DF-RKS iter   4:   -76.42604514699993   -6.25198e-09   1.05593e-06 DIIS
   @DF-RKS iter   5:   -76.42604514785414   -8.54214e-10   1.66971e-07 DIIS
   @DF-RKS iter   6:   -76.42604514790543   -5.12870e-11   2.25701e-08 DIIS
   @DF-RKS iter   7:   -76.42604514790645   -1.02318e-12   2.61330e-09 DIIS
  Energy and wave function converged.


  ==> Post-Iterations <==

    Orbital Energies [Eh]
    ---------------------

    Doubly Occupied:                                                      

       1A1   -19.321632     2A1    -1.131142     1B2    -0.629416  
       3A1    -0.490418     1B1    -0.414376  

    Virtual:                                                              

       4A1     0.097156     2B2     0.160726     3B2     0.456846  
       5A1     0.504171     6A1     0.588469     2B1     0.688210  
       4B2     0.707476     7A1     0.715868     1A2     0.774527  
       3B1     0.866769     8A1     1.014157     5B2     1.098098  
       6B2     1.380508     9A1     1.410697     4B1     1.870007  
       2A2     1.893535     7B2     1.894949    10A1     1.990213  
      11A1     2.057817    12A1     2.348439     8B2     2.710242  
       5B1     3.146470    13A1     3.281709     3A2     3.360656  
       9B2     3.443037     6B1     3.500945    10B2     3.615260  
      14A1     3.669687     4A2     3.734912     7B1     3.784494  
      11B2     3.816977    15A1     3.901053     5A2     4.078541  
      16A1     4.122007    12B2     4.332631     8B1     4.389973  
      13B2     4.586787    17A1     4.839420    18A1     4.930801  
      14B2     5.198115     9B1     5.713492    19A1     6.209238  
      10B1     6.527900     6A2     6.538883    20A1     6.622826  
      11B1     6.640046    15B2     6.688790    21A1     6.777532  
       7A2     6.877146    22A1     7.062824    16B2     7.394791  
      17B2     7.860784    23A1    12.302327  

    Final Occupation by Irrep:
             A1    A2    B1    B2 
    DOCC [     3,    0,    1,    1 ]

  @DF-RKS Final Energy:   -76.42604514790645

   => Energetics <=

    Nuclear Repulsion Energy =              9.1683549162941418
    One-Electron Energy =                -123.0657023623002999
    Two-Electron Energy =                  44.0947642442295802
    DFT Exchange-Correlation Energy =      -6.6660615990330765
    Empirical Dispersion Energy =           0.0000000000000000
    VV10 Nonlocal Energy =                  0.0425996529032062
    Total Energy =                        -76.4260451479064500

Computation Completed


Properties will be evaluated at   0.000000,   0.000000,   0.000000 [a0]

Properties computed using the SCF density matrix

  Nuclear Dipole Moment: [e a0]
     X:     0.0000      Y:     0.0000      Z:     0.9798

  Electronic Dipole Moment: [e a0]
     X:     0.0000      Y:     0.0000      Z:    -0.2275

  Dipole Moment: [e a0]
     X:     0.0000      Y:     0.0000      Z:     0.7524     Total:     0.7524

  Dipole Moment: [D]
     X:     0.0000      Y:     0.0000      Z:     1.9124     Total:     1.9124


*** tstop() called on bp1-compute00113.data.bp.acrc.priv at Tue Apr 27 17:45:19 2021
Module time:
	user time   =      45.69 seconds =       0.76 minutes
	system time =       1.42 seconds =       0.02 minutes
	total time  =          2 seconds =       0.03 minutes
Total time:
	user time   =     366.07 seconds =       6.10 minutes
	system time =      13.01 seconds =       0.22 minutes
	total time  =         16 seconds =       0.27 minutes

  //>>>>>>>>>>>>>>>>>>>>>>>>>>>>>>>>>>>//
  //    Loading displacement 2 of 5    //
  //<<<<<<<<<<<<<<<<<<<<<<<<<<<<<<<<<<<//

*** tstart() called on bp1-compute00113.data.bp.acrc.priv
*** at Tue Apr 27 17:45:19 2021

   => Loading Basis Set <=

    Name: CC-PV(T+D)Z
    Role: ORBITAL
    Keyword: BASIS
    atoms 1   entry O          line   271 file /work/zw18965/.conda/envs/p4env/share/psi4/basis/cc-pv_tpd_z.gbs 
    atoms 2-3 entry H          line    32 file /work/zw18965/.conda/envs/p4env/share/psi4/basis/cc-pv_tpd_z.gbs 


         ---------------------------------------------------------
                                   SCF
               by Justin Turney, Rob Parrish, Andy Simmonett
                          and Daniel G. A. Smith
                              RKS Reference
                       24 Threads, 137329 MiB Core
         ---------------------------------------------------------

  ==> Geometry <==

    Molecular point group: c2v
    Full point group: C2v

    Geometry (in Angstrom), charge = 0, multiplicity = 1:

       Center              X                  Y                   Z               Mass       
    ------------   -----------------  -----------------  -----------------  -----------------
         O            0.000000000000     0.000000000000    -0.066099358426    15.994914619570
         H           -0.000000000000     0.758373528166     0.524522392589     1.007825032230
         H            0.000000000000    -0.758373528166     0.524522392589     1.007825032230

  Running in c2v symmetry.

  Rotational constants: A =     26.99653  B =     14.54169  C =      9.45094 [cm^-1]
  Rotational constants: A = 809335.50345  B = 435949.04678  C = 283332.06349 [MHz]
  Nuclear repulsion =    9.157217631813396

  Charge       = 0
  Multiplicity = 1
  Electrons    = 10
  Nalpha       = 5
  Nbeta        = 5

  ==> Algorithm <==

  SCF Algorithm Type is DF.
  DIIS enabled.
  MOM disabled.
  Fractional occupation disabled.
  Guess Type is READ.
  Energy threshold   = 1.00e-08
  Density threshold  = 1.00e-08
  Integral threshold = 0.00e+00

  ==> Primary Basis <==

  Basis Set: CC-PV(T+D)Z
    Blend: CC-PV(T+D)Z
    Number of shells: 22
    Number of basis function: 58
    Number of Cartesian functions: 65
    Spherical Harmonics?: true
    Max angular momentum: 3

  ==> DFT Potential <==

   => Composite Functional: WB97M-V <= 

    wB97M-V Hyb-GGA Exchange-Correlation Functional

    N. Mardirossian and M. Head-Gordon, J. Chem. Phys. 144, 214110 (2016)

    Deriv               =              1
    GGA                 =           TRUE
    Meta                =           TRUE

    Exchange Hybrid     =           TRUE
    MP2 Hybrid          =          FALSE

   => Exchange-Correlation Functionals <=

    1.0000   wB97M-V exchange-correlation functional

   => Exact (HF) Exchange <=

    0.8500            HF,LR [omega = 0.3000]
    0.1500               HF 

   => VV10 Non-Local Parameters <=

    VV10 B              =     6.0000E+00
    VV10 C              =     1.0000E-02

   => Molecular Quadrature <=

    Radial Scheme          =       TREUTLER
    Pruning Scheme         =           FLAT
    Nuclear Scheme         =       TREUTLER

    BS radius alpha        =              1
    Pruning alpha          =              1
    Radial Points          =             75
    Spherical Points       =            302
    Total Points           =          66787
    Total Blocks           =            573
    Max Points             =            256
    Max Functions          =             58

   => Loading Basis Set <=

    Name: (CC-PV(T+D)Z AUX)
    Role: JKFIT
    Keyword: DF_BASIS_SCF
    atoms 1   entry O          line   229 file /work/zw18965/.conda/envs/p4env/share/psi4/basis/cc-pvtz-jkfit.gbs 
    atoms 2-3 entry H          line    51 file /work/zw18965/.conda/envs/p4env/share/psi4/basis/cc-pvtz-jkfit.gbs 

   => Loading Basis Set <=

    Name: CC-PV(T+D)Z
    Role: ORBITAL
    Keyword: BASIS
    atoms 1   entry O          line   271 file /work/zw18965/.conda/envs/p4env/share/psi4/basis/cc-pv_tpd_z.gbs 
    atoms 2-3 entry H          line    32 file /work/zw18965/.conda/envs/p4env/share/psi4/basis/cc-pv_tpd_z.gbs 

  Reading orbitals from file 180, no projection.

  ==> Pre-Iterations <==

   -------------------------------------------------------
    Irrep   Nso     Nmo     Nalpha   Nbeta   Ndocc  Nsocc
   -------------------------------------------------------
     A1        23      23       0       0       0       0
     A2         7       7       0       0       0       0
     B1        11      11       0       0       0       0
     B2        17      17       0       0       0       0
   -------------------------------------------------------
    Total      58      58       5       5       5       0
   -------------------------------------------------------

  ==> Integral Setup <==

  ==> DiskDFJK: Density-Fitted J/K Matrices <==

    J tasked:                  Yes
    K tasked:                  Yes
    wK tasked:                 Yes
    Omega:               3.000E-01
    OpenMP threads:             24
    Integrals threads:          24
    Memory [MiB]:           102727
    Algorithm:                Core
    Integral Cache:           NONE
    Schwarz Cutoff:          1E-12
    Fitting Condition:       1E-10

   => Auxiliary Basis Set <=

  Basis Set: (CC-PV(T+D)Z AUX)
    Blend: CC-PVTZ-JKFIT
    Number of shells: 45
    Number of basis function: 139
    Number of Cartesian functions: 166
    Spherical Harmonics?: true
    Max angular momentum: 4

  Cached 100.0% of DFT collocation blocks in 0.263 [GiB].

  Minimum eigenvalue in the overlap matrix is 2.5330191013E-03.
  Using Symmetric Orthogonalization.

  SCF Guess: Orbitals guess was supplied from a previous computation.

  ==> Iterations <==

                           Total Energy        Delta E     RMS |[F,P]|

   @DF-RKS iter   0:   -76.42489140285585   -7.64249e+01   1.22442e-04 
   @DF-RKS iter   1:   -76.42604227448143   -1.15087e-03   2.02307e-05 DIIS
   @DF-RKS iter   2:   -76.42604241218265   -1.37701e-07   1.68274e-05 DIIS
   @DF-RKS iter   3:   -76.42604249260637   -8.04237e-08   2.73481e-06 DIIS
   @DF-RKS iter   4:   -76.42604249681548   -4.20911e-09   8.54882e-07 DIIS
   @DF-RKS iter   5:   -76.42604249753978   -7.24299e-10   1.50286e-07 DIIS
   @DF-RKS iter   6:   -76.42604249757528   -3.54987e-11   1.95573e-08 DIIS
   @DF-RKS iter   7:   -76.42604249757589   -6.11067e-13   1.89220e-09 DIIS
  Energy and wave function converged.


  ==> Post-Iterations <==

    Orbital Energies [Eh]
    ---------------------

    Doubly Occupied:                                                      

       1A1   -19.321911     2A1    -1.130747     1B2    -0.628594  
       3A1    -0.490656     1B1    -0.414327  

    Virtual:                                                              

       4A1     0.096968     2B2     0.160619     3B2     0.455979  
       5A1     0.503956     6A1     0.588600     2B1     0.688136  
       4B2     0.707573     7A1     0.714797     1A2     0.774643  
       3B1     0.865909     8A1     1.015169     5B2     1.097895  
       6B2     1.379118     9A1     1.409277     4B1     1.870307  
       2A2     1.892670     7B2     1.896412    10A1     1.990213  
      11A1     2.057990    12A1     2.346763     8B2     2.709696  
       5B1     3.144845    13A1     3.280189     3A2     3.361282  
       9B2     3.442484     6B1     3.499628    10B2     3.613883  
      14A1     3.669680     4A2     3.734470     7B1     3.784103  
      11B2     3.815618    15A1     3.899537     5A2     4.075979  
      16A1     4.118745    12B2     4.331944     8B1     4.388495  
      13B2     4.585165    17A1     4.836533    18A1     4.929510  
      14B2     5.196771     9B1     5.711909    19A1     6.206825  
      10B1     6.524279     6A2     6.536586    20A1     6.619949  
      11B1     6.638915    15B2     6.681083    21A1     6.778725  
       7A2     6.874942    22A1     7.060931    16B2     7.392221  
      17B2     7.856851    23A1    12.281666  

    Final Occupation by Irrep:
             A1    A2    B1    B2 
    DOCC [     3,    0,    1,    1 ]

  @DF-RKS Final Energy:   -76.42604249757589

   => Energetics <=

    Nuclear Repulsion Energy =              9.1572176318133955
    One-Electron Energy =                -123.0454676638543958
    Two-Electron Energy =                  44.0847424498437022
    DFT Exchange-Correlation Energy =      -6.6651333960783035
    Empirical Dispersion Energy =           0.0000000000000000
    VV10 Nonlocal Energy =                  0.0425984806997174
    Total Energy =                        -76.4260424975758781

Computation Completed


Properties will be evaluated at   0.000000,   0.000000,   0.000000 [a0]

Properties computed using the SCF density matrix

  Nuclear Dipole Moment: [e a0]
     X:     0.0000      Y:     0.0000      Z:     0.9831

  Electronic Dipole Moment: [e a0]
     X:     0.0000      Y:     0.0000      Z:    -0.2295

  Dipole Moment: [e a0]
     X:     0.0000      Y:     0.0000      Z:     0.7536     Total:     0.7536

  Dipole Moment: [D]
     X:     0.0000      Y:     0.0000      Z:     1.9156     Total:     1.9156


*** tstop() called on bp1-compute00113.data.bp.acrc.priv at Tue Apr 27 17:45:21 2021
Module time:
	user time   =      48.59 seconds =       0.81 minutes
	system time =       1.89 seconds =       0.03 minutes
	total time  =          2 seconds =       0.03 minutes
Total time:
	user time   =     414.79 seconds =       6.91 minutes
	system time =      14.91 seconds =       0.25 minutes
	total time  =         18 seconds =       0.30 minutes

  //>>>>>>>>>>>>>>>>>>>>>>>>>>>>>>>>>>>//
  //    Loading displacement 3 of 5    //
  //<<<<<<<<<<<<<<<<<<<<<<<<<<<<<<<<<<<//

*** tstart() called on bp1-compute00113.data.bp.acrc.priv
*** at Tue Apr 27 17:45:21 2021

   => Loading Basis Set <=

    Name: CC-PV(T+D)Z
    Role: ORBITAL
    Keyword: BASIS
    atoms 1   entry O          line   271 file /work/zw18965/.conda/envs/p4env/share/psi4/basis/cc-pv_tpd_z.gbs 
    atoms 2-3 entry H          line    32 file /work/zw18965/.conda/envs/p4env/share/psi4/basis/cc-pv_tpd_z.gbs 


         ---------------------------------------------------------
                                   SCF
               by Justin Turney, Rob Parrish, Andy Simmonett
                          and Daniel G. A. Smith
                              RKS Reference
                       24 Threads, 137329 MiB Core
         ---------------------------------------------------------

  ==> Geometry <==

    Molecular point group: c2v
    Full point group: C2v

    Geometry (in Angstrom), charge = 0, multiplicity = 1:

       Center              X                  Y                   Z               Mass       
    ------------   -----------------  -----------------  -----------------  -----------------
         O            0.000000000000     0.000000000000    -0.065656714944    15.994914619570
         H           -0.000000000000     0.758373528166     0.521009855952     1.007825032230
         H            0.000000000000    -0.758373528166     0.521009855952     1.007825032230

  Running in c2v symmetry.

  Rotational constants: A =     27.36176  B =     14.54169  C =      9.49531 [cm^-1]
  Rotational constants: A = 820285.02165  B = 435949.04678  C = 284662.29524 [MHz]
  Nuclear repulsion =    9.179496987114454

  Charge       = 0
  Multiplicity = 1
  Electrons    = 10
  Nalpha       = 5
  Nbeta        = 5

  ==> Algorithm <==

  SCF Algorithm Type is DF.
  DIIS enabled.
  MOM disabled.
  Fractional occupation disabled.
  Guess Type is READ.
  Energy threshold   = 1.00e-08
  Density threshold  = 1.00e-08
  Integral threshold = 0.00e+00

  ==> Primary Basis <==

  Basis Set: CC-PV(T+D)Z
    Blend: CC-PV(T+D)Z
    Number of shells: 22
    Number of basis function: 58
    Number of Cartesian functions: 65
    Spherical Harmonics?: true
    Max angular momentum: 3

  ==> DFT Potential <==

   => Composite Functional: WB97M-V <= 

    wB97M-V Hyb-GGA Exchange-Correlation Functional

    N. Mardirossian and M. Head-Gordon, J. Chem. Phys. 144, 214110 (2016)

    Deriv               =              1
    GGA                 =           TRUE
    Meta                =           TRUE

    Exchange Hybrid     =           TRUE
    MP2 Hybrid          =          FALSE

   => Exchange-Correlation Functionals <=

    1.0000   wB97M-V exchange-correlation functional

   => Exact (HF) Exchange <=

    0.8500            HF,LR [omega = 0.3000]
    0.1500               HF 

   => VV10 Non-Local Parameters <=

    VV10 B              =     6.0000E+00
    VV10 C              =     1.0000E-02

   => Molecular Quadrature <=

    Radial Scheme          =       TREUTLER
    Pruning Scheme         =           FLAT
    Nuclear Scheme         =       TREUTLER

    BS radius alpha        =              1
    Pruning alpha          =              1
    Radial Points          =             75
    Spherical Points       =            302
    Total Points           =          66783
    Total Blocks           =            575
    Max Points             =            255
    Max Functions          =             58

   => Loading Basis Set <=

    Name: (CC-PV(T+D)Z AUX)
    Role: JKFIT
    Keyword: DF_BASIS_SCF
    atoms 1   entry O          line   229 file /work/zw18965/.conda/envs/p4env/share/psi4/basis/cc-pvtz-jkfit.gbs 
    atoms 2-3 entry H          line    51 file /work/zw18965/.conda/envs/p4env/share/psi4/basis/cc-pvtz-jkfit.gbs 

   => Loading Basis Set <=

    Name: CC-PV(T+D)Z
    Role: ORBITAL
    Keyword: BASIS
    atoms 1   entry O          line   271 file /work/zw18965/.conda/envs/p4env/share/psi4/basis/cc-pv_tpd_z.gbs 
    atoms 2-3 entry H          line    32 file /work/zw18965/.conda/envs/p4env/share/psi4/basis/cc-pv_tpd_z.gbs 

  Reading orbitals from file 180, no projection.

  ==> Pre-Iterations <==

   -------------------------------------------------------
    Irrep   Nso     Nmo     Nalpha   Nbeta   Ndocc  Nsocc
   -------------------------------------------------------
     A1        23      23       0       0       0       0
     A2         7       7       0       0       0       0
     B1        11      11       0       0       0       0
     B2        17      17       0       0       0       0
   -------------------------------------------------------
    Total      58      58       5       5       5       0
   -------------------------------------------------------

  ==> Integral Setup <==

  ==> DiskDFJK: Density-Fitted J/K Matrices <==

    J tasked:                  Yes
    K tasked:                  Yes
    wK tasked:                 Yes
[...]
       6B2     1.379913     9A1     1.411878     4B1     1.871883  
       2A2     1.892819     7B2     1.894342    10A1     1.991070  
      11A1     2.057246    12A1     2.346525     8B2     2.711640  
       5B1     3.142900    13A1     3.279720     3A2     3.363921  
       9B2     3.445845     6B1     3.500350    10B2     3.615797  
      14A1     3.670696     4A2     3.736323     7B1     3.783778  
      11B2     3.815916    15A1     3.901566     5A2     4.077282  
      16A1     4.119015    12B2     4.338590     8B1     4.389565  
      13B2     4.588478    17A1     4.843037    18A1     4.930170  
      14B2     5.197075     9B1     5.715747    19A1     6.215060  
      10B1     6.527725     6A2     6.538470    20A1     6.623969  
      11B1     6.640613    15B2     6.681524    21A1     6.782091  
       7A2     6.878935    22A1     7.061146    16B2     7.396868  
      17B2     7.864859    23A1    12.304939  

    Final Occupation by Irrep:
             A1    A2    B1    B2 
    DOCC [     3,    0,    1,    1 ]

  @DF-RKS Final Energy:   -76.42604262987058

   => Energetics <=

    Nuclear Repulsion Energy =              9.1719802005561153
    One-Electron Energy =                -123.0709925968255192
    Two-Electron Energy =                  44.0966847337797105
    DFT Exchange-Correlation Energy =      -6.6663149791338094
    Empirical Dispersion Energy =           0.0000000000000000
    VV10 Nonlocal Energy =                  0.0426000117529071
    Total Energy =                        -76.4260426298705937

Computation Completed


Properties will be evaluated at   0.000000,   0.000000,   0.000000 [a0]

Properties computed using the SCF density matrix

  Nuclear Dipole Moment: [e a0]
     X:     0.0000      Y:     0.0000      Z:     0.9840

  Electronic Dipole Moment: [e a0]
     X:     0.0000      Y:     0.0000      Z:    -0.2294

  Dipole Moment: [e a0]
     X:     0.0000      Y:     0.0000      Z:     0.7546     Total:     0.7546

  Dipole Moment: [D]
     X:     0.0000      Y:     0.0000      Z:     1.9181     Total:     1.9181


*** tstop() called on bp1-compute00113.data.bp.acrc.priv at Tue Apr 27 17:46:11 2021
Module time:
	user time   =      65.08 seconds =       1.08 minutes
	system time =       1.91 seconds =       0.03 minutes
	total time  =          3 seconds =       0.05 minutes
Total time:
	user time   =    1548.71 seconds =      25.81 minutes
	system time =      50.31 seconds =       0.84 minutes
	total time  =         68 seconds =       1.13 minutes

  //>>>>>>>>>>>>>>>>>>>>>>>>>>>>>>>>>>>//
  //    Loading displacement 8 of 8    //
  //<<<<<<<<<<<<<<<<<<<<<<<<<<<<<<<<<<<//

*** tstart() called on bp1-compute00113.data.bp.acrc.priv
*** at Tue Apr 27 17:46:11 2021

   => Loading Basis Set <=

    Name: CC-PV(T+D)Z
    Role: ORBITAL
    Keyword: BASIS
    atoms 1   entry O          line   271 file /work/zw18965/.conda/envs/p4env/share/psi4/basis/cc-pv_tpd_z.gbs 
    atoms 2-3 entry H          line    32 file /work/zw18965/.conda/envs/p4env/share/psi4/basis/cc-pv_tpd_z.gbs 


         ---------------------------------------------------------
                                   SCF
               by Justin Turney, Rob Parrish, Andy Simmonett
                          and Daniel G. A. Smith
                              RKS Reference
                       24 Threads, 137329 MiB Core
         ---------------------------------------------------------

  ==> Geometry <==

    Molecular point group: cs
    Full point group: Cs

    Geometry (in Angstrom), charge = 0, multiplicity = 1:

       Center              X                  Y                   Z               Mass       
    ------------   -----------------  -----------------  -----------------  -----------------
         O            0.000000000000    -0.000178542652    -0.065936240946    15.994914619570
         H            0.000000000000     0.759354525901     0.524329311371     1.007825032230
         H            0.000000000000    -0.756520924451     0.522126681021     1.007825032230

  Running in cs symmetry.

  Rotational constants: A =     27.13108  B =     14.55810  C =      9.47433 [cm^-1]
  Rotational constants: A = 813369.25647  B = 436440.84836  C = 284033.20389 [MHz]
  Nuclear repulsion =    9.168821879043696

  Charge       = 0
  Multiplicity = 1
  Electrons    = 10
  Nalpha       = 5
  Nbeta        = 5

  ==> Algorithm <==

  SCF Algorithm Type is DF.
  DIIS enabled.
  MOM disabled.
  Fractional occupation disabled.
  Guess Type is SAD.
  Energy threshold   = 1.00e-10
  Density threshold  = 1.00e-10
  Integral threshold = 0.00e+00

  ==> Primary Basis <==

  Basis Set: CC-PV(T+D)Z
    Blend: CC-PV(T+D)Z
    Number of shells: 22
    Number of basis function: 58
    Number of Cartesian functions: 65
    Spherical Harmonics?: true
    Max angular momentum: 3

  ==> DFT Potential <==

   => Composite Functional: WB97M-V <= 

    wB97M-V Hyb-GGA Exchange-Correlation Functional

    N. Mardirossian and M. Head-Gordon, J. Chem. Phys. 144, 214110 (2016)

    Deriv               =              1
    GGA                 =           TRUE
    Meta                =           TRUE

    Exchange Hybrid     =           TRUE
    MP2 Hybrid          =          FALSE

   => Exchange-Correlation Functionals <=

    1.0000   wB97M-V exchange-correlation functional

   => Exact (HF) Exchange <=

    0.8500            HF,LR [omega = 0.3000]
    0.1500               HF 

   => VV10 Non-Local Parameters <=

    VV10 B              =     6.0000E+00
    VV10 C              =     1.0000E-02

   => Molecular Quadrature <=

    Radial Scheme          =       TREUTLER
    Pruning Scheme         =           FLAT
    Nuclear Scheme         =       TREUTLER

    BS radius alpha        =              1
    Pruning alpha          =              1
    Radial Points          =             75
    Spherical Points       =            302
    Total Points           =          66785
    Total Blocks           =            563
    Max Points             =            256
    Max Functions          =             58

   => Loading Basis Set <=

    Name: (CC-PV(T+D)Z AUX)
    Role: JKFIT
    Keyword: DF_BASIS_SCF
    atoms 1   entry O          line   229 file /work/zw18965/.conda/envs/p4env/share/psi4/basis/cc-pvtz-jkfit.gbs 
    atoms 2-3 entry H          line    51 file /work/zw18965/.conda/envs/p4env/share/psi4/basis/cc-pvtz-jkfit.gbs 

  ==> Pre-Iterations <==

   -------------------------------------------------------
    Irrep   Nso     Nmo     Nalpha   Nbeta   Ndocc  Nsocc
   -------------------------------------------------------
     A'        40      40       0       0       0       0
     A"        18      18       0       0       0       0
   -------------------------------------------------------
    Total      58      58       5       5       5       0
   -------------------------------------------------------

  ==> Integral Setup <==

  ==> DiskDFJK: Density-Fitted J/K Matrices <==

    J tasked:                  Yes
    K tasked:                  Yes
    wK tasked:                 Yes
    Omega:               3.000E-01
    OpenMP threads:             24
    Integrals threads:          24
    Memory [MiB]:           102727
    Algorithm:                Core
    Integral Cache:           NONE
    Schwarz Cutoff:          1E-12
    Fitting Condition:       1E-10

   => Auxiliary Basis Set <=

  Basis Set: (CC-PV(T+D)Z AUX)
    Blend: CC-PVTZ-JKFIT
    Number of shells: 45
    Number of basis function: 139
    Number of Cartesian functions: 166
    Spherical Harmonics?: true
    Max angular momentum: 4

  Cached 100.0% of DFT collocation blocks in 0.263 [GiB].

  Minimum eigenvalue in the overlap matrix is 2.5210507391E-03.
  Using Symmetric Orthogonalization.

  SCF Guess: Superposition of Atomic Densities via on-the-fly atomic UHF.

  ==> Iterations <==

                           Total Energy        Delta E     RMS |[F,P]|

   @DF-RKS iter SAD:   -75.97163547486534   -7.59716e+01   0.00000e+00 
   @DF-RKS iter   1:   -76.30119775086786   -3.29562e-01   1.35814e-02 DIIS
   @DF-RKS iter   2:   -76.30115647069036    4.12802e-05   1.43275e-02 DIIS
   @DF-RKS iter   3:   -76.42587586859668   -1.24719e-01   3.51929e-04 DIIS
   @DF-RKS iter   4:   -76.42602542550421   -1.49557e-04   1.10364e-04 DIIS
   @DF-RKS iter   5:   -76.42603752925650   -1.21038e-05   1.62284e-05 DIIS
   @DF-RKS iter   6:   -76.42603799908568   -4.69829e-07   3.02944e-06 DIIS
   @DF-RKS iter   7:   -76.42603802617687   -2.70912e-08   7.22376e-07 DIIS
   @DF-RKS iter   8:   -76.42603802762677   -1.44991e-09   8.43737e-08 DIIS
   @DF-RKS iter   9:   -76.42603802765278   -2.60059e-11   1.00489e-08 DIIS
   @DF-RKS iter  10:   -76.42603802765304   -2.55795e-13   1.29516e-09 DIIS
   @DF-RKS iter  11:   -76.42603802765301    2.84217e-14   2.99740e-10 DIIS
   @DF-RKS iter  12:   -76.42603802765301    0.00000e+00   2.65684e-11 DIIS
  Energy and wave function converged.


  ==> Post-Iterations <==

    Orbital Energies [Eh]
    ---------------------

    Doubly Occupied:                                                      

       1Ap   -19.321664     2Ap    -1.131217     3Ap    -0.629283  
       4Ap    -0.490576     1App   -0.414400  

    Virtual:                                                              

       5Ap     0.097143     6Ap     0.160744     7Ap     0.456700  
       8Ap     0.504464     9Ap     0.588434     2App    0.688192  
      10Ap     0.707535    11Ap     0.715487     3App    0.774698  
       4App    0.866448    12Ap     1.014216    13Ap     1.098333  
      14Ap     1.380169    15Ap     1.411093     5App    1.870332  
       6App    1.893416    16Ap     1.894875    17Ap     1.990392  
      18Ap     2.057722    19Ap     2.348018    20Ap     2.710502  
       7App    3.145760    21Ap     3.281297     8App    3.361281  
      22Ap     3.443558     9App    3.500810    23Ap     3.615296  
      24Ap     3.669884    10App    3.735166    11App    3.784347  
      25Ap     3.816686    26Ap     3.901169    12App    4.078233  
      27Ap     4.121373    28Ap     4.333729    13App    4.389870  
      29Ap     4.586988    30Ap     4.840192    31Ap     4.930649  
      32Ap     5.197892    14App    5.713903    33Ap     6.210310  
      15App    6.526418    16App    6.539908    34Ap     6.622561  
      17App    6.640234    35Ap     6.687701    36Ap     6.778432  
      18App    6.877557    37Ap     7.062433    38Ap     7.395178  
      39Ap     7.861457    40Ap    12.302411  

    Final Occupation by Irrep:
             Ap   App 
    DOCC [     4,    1 ]

  @DF-RKS Final Energy:   -76.42603802765301

   => Energetics <=

    Nuclear Repulsion Energy =              9.1688218790436959
    One-Electron Energy =                -123.0662903997035897
    Two-Electron Energy =                  44.0949223501836940
    DFT Exchange-Correlation Energy =      -6.6660915600522568
    Empirical Dispersion Energy =           0.0000000000000000
    VV10 Nonlocal Energy =                  0.0425997028754581
    Total Energy =                        -76.4260380276529929

Computation Completed


Properties will be evaluated at   0.000000,   0.000000,   0.000000 [a0]

Properties computed using the SCF density matrix

  Nuclear Dipole Moment: [e a0]
     X:     0.0000      Y:     0.0027      Z:     0.9807

  Electronic Dipole Moment: [e a0]
     X:     0.0000      Y:    -0.0016      Z:    -0.2279

  Dipole Moment: [e a0]
     X:     0.0000      Y:     0.0010      Z:     0.7528     Total:     0.7528

  Dipole Moment: [D]
     X:     0.0000      Y:     0.0026      Z:     1.9135     Total:     1.9135


*** tstop() called on bp1-compute00113.data.bp.acrc.priv at Tue Apr 27 17:46:13 2021
Module time:
	user time   =      67.30 seconds =       1.12 minutes
	system time =       2.00 seconds =       0.03 minutes
	total time  =          2 seconds =       0.03 minutes
Total time:
	user time   =    1616.14 seconds =      26.94 minutes
	system time =      52.32 seconds =       0.87 minutes
	total time  =         70 seconds =       1.17 minutes

         ----------------------------------------------------------
                                   FINDIF
                     R. A. King and Jonathon Misiewicz
         ---------------------------------------------------------

  Computing second-derivative from energies using projected, 
  symmetry-adapted, cartesian coordinates.

  8 energies passed in, including the reference geometry.
    Using 3-point formula.
    Energy without displacement:  -76.4260453462
    Check energies below for precision!
    0: -1        :       -76.4260422642
    0: 1         :       -76.4260420138
    1: -1        :       -76.4260403201
    1: 1         :       -76.4260403384
    0: 1, 1: 1   :       -76.4260423777
    0: -1, 1: -1 :       -76.4260426299
    2: -1        :       -76.4260380277

-------------------------------------------------------------


  ==> Harmonic Vibrational Analysis <==

  non-mass-weighted Hessian:       Symmetric? True   Hermitian? True   Lin Dep Dim?  6 (0)
  projection of translations (True) and rotations (True) removed 6 degrees of freedom (6)
  total projector:                 Symmetric? True   Hermitian? True   Lin Dep Dim?  6 (6)
  mass-weighted Hessian:           Symmetric? True   Hermitian? True   Lin Dep Dim?  6 (0)
  pre-proj  low-frequency mode:    0.0000i [cm^-1]
  pre-proj  low-frequency mode:    0.0000  [cm^-1]
  pre-proj  low-frequency mode:    0.0000  [cm^-1]
  pre-proj  low-frequency mode:    0.0000  [cm^-1]
  pre-proj  low-frequency mode:    0.0000  [cm^-1]
  pre-proj  low-frequency mode:    0.0001  [cm^-1]
  pre-proj  all modes:['0.0000i' '0.0000' '0.0000' '0.0000' '0.0000' '0.0001' '1640.5560'
 '3833.3184' '3933.3497']
  projected mass-weighted Hessian: Symmetric? True   Hermitian? True   Lin Dep Dim?  6 (6)
  post-proj low-frequency mode:    0.0001i [cm^-1] (TR)
  post-proj low-frequency mode:    0.0001i [cm^-1] (TR)
  post-proj low-frequency mode:    0.0000i [cm^-1] (TR)
  post-proj low-frequency mode:    0.0000i [cm^-1] (TR)
  post-proj low-frequency mode:    0.0000  [cm^-1] (TR)
  post-proj low-frequency mode:    0.0001  [cm^-1] (TR)
  post-proj  all modes:['0.0001i' '0.0001i' '0.0000i' '0.0000i' '0.0000' '0.0001' '1640.5560'
 '3833.3184' '3933.3497']

  Vibration                       7                   8                   9           
  Freq [cm^-1]                1640.5560           3833.3184           3933.3497       
  Irrep                           A1                  A1                  B2          
  Reduced mass [u]              1.0827              1.0452              1.0816        
  Force const [mDyne/A]         1.7169              9.0486              9.8596        
  Turning point v=0 [a0]        0.2604              0.1734              0.1682        
  RMS dev v=0 [a0 u^1/2]        0.1916              0.1253              0.1237        
  Char temp [K]               2360.3948           5515.2916           5659.2145       
  ----------------------------------------------------------------------------------
      1   O               -0.00 -0.00 -0.07    0.00 -0.00 -0.05    0.00 -0.07  0.00   
      2   H               -0.00 -0.43  0.56   -0.00  0.58  0.40   -0.00  0.56  0.43   
      3   H                0.00  0.43  0.56    0.00 -0.58  0.40    0.00  0.56 -0.43   

  ==> Thermochemistry Components <==

  Entropy, S
    Electronic S            0.000 [cal/(mol K)]        0.000 [J/(mol K)]       0.00000000 [mEh/K] (multiplicity = 1)
    Translational S        34.608 [cal/(mol K)]      144.801 [J/(mol K)]       0.05515177 [mEh/K] (mol. weight = 18.0106 [u], P = 101325.00 [Pa])
    Rotational S           10.465 [cal/(mol K)]       43.786 [J/(mol K)]       0.01667711 [mEh/K] (symmetry no. = 2)
    Vibrational S           0.006 [cal/(mol K)]        0.027 [J/(mol K)]       0.00001030 [mEh/K]
  Total S                  45.080 [cal/(mol K)]      188.614 [J/(mol K)]       0.07183918 [mEh/K]
  Correction S              0.000 [cal/(mol K)]        0.000 [J/(mol K)]       0.00000000 [mEh/K]

  Constant volume heat capacity, Cv
    Electronic Cv           0.000 [cal/(mol K)]        0.000 [J/(mol K)]       0.00000000 [mEh/K]
    Translational Cv        2.981 [cal/(mol K)]       12.472 [J/(mol K)]       0.00475022 [mEh/K]
    Rotational Cv           2.981 [cal/(mol K)]       12.472 [J/(mol K)]       0.00475022 [mEh/K]
    Vibrational Cv          0.045 [cal/(mol K)]        0.190 [J/(mol K)]       0.00007243 [mEh/K]
  Total Cv                  6.007 [cal/(mol K)]       25.134 [J/(mol K)]       0.00957286 [mEh/K]
  Correction Cv             0.000 [cal/(mol K)]        0.000 [J/(mol K)]       0.00000000 [mEh/K]

  Constant pressure heat capacity, Cp
    Electronic Cp           0.000 [cal/(mol K)]        0.000 [J/(mol K)]       0.00000000 [mEh/K]
    Translational Cp        4.968 [cal/(mol K)]       20.786 [J/(mol K)]       0.00791703 [mEh/K]
    Rotational Cp           2.981 [cal/(mol K)]       12.472 [J/(mol K)]       0.00475022 [mEh/K]
    Vibrational Cp          0.045 [cal/(mol K)]        0.190 [J/(mol K)]       0.00007243 [mEh/K]
  Total Cp                  7.994 [cal/(mol K)]       33.448 [J/(mol K)]       0.01273967 [mEh/K]
  Correction Cp             0.000 [cal/(mol K)]        0.000 [J/(mol K)]       0.00000000 [mEh/K]

  ==> Thermochemistry Energy Analysis <==

  Raw electronic energy, E0
  Total E0, Electronic energy at well bottom at 0 [K]                  -76.42604535 [Eh]

  Zero-point energy, ZPE_vib = Sum_i nu_i / 2
    Electronic ZPE          0.000 [kcal/mol]        0.000 [kJ/mol]       0.00000000 [Eh]
    Translational ZPE       0.000 [kcal/mol]        0.000 [kJ/mol]       0.00000000 [Eh]
    Rotational ZPE          0.000 [kcal/mol]        0.000 [kJ/mol]       0.00000000 [Eh]
    Vibrational ZPE        13.448 [kcal/mol]       56.268 [kJ/mol]       0.02143123 [Eh]        4703.612 [cm^-1]
  Correction ZPE           13.448 [kcal/mol]       56.268 [kJ/mol]       0.02143123 [Eh]        4703.612 [cm^-1]
  Total ZPE, Electronic energy at 0 [K]                                -76.40461411 [Eh]

  Thermal Energy, E (includes ZPE)
    Electronic E            0.000 [kcal/mol]        0.000 [kJ/mol]       0.00000000 [Eh]
    Translational E         0.889 [kcal/mol]        3.718 [kJ/mol]       0.00141628 [Eh]
    Rotational E            0.889 [kcal/mol]        3.718 [kJ/mol]       0.00141628 [Eh]
    Vibrational E          13.450 [kcal/mol]       56.275 [kJ/mol]       0.02143396 [Eh]
  Correction E             15.227 [kcal/mol]       63.712 [kJ/mol]       0.02426651 [Eh]
  Total E, Electronic energy at  298.15 [K]                            -76.40177883 [Eh]

  Enthalpy, H_trans = E_trans + k_B * T
    Electronic H            0.000 [kcal/mol]        0.000 [kJ/mol]       0.00000000 [Eh]
    Translational H         1.481 [kcal/mol]        6.197 [kJ/mol]       0.00236046 [Eh]
    Rotational H            0.889 [kcal/mol]        3.718 [kJ/mol]       0.00141628 [Eh]
    Vibrational H          13.450 [kcal/mol]       56.275 [kJ/mol]       0.02143396 [Eh]
  Correction H             15.820 [kcal/mol]       66.191 [kJ/mol]       0.02521070 [Eh]
  Total H, Enthalpy at  298.15 [K]                                     -76.40083465 [Eh]

  Gibbs free energy, G = H - T * S
    Electronic G            0.000 [kcal/mol]        0.000 [kJ/mol]       0.00000000 [Eh]
    Translational G        -8.837 [kcal/mol]      -36.975 [kJ/mol]      -0.01408304 [Eh]
    Rotational G           -2.231 [kcal/mol]       -9.336 [kJ/mol]      -0.00355600 [Eh]
    Vibrational G          13.448 [kcal/mol]       56.267 [kJ/mol]       0.02143089 [Eh]
  Correction G              2.379 [kcal/mol]        9.955 [kJ/mol]       0.00379184 [Eh]
  Total G, Free enthalpy at  298.15 [K]                                -76.42225350 [Eh]

    Psi4 stopped on: Tuesday, 27 April 2021 05:46PM
    Psi4 wall time for execution: 0:01:10.61

*** Psi4 exiting successfully. Buy a developer a beer!
