
    -----------------------------------------------------------------------
          Psi4: An Open-Source Ab Initio Electronic Structure Package
                               Psi4 1.3.2 release

                         Git: Rev {HEAD} ecbda83 


    R. M. Parrish, L. A. Burns, D. G. A. Smith, A. C. Simmonett,
    A. E. DePrince III, E. G. Hohenstein, U. Bozkaya, A. Yu. Sokolov,
    R. Di Remigio, R. M. Richard, J. F. Gonthier, A. M. James,
    H. R. McAlexander, A. Kumar, M. Saitow, X. Wang, B. P. Pritchard,
    P. Verma, H. F. Schaefer III, K. Patkowski, R. A. King, E. F. Valeev,
    F. A. Evangelista, J. M. Turney, T. D. Crawford, and C. D. Sherrill,
    J. Chem. Theory Comput. 13(7) pp 3185--3197 (2017).
    (doi: 10.1021/acs.jctc.7b00174)


                         Additional Contributions by
    P. Kraus, H. Kruse, M. H. Lechner, M. C. Schieber, R. A. Shaw,
    A. Alenaizan, R. Galvelis, Z. L. Glick, S. Lehtola, and J. P. Misiewicz

    -----------------------------------------------------------------------


    Psi4 started on: Tuesday, 27 April 2021 05:45PM

    Process ID: 187251
    Host:       bp1-compute00116.data.bp.acrc.priv
    PSIDATADIR: /work/zw18965/.conda/envs/p4env/share/psi4
    Memory:     500.0 MiB
    Threads:    24
    
  ==> Input File <==

--------------------------------------------------------------------------
memory 144 GB

molecule {
0 1
H 0.0000000000 0.0000000000 0.0000000000
C 0.0000000000 0.0000000000 1.0668000000
N 0.0000000000 0.0000000000 2.2232000000
}

set dynamic_level 1
set basis cc-pV(T+d)Z
 
optimize("wB97M-V")
frequencies("wB97M-V")
--------------------------------------------------------------------------

  Memory set to 134.110 GiB by Python driver.
gradient() will perform gradient computation by finite difference of analytic energies.

         ----------------------------------------------------------
                                   FINDIF
                     R. A. King and Jonathon Misiewicz
         ---------------------------------------------------------

  Using finite-differences of energies to determine gradients.
    Generating geometries for use with 3-point formula.
    Displacement size will be 5.00e-03.
    Number of atoms is 3.
    Number of symmetric SALCs is 2.
    Translations projected? 1. Rotations projected? 1.
    Number of geometries (including reference) is 5.

  //>>>>>>>>>>>>>>>>>>>>>>>>>>>>>>>>>>>//
  //    Loading displacement 1 of 5    //
  //<<<<<<<<<<<<<<<<<<<<<<<<<<<<<<<<<<<//

*** tstart() called on bp1-compute00116.data.bp.acrc.priv
*** at Tue Apr 27 17:45:37 2021

   => Loading Basis Set <=

    Name: CC-PV(T+D)Z
    Role: ORBITAL
    Keyword: BASIS
    atoms 1 entry H          line    32 file /work/zw18965/.conda/envs/p4env/share/psi4/basis/cc-pv_tpd_z.gbs 
    atoms 2 entry C          line   195 file /work/zw18965/.conda/envs/p4env/share/psi4/basis/cc-pv_tpd_z.gbs 
    atoms 3 entry N          line   233 file /work/zw18965/.conda/envs/p4env/share/psi4/basis/cc-pv_tpd_z.gbs 


         ---------------------------------------------------------
                                   SCF
               by Justin Turney, Rob Parrish, Andy Simmonett
                          and Daniel G. A. Smith
                              RKS Reference
                       24 Threads, 137329 MiB Core
         ---------------------------------------------------------

  ==> Geometry <==

    Molecular point group: c2v
    Full point group: C_inf_v

    Geometry (in Angstrom), charge = 0, multiplicity = 1:

       Center              X                  Y                   Z               Mass       
    ------------   -----------------  -----------------  -----------------  -----------------
         H            0.000000000000     0.000000000000    -1.626500253361     1.007825032230
         C            0.000000000000     0.000000000000    -0.559700253361    12.000000000000
         N            0.000000000000     0.000000000000     0.596699746639    14.003074004430

  Running in c2v symmetry.

  Rotational constants: A = ************  B =      1.47729  C =      1.47729 [cm^-1]
  Rotational constants: A = ************  B =  44288.06083  C =  44288.06083 [MHz]
  Nuclear repulsion =   23.861936158778459

  Charge       = 0
  Multiplicity = 1
  Electrons    = 14
  Nalpha       = 7
  Nbeta        = 7

  ==> Algorithm <==

  SCF Algorithm Type is DF.
  DIIS enabled.
  MOM disabled.
  Fractional occupation disabled.
  Guess Type is SAD.
  Energy threshold   = 1.00e-08
  Density threshold  = 1.00e-08
  Integral threshold = 0.00e+00

  ==> Primary Basis <==

  Basis Set: CC-PV(T+D)Z
    Blend: CC-PV(T+D)Z
    Number of shells: 26
    Number of basis function: 74
    Number of Cartesian functions: 85
    Spherical Harmonics?: true
    Max angular momentum: 3

  ==> DFT Potential <==

   => Composite Functional: WB97M-V <= 

    wB97M-V Hyb-GGA Exchange-Correlation Functional

    N. Mardirossian and M. Head-Gordon, J. Chem. Phys. 144, 214110 (2016)

    Deriv               =              1
    GGA                 =           TRUE
    Meta                =           TRUE

    Exchange Hybrid     =           TRUE
    MP2 Hybrid          =          FALSE

   => Exchange-Correlation Functionals <=

    1.0000   wB97M-V exchange-correlation functional

   => Exact (HF) Exchange <=

    0.8500            HF,LR [omega = 0.3000]
    0.1500               HF 

   => VV10 Non-Local Parameters <=

    VV10 B              =     6.0000E+00
    VV10 C              =     1.0000E-02

   => Molecular Quadrature <=

    Radial Scheme          =       TREUTLER
    Pruning Scheme         =           FLAT
    Nuclear Scheme         =       TREUTLER

    BS radius alpha        =              1
    Pruning alpha          =              1
    Radial Points          =             75
    Spherical Points       =            302
    Total Points           =          66073
    Total Blocks           =            565
    Max Points             =            256
    Max Functions          =             74

   => Loading Basis Set <=

    Name: (CC-PV(T+D)Z AUX)
    Role: JKFIT
    Keyword: DF_BASIS_SCF
    atoms 1 entry H          line    51 file /work/zw18965/.conda/envs/p4env/share/psi4/basis/cc-pvtz-jkfit.gbs 
    atoms 2 entry C          line   125 file /work/zw18965/.conda/envs/p4env/share/psi4/basis/cc-pvtz-jkfit.gbs 
    atoms 3 entry N          line   177 file /work/zw18965/.conda/envs/p4env/share/psi4/basis/cc-pvtz-jkfit.gbs 

  ==> Pre-Iterations <==

   -------------------------------------------------------
    Irrep   Nso     Nmo     Nalpha   Nbeta   Ndocc  Nsocc
   -------------------------------------------------------
     A1        33      33       0       0       0       0
     A2         7       7       0       0       0       0
     B1        17      17       0       0       0       0
     B2        17      17       0       0       0       0
   -------------------------------------------------------
    Total      74      74       7       7       7       0
   -------------------------------------------------------

  ==> Integral Setup <==

  ==> DiskDFJK: Density-Fitted J/K Matrices <==

    J tasked:                  Yes
    K tasked:                  Yes
    wK tasked:                 Yes
    Omega:               3.000E-01
    OpenMP threads:             24
    Integrals threads:          24
    Memory [MiB]:           102658
    Algorithm:                Core
    Integral Cache:           NONE
    Schwarz Cutoff:          1E-12
    Fitting Condition:       1E-10

   => Auxiliary Basis Set <=

  Basis Set: (CC-PV(T+D)Z AUX)
    Blend: CC-PVTZ-JKFIT
    Number of shells: 60
    Number of basis function: 188
    Number of Cartesian functions: 227
    Spherical Harmonics?: true
    Max angular momentum: 4

  Cached 100.0% of DFT collocation blocks in 0.330 [GiB].

  Minimum eigenvalue in the overlap matrix is 1.0740178359E-03.
  Using Symmetric Orthogonalization.

  SCF Guess: Superposition of Atomic Densities via on-the-fly atomic UHF.

  ==> Iterations <==

                           Total Energy        Delta E     RMS |[F,P]|

   @DF-RKS iter SAD:   -92.61306293021778   -9.26131e+01   0.00000e+00 
   @DF-RKS iter   1:   -93.34570989446038   -7.32647e-01   1.07796e-02 DIIS
   @DF-RKS iter   2:   -93.30974337211990    3.59665e-02   1.28919e-02 DIIS
   @DF-RKS iter   3:   -93.42572282929616   -1.15979e-01   1.94144e-03 DIIS
   @DF-RKS iter   4:   -93.42849811853375   -2.77529e-03   2.42242e-04 DIIS
   @DF-RKS iter   5:   -93.42853808030603   -3.99618e-05   3.80983e-05 DIIS
   @DF-RKS iter   6:   -93.42853939525399   -1.31495e-06   7.69601e-06 DIIS
   @DF-RKS iter   7:   -93.42853947700759   -8.17536e-08   8.18825e-07 DIIS
   @DF-RKS iter   8:   -93.42853947853997   -1.53238e-09   7.71594e-08 DIIS
   @DF-RKS iter   9:   -93.42853947855127   -1.12976e-11   1.45952e-08 DIIS
   @DF-RKS iter  10:   -93.42853947855150   -2.27374e-13   1.43872e-09 DIIS
  Energy and wave function converged.


  ==> Post-Iterations <==

    Orbital Energies [Eh]
    ---------------------

    Doubly Occupied:                                                      

       1A1   -14.531747     2A1   -10.398717     3A1    -1.047094  
       4A1    -0.719021     5A1    -0.495817     1B2    -0.466663  
       1B1    -0.466663  

    Virtual:                                                              

       2B1     0.098898     2B2     0.098898     6A1     0.104132  
       7A1     0.195529     3B2     0.374468     3B1     0.374468  
       8A1     0.418163     9A1     0.474017    10A1     0.555845  
       4B1     0.614005     4B2     0.614005    11A1     0.720126  
       1A2     0.720127     5B1     0.769778     5B2     0.769778  
      12A1     0.851726    13A1     1.053409     6B1     1.255586  
       6B2     1.255586     2A2     1.280148    14A1     1.280148  
      15A1     1.467574    16A1     1.585006     7B2     1.757540  
       7B1     1.757540    17A1     1.872599     8B2     2.105911  
       8B1     2.105911    18A1     2.258774    19A1     2.616109  
      20A1     2.708698     3A2     2.708699     9B1     2.725981  
       9B2     2.725981    10B2     2.787559    10B1     2.787559  
       4A2     2.992240    21A1     2.992241    11B2     3.155660  
      11B1     3.155660    22A1     3.180991    12B2     3.307980  
      12B1     3.307980    23A1     3.605904     5A2     3.605909  
      24A1     3.758702    13B2     4.050221    13B1     4.050221  
      14B1     4.069048    14B2     4.069048    25A1     4.089801  
      26A1     4.597953     6A2     4.597960    15B2     4.639390  
      15B1     4.639390     7A2     4.743842    27A1     4.743849  
      28A1     4.756997    29A1     5.112343    16B2     5.338156  
      16B1     5.338156    30A1     5.763267    17B2     6.278212  
      17B1     6.278212    31A1     6.452025    32A1     8.286904  
      33A1    14.629162  

    Final Occupation by Irrep:
             A1    A2    B1    B2 
    DOCC [     5,    0,    1,    1 ]

  @DF-RKS Final Energy:   -93.42853947855150

   => Energetics <=

    Nuclear Repulsion Energy =             23.8619361587784589
    One-Electron Energy =                -172.7234296456977063
    Two-Electron Energy =                  64.3332269159880212
    DFT Exchange-Correlation Energy =      -8.9586444016445199
    Empirical Dispersion Energy =           0.0000000000000000
    VV10 Nonlocal Energy =                  0.0583714940242397
    Total Energy =                        -93.4285394785514995

Computation Completed


Properties will be evaluated at   0.000000,   0.000000,   0.000000 [a0]

Properties computed using the SCF density matrix

  Nuclear Dipole Moment: [e a0]
     X:     0.0000      Y:     0.0000      Z:    -1.5265

  Electronic Dipole Moment: [e a0]
     X:     0.0000      Y:     0.0000      Z:     0.3500

  Dipole Moment: [e a0]
     X:     0.0000      Y:     0.0000      Z:    -1.1765     Total:     1.1765

  Dipole Moment: [D]
     X:     0.0000      Y:     0.0000      Z:    -2.9904     Total:     2.9904


*** tstop() called on bp1-compute00116.data.bp.acrc.priv at Tue Apr 27 17:45:40 2021
Module time:
	user time   =      71.66 seconds =       1.19 minutes
	system time =       3.56 seconds =       0.06 minutes
	total time  =          3 seconds =       0.05 minutes
Total time:
	user time   =      71.66 seconds =       1.19 minutes
	system time =       3.56 seconds =       0.06 minutes
	total time  =          3 seconds =       0.05 minutes

  //>>>>>>>>>>>>>>>>>>>>>>>>>>>>>>>>>>>//
  //    Loading displacement 2 of 5    //
  //<<<<<<<<<<<<<<<<<<<<<<<<<<<<<<<<<<<//

*** tstart() called on bp1-compute00116.data.bp.acrc.priv
*** at Tue Apr 27 17:45:40 2021

   => Loading Basis Set <=

    Name: CC-PV(T+D)Z
    Role: ORBITAL
    Keyword: BASIS
    atoms 1 entry H          line    32 file /work/zw18965/.conda/envs/p4env/share/psi4/basis/cc-pv_tpd_z.gbs 
    atoms 2 entry C          line   195 file /work/zw18965/.conda/envs/p4env/share/psi4/basis/cc-pv_tpd_z.gbs 
    atoms 3 entry N          line   233 file /work/zw18965/.conda/envs/p4env/share/psi4/basis/cc-pv_tpd_z.gbs 


         ---------------------------------------------------------
                                   SCF
               by Justin Turney, Rob Parrish, Andy Simmonett
                          and Daniel G. A. Smith
                              RKS Reference
                       24 Threads, 137329 MiB Core
         ---------------------------------------------------------

  ==> Geometry <==

    Molecular point group: c2v
    Full point group: C_inf_v

    Geometry (in Angstrom), charge = 0, multiplicity = 1:

       Center              X                  Y                   Z               Mass       
    ------------   -----------------  -----------------  -----------------  -----------------
         H            0.000000000000     0.000000000000    -1.629086210919     1.007825032230
         C            0.000000000000     0.000000000000    -0.559600027028    12.000000000000
         N            0.000000000000     0.000000000000     0.596799972972    14.003074004430

  Running in c2v symmetry.

  Rotational constants: A = ************  B =      1.47615  C =      1.47615 [cm^-1]
  Rotational constants: A = ************  B =  44253.88092  C =  44253.88092 [MHz]
  Nuclear repulsion =   23.852450107742836

  Charge       = 0
  Multiplicity = 1
  Electrons    = 14
  Nalpha       = 7
  Nbeta        = 7

  ==> Algorithm <==

  SCF Algorithm Type is DF.
  DIIS enabled.
  MOM disabled.
  Fractional occupation disabled.
  Guess Type is SAD.
  Energy threshold   = 1.00e-08
  Density threshold  = 1.00e-08
  Integral threshold = 0.00e+00

  ==> Primary Basis <==

  Basis Set: CC-PV(T+D)Z
    Blend: CC-PV(T+D)Z
    Number of shells: 26
    Number of basis function: 74
    Number of Cartesian functions: 85
    Spherical Harmonics?: true
    Max angular momentum: 3

  ==> DFT Potential <==

   => Composite Functional: WB97M-V <= 

    wB97M-V Hyb-GGA Exchange-Correlation Functional

    N. Mardirossian and M. Head-Gordon, J. Chem. Phys. 144, 214110 (2016)

    Deriv               =              1
    GGA                 =           TRUE
    Meta                =           TRUE

    Exchange Hybrid     =           TRUE
    MP2 Hybrid          =          FALSE

   => Exchange-Correlation Functionals <=

    1.0000   wB97M-V exchange-correlation functional

   => Exact (HF) Exchange <=

    0.8500            HF,LR [omega = 0.3000]
    0.1500               HF 

   => VV10 Non-Local Parameters <=

    VV10 B              =     6.0000E+00
    VV10 C              =     1.0000E-02

   => Molecular Quadrature <=

    Radial Scheme          =       TREUTLER
    Pruning Scheme         =           FLAT
    Nuclear Scheme         =       TREUTLER

    BS radius alpha        =              1
    Pruning alpha          =              1
    Radial Points          =             75
    Spherical Points       =            302
    Total Points           =          66073
    Total Blocks           =            566
    Max Points             =            256
    Max Functions          =             74

   => Loading Basis Set <=

    Name: (CC-PV(T+D)Z AUX)
    Role: JKFIT
    Keyword: DF_BASIS_SCF
    atoms 1 entry H          line    51 file /work/zw18965/.conda/envs/p4env/share/psi4/basis/cc-pvtz-jkfit.gbs 
    atoms 2 entry C          line   125 file /work/zw18965/.conda/envs/p4env/share/psi4/basis/cc-pvtz-jkfit.gbs 
    atoms 3 entry N          line   177 file /work/zw18965/.conda/envs/p4env/share/psi4/basis/cc-pvtz-jkfit.gbs 

  ==> Pre-Iterations <==

   -------------------------------------------------------
    Irrep   Nso     Nmo     Nalpha   Nbeta   Ndocc  Nsocc
   -------------------------------------------------------
     A1        33      33       0       0       0       0
     A2         7       7       0       0       0       0
     B1        17      17       0       0       0       0
     B2        17      17       0       0       0       0
   -------------------------------------------------------
    Total      74      74       7       7       7       0
   -------------------------------------------------------

  ==> Integral Setup <==

  ==> DiskDFJK: Density-Fitted J/K Matrices <==

    J tasked:                  Yes
    K tasked:                  Yes
    wK tasked:                 Yes
    Omega:               3.000E-01
    OpenMP threads:             24
    Integrals threads:          24
    Memory [MiB]:           102658
    Algorithm:                Core
    Integral Cache:           NONE
    Schwarz Cutoff:          1E-12
    Fitting Condition:       1E-10

   => Auxiliary Basis Set <=

  Basis Set: (CC-PV(T+D)Z AUX)
    Blend: CC-PVTZ-JKFIT
    Number of shells: 60
    Number of basis function: 188
    Number of Cartesian functions: 227
    Spherical Harmonics?: true
    Max angular momentum: 4

  Cached 100.0% of DFT collocation blocks in 0.330 [GiB].

  Minimum eigenvalue in the overlap matrix is 1.0793001298E-03.
  Using Symmetric Orthogonalization.

  SCF Guess: Superposition of Atomic Densities via on-the-fly atomic UHF.

  ==> Iterations <==

                           Total Energy        Delta E     RMS |[F,P]|

   @DF-RKS iter SAD:   -92.61251946300315   -9.26125e+01   0.00000e+00 
   @DF-RKS iter   1:   -93.34539509842530   -7.32876e-01   1.07975e-02 DIIS
   @DF-RKS iter   2:   -93.30901111145948    3.63840e-02   1.29287e-02 DIIS
   @DF-RKS iter   3:   -93.42571576752997   -1.16705e-01   1.93911e-03 DIIS
   @DF-RKS iter   4:   -93.42848564594743   -2.76988e-03   2.42697e-04 DIIS
   @DF-RKS iter   5:   -93.42852577313613   -4.01272e-05   3.81877e-05 DIIS
   @DF-RKS iter   6:   -93.42852709540352   -1.32227e-06   7.72877e-06 DIIS
   @DF-RKS iter   7:   -93.42852717791905   -8.25155e-08   8.22775e-07 DIIS
   @DF-RKS iter   8:   -93.42852717947012   -1.55107e-09   7.72072e-08 DIIS
   @DF-RKS iter   9:   -93.42852717948138   -1.12550e-11   1.47139e-08 DIIS
   @DF-RKS iter  10:   -93.42852717948168   -2.98428e-13   1.44940e-09 DIIS
  Energy and wave function converged.


  ==> Post-Iterations <==

    Orbital Energies [Eh]
    ---------------------

    Doubly Occupied:                                                      

       1A1   -14.531700     2A1   -10.398902     3A1    -1.047060  
       4A1    -0.718213     5A1    -0.495757     1B1    -0.466620  
       1B2    -0.466620  

    Virtual:                                                              

       2B2     0.098947     2B1     0.098947     6A1     0.103769  
       7A1     0.195424     3B2     0.374505     3B1     0.374505  
       8A1     0.418193     9A1     0.473345    10A1     0.555885  
       4B2     0.614039     4B1     0.614039    11A1     0.720172  
       1A2     0.720172     5B1     0.769195     5B2     0.769195  
      12A1     0.851315    13A1     1.053646     6B1     1.254834  
       6B2     1.254834     2A2     1.280187    14A1     1.280188  
      15A1     1.465898    16A1     1.585300     7B2     1.757084  
       7B1     1.757084    17A1     1.872642     8B2     2.106036  
       8B1     2.106036    18A1     2.258535    19A1     2.615855  
      20A1     2.708382     3A2     2.708384     9B1     2.726017  
       9B2     2.726017    10B2     2.787518    10B1     2.787518  
       4A2     2.992649    21A1     2.992650    11B2     3.154985  
      11B1     3.154985    22A1     3.177925    12B2     3.308530  
      12B1     3.308530    23A1     3.603157     5A2     3.603161  
      24A1     3.756533    13B1     4.050265    13B2     4.050265  
      14B1     4.066408    14B2     4.066408    25A1     4.085605  
      26A1     4.597615     6A2     4.597621    15B2     4.635293  
      15B1     4.635293     7A2     4.742810    27A1     4.742817  
      28A1     4.752653    29A1     5.110014    16B2     5.334369  
      16B1     5.334369    30A1     5.759084    17B2     6.275794  
      17B1     6.275794    31A1     6.448314    32A1     8.262322  
      33A1    14.620876  

    Final Occupation by Irrep:
             A1    A2    B1    B2 
    DOCC [     5,    0,    1,    1 ]

  @DF-RKS Final Energy:   -93.42852717948168

   => Energetics <=

    Nuclear Repulsion Energy =             23.8524501077428361
    One-Electron Energy =                -172.7066093765280925
    Two-Electron Energy =                  64.3251182750703521
    DFT Exchange-Correlation Energy =      -8.9578564156092249
    Empirical Dispersion Energy =           0.0000000000000000
    VV10 Nonlocal Energy =                  0.0583702298424477
    Total Energy =                        -93.4285271794816765

Computation Completed


Properties will be evaluated at   0.000000,   0.000000,   0.000000 [a0]

Properties computed using the SCF density matrix

  Nuclear Dipole Moment: [e a0]
     X:     0.0000      Y:     0.0000      Z:    -1.5290

  Electronic Dipole Moment: [e a0]
     X:     0.0000      Y:     0.0000      Z:     0.3512

  Dipole Moment: [e a0]
     X:     0.0000      Y:     0.0000      Z:    -1.1778     Total:     1.1778

  Dipole Moment: [D]
     X:     0.0000      Y:     0.0000      Z:    -2.9936     Total:     2.9936


*** tstop() called on bp1-compute00116.data.bp.acrc.priv at Tue Apr 27 17:45:43 2021
Module time:
	user time   =      73.83 seconds =       1.23 minutes
	system time =       3.15 seconds =       0.05 minutes
	total time  =          3 seconds =       0.05 minutes
Total time:
	user time   =     145.62 seconds =       2.43 minutes
	system time =       6.71 seconds =       0.11 minutes
	total time  =          6 seconds =       0.10 minutes

  //>>>>>>>>>>>>>>>>>>>>>>>>>>>>>>>>>>>//
  //    Loading displacement 3 of 5    //
  //<<<<<<<<<<<<<<<<<<<<<<<<<<<<<<<<<<<//

*** tstart() called on bp1-compute00116.data.bp.acrc.priv
*** at Tue Apr 27 17:45:43 2021

   => Loading Basis Set <=

    Name: CC-PV(T+D)Z
    Role: ORBITAL
    Keyword: BASIS
    atoms 1 entry H          line    32 file /work/zw18965/.conda/envs/p4env/share/psi4/basis/cc-pv_tpd_z.gbs 
    atoms 2 entry C          line   195 file /work/zw18965/.conda/envs/p4env/share/psi4/basis/cc-pv_tpd_z.gbs 
    atoms 3 entry N          line   233 file /work/zw18965/.conda/envs/p4env/share/psi4/basis/cc-pv_tpd_z.gbs 


         ---------------------------------------------------------
                                   SCF
               by Justin Turney, Rob Parrish, Andy Simmonett
                          and Daniel G. A. Smith
                              RKS Reference
                       24 Threads, 137329 MiB Core
         ---------------------------------------------------------

  ==> Geometry <==

    Molecular point group: c2v
    Full point group: C_inf_v

    Geometry (in Angstrom), charge = 0, multiplicity = 1:

       Center              X                  Y                   Z               Mass       
    ------------   -----------------  -----------------  -----------------  -----------------
         H            0.000000000000     0.000000000000    -1.623914295803     1.007825032230
         C            0.000000000000     0.000000000000    -0.559800479695    12.000000000000
         N            0.000000000000     0.000000000000     0.596599520305    14.003074004430

  Running in c2v symmetry.

  Rotational constants: A = ************  B =      1.47843  C =      1.47843 [cm^-1]
  Rotational constants: A = ************  B =  44322.23916  C =  44322.23916 [MHz]
  Nuclear repulsion =   23.871464815116820

  Charge       = 0
  Multiplicity = 1
  Electrons    = 14
  Nalpha       = 7
  Nbeta        = 7

  ==> Algorithm <==

  SCF Algorithm Type is DF.
  DIIS enabled.
  MOM disabled.
  Fractional occupation disabled.
  Guess Type is SAD.
  Energy threshold   = 1.00e-08
  Density threshold  = 1.00e-08
  Integral threshold = 0.00e+00

  ==> Primary Basis <==

  Basis Set: CC-PV(T+D)Z
    Blend: CC-PV(T+D)Z
    Number of shells: 26
    Number of basis function: 74
    Number of Cartesian functions: 85
    Spherical Harmonics?: true
    Max angular momentum: 3

  ==> DFT Potential <==

   => Composite Functional: WB97M-V <= 

    wB97M-V Hyb-GGA Exchange-Correlation Functional

    N. Mardirossian and M. Head-Gordon, J. Chem. Phys. 144, 214110 (2016)

    Deriv               =              1
    GGA                 =           TRUE
    Meta                =           TRUE

    Exchange Hybrid     =           TRUE
    MP2 Hybrid          =          FALSE

   => Exchange-Correlation Functionals <=

    1.0000   wB97M-V exchange-correlation functional

   => Exact (HF) Exchange <=

    0.8500            HF,LR [omega = 0.3000]
    0.1500               HF 

   => VV10 Non-Local Parameters <=

    VV10 B              =     6.0000E+00
    VV10 C              =     1.0000E-02

   => Molecular Quadrature <=

    Radial Scheme          =       TREUTLER
    Pruning Scheme         =           FLAT
    Nuclear Scheme         =       TREUTLER

    BS radius alpha        =              1
    Pruning alpha          =              1
    Radial Points          =             75
    Spherical Points       =            302
    Total Points           =          66073
    Total Blocks           =            567
    Max Points             =            256
    Max Functions          =             74

   => Loading Basis Set <=

    Name: (CC-PV(T+D)Z AUX)
    Role: JKFIT
    Keyword: DF_BASIS_SCF
    atoms 1 entry H          line    51 file /work/zw18965/.conda/envs/p4env/share/psi4/basis/cc-pvtz-jkfit.gbs 
    atoms 2 entry C          line   125 file /work/zw18965/.conda/envs/p4env/share/psi4/basis/cc-pvtz-jkfit.gbs 
    atoms 3 entry N          line   177 file /work/zw18965/.conda/envs/p4env/share/psi4/basis/cc-pvtz-jkfit.gbs 

  ==> Pre-Iterations <==

   -------------------------------------------------------
    Irrep   Nso     Nmo     Nalpha   Nbeta   Ndocc  Nsocc
   -------------------------------------------------------
     A1        33      33       0       0       0       0
     A2         7       7       0       0       0       0
     B1        17      17       0       0       0       0
     B2        17      17       0       0       0       0
   -------------------------------------------------------
    Total      74      74       7       7       7       0
   -------------------------------------------------------

  ==> Integral Setup <==

  ==> DiskDFJK: Density-Fitted J/K Matrices <==

    J tasked:                  Yes
    K tasked:                  Yes
    wK tasked:                 Yes
    Omega:               3.000E-01
    OpenMP threads:             24
    Integrals threads:          24
    Memory [MiB]:           102658
    Algorithm:                Core
    Integral Cache:           NONE
    Schwarz Cutoff:          1E-12
    Fitting Condition:       1E-10

   => Auxiliary Basis Set <=

  Basis Set: (CC-PV(T+D)Z AUX)
    Blend: CC-PVTZ-JKFIT
    Number of shells: 60
    Number of basis function: 188
    Number of Cartesian functions: 227
    Spherical Harmonics?: true
    Max angular momentum: 4

  Cached 100.0% of DFT collocation blocks in 0.330 [GiB].

  Minimum eigenvalue in the overlap matrix is 1.0687394124E-03.
  Using Symmetric Orthogonalization.

  SCF Guess: Superposition of Atomic Densities via on-the-fly atomic UHF.

  ==> Iterations <==

                           Total Energy        Delta E     RMS |[F,P]|

   @DF-RKS iter SAD:   -92.61359867193991   -9.26136e+01   0.00000e+00 
   @DF-RKS iter   1:   -93.34601496890821   -7.32416e-01   1.07616e-02 DIIS
   @DF-RKS iter   2:   -93.31046845570695    3.55465e-02   1.28548e-02 DIIS
   @DF-RKS iter   3:   -93.42571935788285   -1.15251e-01   1.94384e-03 DIIS
   @DF-RKS iter   4:   -93.42850026673636   -2.78091e-03   2.41790e-04 DIIS
   @DF-RKS iter   5:   -93.42854006560268   -3.97989e-05   3.80089e-05 DIIS
   @DF-RKS iter   6:   -93.42854137331814   -1.30772e-06   7.66318e-06 DIIS
   @DF-RKS iter   7:   -93.42854145431915   -8.10010e-08   8.14903e-07 DIIS
   @DF-RKS iter   8:   -93.42854145583314   -1.51400e-09   7.71184e-08 DIIS
   @DF-RKS iter   9:   -93.42854145584424   -1.10987e-11   1.44776e-08 DIIS
   @DF-RKS iter  10:   -93.42854145584451   -2.70006e-13   1.42825e-09 DIIS
  Energy and wave function converged.


  ==> Post-Iterations <==

    Orbital Energies [Eh]
    ---------------------

    Doubly Occupied:                                                      

       1A1   -14.531793     2A1   -10.398531     3A1    -1.047128  
       4A1    -0.719832     5A1    -0.495877     1B1    -0.466707  
       1B2    -0.466707  

    Virtual:                                                              

       2B2     0.098850     2B1     0.098850     6A1     0.104489  
       7A1     0.195636     3B1     0.374430     3B2     0.374430  
       8A1     0.418118     9A1     0.474718    10A1     0.555806  
       4B2     0.613971     4B1     0.613971    11A1     0.720081  
       1A2     0.720081     5B1     0.770363     5B2     0.770363  
      12A1     0.852135    13A1     1.053170     6B2     1.256335  
       6B1     1.256335     2A2     1.280108    14A1     1.280108  
      15A1     1.469136    16A1     1.584903     7B2     1.757994  
       7B1     1.757994    17A1     1.872561     8B1     2.105782  
       8B2     2.105782    18A1     2.259012    19A1     2.616374  
      20A1     2.709023     3A2     2.709024     9B1     2.725946  
       9B2     2.725946    10B1     2.787604    10B2     2.787604  
       4A2     2.991828    21A1     2.991829    11B1     3.156325  
      11B2     3.156325    22A1     3.184049    12B1     3.307421  
      12B2     3.307421    23A1     3.608658     5A2     3.608662  
      24A1     3.760861    13B2     4.050177    13B1     4.050177  
      14B2     4.071694    14B1     4.071694    25A1     4.094013  
      26A1     4.598289     6A2     4.598296    15B1     4.643463  
      15B2     4.643463     7A2     4.744886    27A1     4.744893  
      28A1     4.761391    29A1     5.114695    16B2     5.341982  
      16B1     5.341982    30A1     5.767489    17B1     6.280597  
      17B2     6.280597    31A1     6.455799    32A1     8.311778  
      33A1    14.637550  

    Final Occupation by Irrep:
             A1    A2    B1    B2 
    DOCC [     5,    0,    1,    1 ]

  @DF-RKS Final Energy:   -93.42854145584451

   => Energetics <=

    Nuclear Repulsion Energy =             23.8714648151168198
    One-Electron Energy =                -172.7403085530259546
    Two-Electron Energy =                  64.3413655159021971
    DFT Exchange-Correlation Energy =      -8.9594359972579554
    Empirical Dispersion Energy =           0.0000000000000000
    VV10 Nonlocal Energy =                  0.0583727634203905
    Total Energy =                        -93.4285414558445098

Computation Completed


Properties will be evaluated at   0.000000,   0.000000,   0.000000 [a0]

Properties computed using the SCF density matrix

  Nuclear Dipole Moment: [e a0]
     X:     0.0000      Y:     0.0000      Z:    -1.5241

  Electronic Dipole Moment: [e a0]
     X:     0.0000      Y:     0.0000      Z:     0.3488

  Dipole Moment: [e a0]
     X:     0.0000      Y:     0.0000      Z:    -1.1753     Total:     1.1753

  Dipole Moment: [D]
     X:     0.0000      Y:     0.0000      Z:    -2.9872     Total:     2.9872


*** tstop() called on bp1-compute00116.data.bp.acrc.priv at Tue Apr 27 17:45:47 2021
Module time:
	user time   =      70.15 seconds =       1.17 minutes
	system time =       2.38 seconds =       0.04 minutes
	total time  =          4 seconds =       0.07 minutes
Total time:
	user time   =     215.92 seconds =       3.60 minutes
	system time =       9.10 seconds =       0.15 minutes
	total time  =         10 seconds =       0.17 minutes

  //>>>>>>>>>>>>>>>>>>>>>>>>>>>>>>>>>>>//
  //    Loading displacement 4 of 5    //
  //<<<<<<<<<<<<<<<<<<<<<<<<<<<<<<<<<<<//

*** tstart() called on bp1-compute00116.data.bp.acrc.priv
*** at Tue Apr 27 17:45:47 2021

   => Loading Basis Set <=

    Name: CC-PV(T+D)Z
    Role: ORBITAL
    Keyword: BASIS
    atoms 1 entry H          line    32 file /work/zw18965/.conda/envs/p4env/share/psi4/basis/cc-pv_tpd_z.gbs 
    atoms 2 entry C          line   195 file /work/zw18965/.conda/envs/p4env/share/psi4/basis/cc-pv_tpd_z.gbs 
    atoms 3 entry N          line   233 file /work/zw18965/.conda/envs/p4env/share/psi4/basis/cc-pv_tpd_z.gbs 


         ---------------------------------------------------------
                                   SCF
               by Justin Turney, Rob Parrish, Andy Simmonett
                          and Daniel G. A. Smith
                              RKS Reference
                       24 Threads, 137329 MiB Core
         ---------------------------------------------------------

  ==> Geometry <==

    Molecular point group: c2v
    Full point group: C_inf_v

    Geometry (in Angstrom), charge = 0, multiplicity = 1:

       Center              X                  Y                   Z               Mass       
    ------------   -----------------  -----------------  -----------------  -----------------
         H            0.000000000000     0.000000000000    -1.626500253361     1.007825032230
         C            0.000000000000     0.000000000000    -0.560260758838    12.000000000000
         N            0.000000000000     0.000000000000     0.597180074437    14.003074004430

  Running in c2v symmetry.

  Rotational constants: A = ************  B =      1.47528  C =      1.47528 [cm^-1]
  Rotational constants: A = ************  B =  44227.74118  C =  44227.74118 [MHz]
  Nuclear repulsion =   23.845857601427369

  Charge       = 0
  Multiplicity = 1
  Electrons    = 14
  Nalpha       = 7
  Nbeta        = 7

  ==> Algorithm <==

  SCF Algorithm Type is DF.
  DIIS enabled.
  MOM disabled.
  Fractional occupation disabled.
  Guess Type is SAD.
  Energy threshold   = 1.00e-08
  Density threshold  = 1.00e-08
  Integral threshold = 0.00e+00

  ==> Primary Basis <==

  Basis Set: CC-PV(T+D)Z
    Blend: CC-PV(T+D)Z
    Number of shells: 26
    Number of basis function: 74
    Number of Cartesian functions: 85
    Spherical Harmonics?: true
    Max angular momentum: 3

  ==> DFT Potential <==

   => Composite Functional: WB97M-V <= 

    wB97M-V Hyb-GGA Exchange-Correlation Functional

    N. Mardirossian and M. Head-Gordon, J. Chem. Phys. 144, 214110 (2016)

    Deriv               =              1
    GGA                 =           TRUE
    Meta                =           TRUE

    Exchange Hybrid     =           TRUE
    MP2 Hybrid          =          FALSE

   => Exchange-Correlation Functionals <=

    1.0000   wB97M-V exchange-correlation functional

   => Exact (HF) Exchange <=

    0.8500            HF,LR [omega = 0.3000]
    0.1500               HF 

   => VV10 Non-Local Parameters <=

    VV10 B              =     6.0000E+00
    VV10 C              =     1.0000E-02

   => Molecular Quadrature <=

    Radial Scheme          =       TREUTLER
    Pruning Scheme         =           FLAT
    Nuclear Scheme         =       TREUTLER

    BS radius alpha        =              1
    Pruning alpha          =              1
    Radial Points          =             75
    Spherical Points       =            302
    Total Points           =          66073
    Total Blocks           =            565
    Max Points             =            256
    Max Functions          =             74

   => Loading Basis Set <=

    Name: (CC-PV(T+D)Z AUX)
    Role: JKFIT
    Keyword: DF_BASIS_SCF
    atoms 1 entry H          line    51 file /work/zw18965/.conda/envs/p4env/share/psi4/basis/cc-pvtz-jkfit.gbs 
    atoms 2 entry C          line   125 file /work/zw18965/.conda/envs/p4env/share/psi4/basis/cc-pvtz-jkfit.gbs 
    atoms 3 entry N          line   177 file /work/zw18965/.conda/envs/p4env/share/psi4/basis/cc-pvtz-jkfit.gbs 

  ==> Pre-Iterations <==

   -------------------------------------------------------
    Irrep   Nso     Nmo     Nalpha   Nbeta   Ndocc  Nsocc
   -------------------------------------------------------
     A1        33      33       0       0       0       0
     A2         7       7       0       0       0       0
     B1        17      17       0       0       0       0
     B2        17      17       0       0       0       0
   -------------------------------------------------------
    Total      74      74       7       7       7       0
   -------------------------------------------------------

  ==> Integral Setup <==

  ==> DiskDFJK: Density-Fitted J/K Matrices <==

    J tasked:                  Yes
    K tasked:                  Yes
    wK tasked:                 Yes
    Omega:               3.000E-01
    OpenMP threads:             24
    Integrals threads:          24
    Memory [MiB]:           102658
    Algorithm:                Core
    Integral Cache:           NONE
    Schwarz Cutoff:          1E-12
    Fitting Condition:       1E-10

   => Auxiliary Basis Set <=

  Basis Set: (CC-PV(T+D)Z AUX)
    Blend: CC-PVTZ-JKFIT
    Number of shells: 60
    Number of basis function: 188
    Number of Cartesian functions: 227
    Spherical Harmonics?: true
    Max angular momentum: 4

  Cached 100.0% of DFT collocation blocks in 0.330 [GiB].

  Minimum eigenvalue in the overlap matrix is 1.0739948974E-03.
  Using Symmetric Orthogonalization.

  SCF Guess: Superposition of Atomic Densities via on-the-fly atomic UHF.

  ==> Iterations <==

                           Total Energy        Delta E     RMS |[F,P]|

   @DF-RKS iter SAD:   -92.61171187225604   -9.26117e+01   0.00000e+00 
   @DF-RKS iter   1:   -93.34590078460343   -7.34189e-01   1.07599e-02 DIIS
   @DF-RKS iter   2:   -93.30958804550295    3.63127e-02   1.28947e-02 DIIS
   @DF-RKS iter   3:   -93.42567125087166   -1.16083e-01   1.93892e-03 DIIS
   @DF-RKS iter   4:   -93.42844075164520   -2.76950e-03   2.42166e-04 DIIS
   @DF-RKS iter   5:   -93.42848071380217   -3.99622e-05   3.81618e-05 DIIS
   @DF-RKS iter   6:   -93.42848203285183   -1.31905e-06   7.72015e-06 DIIS
   @DF-RKS iter   7:   -93.42848211498865   -8.21368e-08   8.21125e-07 DIIS
   @DF-RKS iter   8:   -93.42848211652543   -1.53678e-09   7.74517e-08 DIIS
   @DF-RKS iter   9:   -93.42848211653677   -1.13403e-11   1.45573e-08 DIIS
   @DF-RKS iter  10:   -93.42848211653700   -2.27374e-13   1.43708e-09 DIIS
  Energy and wave function converged.


  ==> Post-Iterations <==

    Orbital Energies [Eh]
    ---------------------

    Doubly Occupied:                                                      

       1A1   -14.532072     2A1   -10.398993     3A1    -1.046724  
       4A1    -0.719297     5A1    -0.495907     1B2    -0.466432  
       1B1    -0.466432  

    Virtual:                                                              

       2B1     0.098546     2B2     0.098546     6A1     0.104170  
       7A1     0.195491     3B2     0.374472     3B1     0.374472  
       8A1     0.418171     9A1     0.474031    10A1     0.555745  
       4B2     0.613956     4B1     0.613956    11A1     0.720112  
       1A2     0.720112     5B2     0.769707     5B1     0.769707  
      12A1     0.850964    13A1     1.052838     6B1     1.255220  
       6B2     1.255220     2A2     1.279857    14A1     1.279857  
      15A1     1.468281    16A1     1.584409     7B2     1.757498  
       7B1     1.757498    17A1     1.871376     8B2     2.106105  
       8B1     2.106105    18A1     2.258893    19A1     2.615400  
      20A1     2.708258     3A2     2.708259     9B1     2.725995  
       9B2     2.725995    10B2     2.787656    10B1     2.787656  
       4A2     2.992281    21A1     2.992282    11B2     3.154489  
      11B1     3.154489    22A1     3.180833    12B2     3.307324  
      12B1     3.307324    23A1     3.606170     5A2     3.606174  
      24A1     3.759547    13B2     4.049865    13B1     4.049865  
      14B2     4.068920    14B1     4.068920    25A1     4.088712  
      26A1     4.597284     6A2     4.597290    15B2     4.640025  
      15B1     4.640025     7A2     4.742631    27A1     4.742638  
      28A1     4.757501    29A1     5.111281    16B2     5.337414  
      16B1     5.337414    30A1     5.762136    17B2     6.276606  
      17B1     6.276606    31A1     6.447532    32A1     8.291837  
      33A1    14.610690  

    Final Occupation by Irrep:
             A1    A2    B1    B2 
    DOCC [     5,    0,    1,    1 ]

  @DF-RKS Final Energy:   -93.42848211653700

   => Energetics <=

    Nuclear Repulsion Energy =             23.8458576014273689
    One-Electron Energy =                -172.6913139590020592
    Two-Electron Energy =                  64.3165003711731060
    DFT Exchange-Correlation Energy =      -8.9578974196622632
    Empirical Dispersion Energy =           0.0000000000000000
    VV10 Nonlocal Energy =                  0.0583712895268375
    Total Energy =                        -93.4284821165369976

Computation Completed


Properties will be evaluated at   0.000000,   0.000000,   0.000000 [a0]

Properties computed using the SCF density matrix

  Nuclear Dipole Moment: [e a0]
     X:     0.0000      Y:     0.0000      Z:    -1.5265

  Electronic Dipole Moment: [e a0]
     X:     0.0000      Y:     0.0000      Z:     0.3503

  Dipole Moment: [e a0]
     X:     0.0000      Y:     0.0000      Z:    -1.1762     Total:     1.1762

  Dipole Moment: [D]
     X:     0.0000      Y:     0.0000      Z:    -2.9897     Total:     2.9897


*** tstop() called on bp1-compute00116.data.bp.acrc.priv at Tue Apr 27 17:45:50 2021
Module time:
	user time   =      69.86 seconds =       1.16 minutes
	system time =       2.43 seconds =       0.04 minutes
	total time  =          3 seconds =       0.05 minutes
Total time:
	user time   =     285.91 seconds =       4.77 minutes
	system time =      11.53 seconds =       0.19 minutes
	total time  =         13 seconds =       0.22 minutes

  //>>>>>>>>>>>>>>>>>>>>>>>>>>>>>>>>>>>//
  //    Loading displacement 5 of 5    //
  //<<<<<<<<<<<<<<<<<<<<<<<<<<<<<<<<<<<//

*** tstart() called on bp1-compute00116.data.bp.acrc.priv
*** at Tue Apr 27 17:45:50 2021

   => Loading Basis Set <=

    Name: CC-PV(T+D)Z
    Role: ORBITAL
    Keyword: BASIS
    atoms 1 entry H          line    32 file /work/zw18965/.conda/envs/p4env/share/psi4/basis/cc-pv_tpd_z.gbs 
    atoms 2 entry C          line   195 file /work/zw18965/.conda/envs/p4env/share/psi4/basis/cc-pv_tpd_z.gbs 
    atoms 3 entry N          line   233 file /work/zw18965/.conda/envs/p4env/share/psi4/basis/cc-pv_tpd_z.gbs 


         ---------------------------------------------------------
                                   SCF
               by Justin Turney, Rob Parrish, Andy Simmonett
                          and Daniel G. A. Smith
                              RKS Reference
                       24 Threads, 137329 MiB Core
         ---------------------------------------------------------

  ==> Geometry <==

    Molecular point group: c2v
    Full point group: C_inf_v

    Geometry (in Angstrom), charge = 0, multiplicity = 1:

       Center              X                  Y                   Z               Mass       
    ------------   -----------------  -----------------  -----------------  -----------------
         H            0.000000000000     0.000000000000    -1.626500253361     1.007825032230
         C            0.000000000000     0.000000000000    -0.559139747885    12.000000000000
         N            0.000000000000     0.000000000000     0.596219418840    14.003074004430

  Running in c2v symmetry.

  Rotational constants: A = ************  B =      1.47931  C =      1.47931 [cm^-1]
  Rotational constants: A = ************  B =  44348.49075  C =  44348.49075 [MHz]
  Nuclear repulsion =   23.878047654907576

  Charge       = 0
  Multiplicity = 1
  Electrons    = 14
  Nalpha       = 7
  Nbeta        = 7

  ==> Algorithm <==

  SCF Algorithm Type is DF.
  DIIS enabled.
  MOM disabled.
  Fractional occupation disabled.
  Guess Type is SAD.
  Energy threshold   = 1.00e-08
  Density threshold  = 1.00e-08
  Integral threshold = 0.00e+00

  ==> Primary Basis <==

  Basis Set: CC-PV(T+D)Z
    Blend: CC-PV(T+D)Z
    Number of shells: 26
    Number of basis function: 74
    Number of Cartesian functions: 85
    Spherical Harmonics?: true
    Max angular momentum: 3

  ==> DFT Potential <==

   => Composite Functional: WB97M-V <= 

    wB97M-V Hyb-GGA Exchange-Correlation Functional

    N. Mardirossian and M. Head-Gordon, J. Chem. Phys. 144, 214110 (2016)

    Deriv               =              1
    GGA                 =           TRUE
    Meta                =           TRUE

    Exchange Hybrid     =           TRUE
    MP2 Hybrid          =          FALSE

   => Exchange-Correlation Functionals <=

    1.0000   wB97M-V exchange-correlation functional

   => Exact (HF) Exchange <=

    0.8500            HF,LR [omega = 0.3000]
    0.1500               HF 

   => VV10 Non-Local Parameters <=

    VV10 B              =     6.0000E+00
    VV10 C              =     1.0000E-02

   => Molecular Quadrature <=

    Radial Scheme          =       TREUTLER
    Pruning Scheme         =           FLAT
    Nuclear Scheme         =       TREUTLER

    BS radius alpha        =              1
    Pruning alpha          =              1
    Radial Points          =             75
    Spherical Points       =            302
    Total Points           =          66073
    Total Blocks           =            566
    Max Points             =            256
    Max Functions          =             74

   => Loading Basis Set <=

    Name: (CC-PV(T+D)Z AUX)
    Role: JKFIT
    Keyword: DF_BASIS_SCF
    atoms 1 entry H          line    51 file /work/zw18965/.conda/envs/p4env/share/psi4/basis/cc-pvtz-jkfit.gbs 
    atoms 2 entry C          line   125 file /work/zw18965/.conda/envs/p4env/share/psi4/basis/cc-pvtz-jkfit.gbs 
    atoms 3 entry N          line   177 file /work/zw18965/.conda/envs/p4env/share/psi4/basis/cc-pvtz-jkfit.gbs 

  ==> Pre-Iterations <==

   -------------------------------------------------------
    Irrep   Nso     Nmo     Nalpha   Nbeta   Ndocc  Nsocc
   -------------------------------------------------------
     A1        33      33       0       0       0       0
     A2         7       7       0       0       0       0
     B1        17      17       0       0       0       0
     B2        17      17       0       0       0       0
   -------------------------------------------------------
    Total      74      74       7       7       7       0
   -------------------------------------------------------

  ==> Integral Setup <==

  ==> DiskDFJK: Density-Fitted J/K Matrices <==

    J tasked:                  Yes
    K tasked:                  Yes
    wK tasked:                 Yes
    Omega:               3.000E-01
    OpenMP threads:             24
    Integrals threads:          24
    Memory [MiB]:           102658
    Algorithm:                Core
    Integral Cache:           NONE
    Schwarz Cutoff:          1E-12
    Fitting Condition:       1E-10

   => Auxiliary Basis Set <=

  Basis Set: (CC-PV(T+D)Z AUX)
    Blend: CC-PVTZ-JKFIT
    Number of shells: 60
    Number of basis function: 188
    Number of Cartesian functions: 227
    Spherical Harmonics?: true
    Max angular momentum: 4

  Cached 100.0% of DFT collocation blocks in 0.330 [GiB].

  Minimum eigenvalue in the overlap matrix is 1.0740395224E-03.
  Using Symmetric Orthogonalization.

  SCF Guess: Superposition of Atomic Densities via on-the-fly atomic UHF.

  ==> Iterations <==

                           Total Energy        Delta E     RMS |[F,P]|

   @DF-RKS iter SAD:   -92.61441302159152   -9.26144e+01   0.00000e+00 
   @DF-RKS iter   1:   -93.34551258161267   -7.31100e-01   1.07994e-02 DIIS
   @DF-RKS iter   2:   -93.30989282821834    3.56198e-02   1.28891e-02 DIIS
   @DF-RKS iter   3:   -93.42576914661329   -1.15876e-01   1.94395e-03 DIIS
   @DF-RKS iter   4:   -93.42855019704361   -2.78105e-03   2.42319e-04 DIIS
   @DF-RKS iter   5:   -93.42859015928218   -3.99622e-05   3.80345e-05 DIIS
   @DF-RKS iter   6:   -93.42859147012842   -1.31085e-06   7.67171e-06 DIIS
   @DF-RKS iter   7:   -93.42859155149827   -8.13698e-08   8.16557e-07 DIIS
   @DF-RKS iter   8:   -93.42859155302627   -1.52799e-09   7.68763e-08 DIIS
   @DF-RKS iter   9:   -93.42859155303745   -1.11839e-11   1.46329e-08 DIIS
   @DF-RKS iter  10:   -93.42859155303766   -2.13163e-13   1.44061e-09 DIIS
  Energy and wave function converged.


  ==> Post-Iterations <==

    Orbital Energies [Eh]
    ---------------------

    Doubly Occupied:                                                      

       1A1   -14.531420     2A1   -10.398439     3A1    -1.047463  
       4A1    -0.718745     5A1    -0.495726     1B1    -0.466894  
       1B2    -0.466894  

    Virtual:                                                              

       2B2     0.099251     2B1     0.099251     6A1     0.104094  
       7A1     0.195567     3B1     0.374464     3B2     0.374464  
       8A1     0.418154     9A1     0.474003    10A1     0.555946  
       4B2     0.614055     4B1     0.614055    11A1     0.720141  
       1A2     0.720141     5B2     0.769849     5B1     0.769849  
      12A1     0.852486    13A1     1.053984     6B2     1.255952  
       6B1     1.255952     2A2     1.280439    14A1     1.280439  
      15A1     1.466872    16A1     1.585604     7B2     1.757580  
       7B1     1.757580    17A1     1.873826     8B1     2.105714  
       8B2     2.105714    18A1     2.258656    19A1     2.616820  
      20A1     2.709138     3A2     2.709140     9B2     2.725968  
       9B1     2.725968    10B2     2.787464    10B1     2.787464  
       4A2     2.992198    21A1     2.992199    11B2     3.156834  
      11B1     3.156834    22A1     3.181147    12B1     3.308636  
      12B2     3.308636    23A1     3.605640     5A2     3.605644  
      24A1     3.757860    13B1     4.050579    13B2     4.050579  
      14B2     4.069176    14B1     4.069176    25A1     4.090890  
      26A1     4.598618     6A2     4.598625    15B1     4.638751  
      15B2     4.638751     7A2     4.745060    27A1     4.745067  
      28A1     4.756495    29A1     5.113411    16B2     5.338898  
      16B1     5.338898    30A1     5.764409    17B1     6.279820  
      17B2     6.279820    31A1     6.456533    32A1     8.281995  
      33A1    14.647619  

    Final Occupation by Irrep:
             A1    A2    B1    B2 
    DOCC [     5,    0,    1,    1 ]

  @DF-RKS Final Energy:   -93.42859155303766

   => Energetics <=

    Nuclear Repulsion Energy =             23.8780476549075757
    One-Electron Energy =                -172.7555998651510833
    Two-Electron Energy =                  64.3499825664748073
    DFT Exchange-Correlation Energy =      -8.9593936107731462
    Empirical Dispersion Energy =           0.0000000000000000
    VV10 Nonlocal Energy =                  0.0583717015041621
    Total Energy =                        -93.4285915530376769

Computation Completed


Properties will be evaluated at   0.000000,   0.000000,   0.000000 [a0]

Properties computed using the SCF density matrix

  Nuclear Dipole Moment: [e a0]
     X:     0.0000      Y:     0.0000      Z:    -1.5265

  Electronic Dipole Moment: [e a0]
     X:     0.0000      Y:     0.0000      Z:     0.3497

  Dipole Moment: [e a0]
     X:     0.0000      Y:     0.0000      Z:    -1.1768     Total:     1.1768

  Dipole Moment: [D]
     X:     0.0000      Y:     0.0000      Z:    -2.9911     Total:     2.9911


*** tstop() called on bp1-compute00116.data.bp.acrc.priv at Tue Apr 27 17:45:53 2021
Module time:
	user time   =      69.68 seconds =       1.16 minutes
	system time =       2.33 seconds =       0.04 minutes
	total time  =          3 seconds =       0.05 minutes
Total time:
	user time   =     355.73 seconds =       5.93 minutes
	system time =      13.87 seconds =       0.23 minutes
	total time  =         16 seconds =       0.27 minutes

         ----------------------------------------------------------
                                   FINDIF
                     R. A. King and Jonathon Misiewicz
         ---------------------------------------------------------

  Computing gradient from energies.
    Using 3-point formula.
    Energy without displacement:  -93.4285394786
    Check energies below for precision!
    Forces are for mass-weighted, symmetry-adapted cartesians (in au).

     Coord      Energy(-1)        Energy(+1)            Force
        0    -93.4285271795    -93.4285414558     -0.0014276363
        1    -93.4284821165    -93.4285915530     -0.0109436501


-------------------------------------------------------------
  ## New Matrix (Symmetry 0) ##
  Irrep: 1 Size: 3 x 3

                 1                   2                   3

    1     0.00000000000000     0.00000000000000    -0.00140621903946
    2     0.00000000000000     0.00000000000000    -0.02717073489257
    3     0.00000000000000     0.00000000000000     0.02857695393203




			-----------------------------------------
			 OPTKING 2.0: for geometry optimizations 
			  - R.A. King,  Bethel University        
			-----------------------------------------
	At level 1: Red. Int., RFO, no backsteps, dynamic trust

	Internal coordinates to be generated automatically.
	Detected frag 1 with atoms:  1 2 3
	---Fragment 1 Bond Connectivity---
	 1 : 2
	 2 : 1 3
	 3 : 2

	---Fragment 1 Geometry and Gradient---
	 H           0.0000000000        0.0000000000       -3.0736400218
	 C           0.0000000000        0.0000000000       -1.0576801912
	 N           0.0000000000        0.0000000000        1.1275991003
	             0.0000000000        0.0000000000       -0.0014062190
	             0.0000000000        0.0000000000       -0.0271707349
	             0.0000000000        0.0000000000        0.0285769539

	Previous optimization step data not found.  Starting new optimization.

	---Fragment 1 Intrafragment Coordinates---
	 - Coordinate -           - BOHR/RAD -       - ANG/DEG -
	 R(1,2)           =         2.015960	       1.066800
	 R(2,3)           =         2.185279	       1.156400
	 L(1,2,3)         =         3.141593	     180.000000
	 l(1,2,3)         =         3.141593	     180.000000

	Current energy   :       -93.4285394786

	Generating empirical Hessian (Schlegel '84) for each fragment.
	Taking RFO optimization step.
	Going to follow RFO solution 1.
	Using RFO vector 1.
	Norm of target step-size    0.02226
	Projected energy change by RFO approximation:        -0.0006319511

	Back-transformation to cartesian coordinates...
	Successfully converged to displaced geometry.

	--- Internal Coordinate Step in ANG or DEG, aJ/ANG or AJ/DEG ---
	 ---------------------------------------------------------------------------
	   Coordinate                Previous        Force       Change         New 
	   ----------                --------       ------       ------       ------
	    1 R(1,2)          =      1.066800    -0.011585    -0.001974     1.064826
	    2 R(2,3)          =      1.156400    -0.235438    -0.011611     1.144789
	    3 L(1,2,3)        =    180.000000     0.000000     0.000000   180.000000
	    4 l(1,2,3)        =    180.000000     0.000000     0.000000   180.000000
	 ---------------------------------------------------------------------------
	Successfully symmetrized geometry.

  ==> Convergence Check <==

  Measures of convergence in internal coordinates in au.
  Criteria marked as inactive (o), active & met (*), and active & unmet ( ).
  --------------------------------------------------------------------------------------------- ~
   Step     Total Energy     Delta E     MAX Force     RMS Force      MAX Disp      RMS Disp    ~
  --------------------------------------------------------------------------------------------- ~
    Convergence Criteria    1.00e-06 *    3.00e-04 *             o    1.20e-03 *             o  ~
  --------------------------------------------------------------------------------------------- ~
      1     -93.42853948   -9.34e+01      2.86e-02      1.43e-02 o    2.19e-02      1.11e-02 o  ~
  ---------------------------------------------------------------------------------------------

	Writing optimization data to binary file.
	Structure for next step:
	Cartesian Geometry (in Angstrom)
	    H     0.0000000000   0.0000000000  -1.6213140757
	    C     0.0000000000   0.0000000000  -0.5564878864
	    N     0.0000000000   0.0000000000   0.5883012084
			--------------------------
			 OPTKING Finished Execution 
			--------------------------

    Structure for next step:
    Molecular point group: c2v
    Full point group: C_inf_v

    Geometry (in Angstrom), charge = 0, multiplicity = 1:

    H            0.000000000000     0.000000000000    -1.618580733978
    C            0.000000000000     0.000000000000    -0.553754540487
    N            0.000000000000     0.000000000000     0.591034558813

gradient() will perform gradient computation by finite difference of analytic energies.

         ----------------------------------------------------------
                                   FINDIF
                     R. A. King and Jonathon Misiewicz
         ---------------------------------------------------------

  Using finite-differences of energies to determine gradients.
    Generating geometries for use with 3-point formula.
    Displacement size will be 5.00e-03.
    Number of atoms is 3.
    Number of symmetric SALCs is 2.
    Translations projected? 1. Rotations projected? 1.
    Number of geometries (including reference) is 5.

  //>>>>>>>>>>>>>>>>>>>>>>>>>>>>>>>>>>>//
  //    Loading displacement 1 of 5    //
  //<<<<<<<<<<<<<<<<<<<<<<<<<<<<<<<<<<<//

*** tstart() called on bp1-compute00116.data.bp.acrc.priv
*** at Tue Apr 27 17:45:53 2021

   => Loading Basis Set <=

    Name: CC-PV(T+D)Z
    Role: ORBITAL
    Keyword: BASIS
    atoms 1 entry H          line    32 file /work/zw18965/.conda/envs/p4env/share/psi4/basis/cc-pv_tpd_z.gbs 
    atoms 2 entry C          line   195 file /work/zw18965/.conda/envs/p4env/share/psi4/basis/cc-pv_tpd_z.gbs 
    atoms 3 entry N          line   233 file /work/zw18965/.conda/envs/p4env/share/psi4/basis/cc-pv_tpd_z.gbs 


         ---------------------------------------------------------
                                   SCF
               by Justin Turney, Rob Parrish, Andy Simmonett
                          and Daniel G. A. Smith
                              RKS Reference
                       24 Threads, 137329 MiB Core
         ---------------------------------------------------------

  ==> Geometry <==

    Molecular point group: c2v
    Full point group: C_inf_v

    Geometry (in Angstrom), charge = 0, multiplicity = 1:

       Center              X                  Y                   Z               Mass       
    ------------   -----------------  -----------------  -----------------  -----------------
         H            0.000000000000     0.000000000000    -1.618580733978     1.007825032230
         C            0.000000000000     0.000000000000    -0.553754540487    12.000000000000
         N            0.000000000000     0.000000000000     0.591034558813    14.003074004430

  Running in c2v symmetry.

  Rotational constants: A = ************  B =      1.50359  C =      1.50359 [cm^-1]
  Rotational constants: A = ************  B =  45076.38944  C =  45076.38944 [MHz]
  Nuclear repulsion =   24.072628531539713

  Charge       = 0
  Multiplicity = 1
  Electrons    = 14
  Nalpha       = 7
  Nbeta        = 7

  ==> Algorithm <==

  SCF Algorithm Type is DF.
  DIIS enabled.
  MOM disabled.
  Fractional occupation disabled.
  Guess Type is READ.
  Energy threshold   = 1.00e-08
  Density threshold  = 1.00e-08
  Integral threshold = 0.00e+00

  ==> Primary Basis <==

  Basis Set: CC-PV(T+D)Z
    Blend: CC-PV(T+D)Z
    Number of shells: 26
    Number of basis function: 74
    Number of Cartesian functions: 85
    Spherical Harmonics?: true
    Max angular momentum: 3

  ==> DFT Potential <==

   => Composite Functional: WB97M-V <= 

    wB97M-V Hyb-GGA Exchange-Correlation Functional

    N. Mardirossian and M. Head-Gordon, J. Chem. Phys. 144, 214110 (2016)

    Deriv               =              1
    GGA                 =           TRUE
    Meta                =           TRUE

    Exchange Hybrid     =           TRUE
    MP2 Hybrid          =          FALSE

   => Exchange-Correlation Functionals <=

    1.0000   wB97M-V exchange-correlation functional

   => Exact (HF) Exchange <=

    0.8500            HF,LR [omega = 0.3000]
    0.1500               HF 

   => VV10 Non-Local Parameters <=

    VV10 B              =     6.0000E+00
    VV10 C              =     1.0000E-02

   => Molecular Quadrature <=

    Radial Scheme          =       TREUTLER
    Pruning Scheme         =           FLAT
    Nuclear Scheme         =       TREUTLER

    BS radius alpha        =              1
    Pruning alpha          =              1
    Radial Points          =             75
    Spherical Points       =            302
    Total Points           =          66073
    Total Blocks           =            566
    Max Points             =            256
    Max Functions          =             74

   => Loading Basis Set <=

    Name: (CC-PV(T+D)Z AUX)
    Role: JKFIT
    Keyword: DF_BASIS_SCF
    atoms 1 entry H          line    51 file /work/zw18965/.conda/envs/p4env/share/psi4/basis/cc-pvtz-jkfit.gbs 
    atoms 2 entry C          line   125 file /work/zw18965/.conda/envs/p4env/share/psi4/basis/cc-pvtz-jkfit.gbs 
    atoms 3 entry N          line   177 file /work/zw18965/.conda/envs/p4env/share/psi4/basis/cc-pvtz-jkfit.gbs 

   => Loading Basis Set <=

    Name: CC-PV(T+D)Z
    Role: ORBITAL
    Keyword: BASIS
    atoms 1 entry H          line    32 file /work/zw18965/.conda/envs/p4env/share/psi4/basis/cc-pv_tpd_z.gbs 
    atoms 2 entry C          line   195 file /work/zw18965/.conda/envs/p4env/share/psi4/basis/cc-pv_tpd_z.gbs 
    atoms 3 entry N          line   233 file /work/zw18965/.conda/envs/p4env/share/psi4/basis/cc-pv_tpd_z.gbs 

  Reading orbitals from file 180, no projection.

  ==> Pre-Iterations <==

   -------------------------------------------------------
    Irrep   Nso     Nmo     Nalpha   Nbeta   Ndocc  Nsocc
   -------------------------------------------------------
     A1        33      33       0       0       0       0
     A2         7       7       0       0       0       0
     B1        17      17       0       0       0       0
     B2        17      17       0       0       0       0
   -------------------------------------------------------
    Total      74      74       7       7       7       0
   -------------------------------------------------------

  ==> Integral Setup <==

  ==> DiskDFJK: Density-Fitted J/K Matrices <==

    J tasked:                  Yes
    K tasked:                  Yes
    wK tasked:                 Yes
    Omega:               3.000E-01
    OpenMP threads:             24
    Integrals threads:          24
    Memory [MiB]:           102658
    Algorithm:                Core
    Integral Cache:           NONE
    Schwarz Cutoff:          1E-12
    Fitting Condition:       1E-10

   => Auxiliary Basis Set <=

  Basis Set: (CC-PV(T+D)Z AUX)
    Blend: CC-PVTZ-JKFIT
    Number of shells: 60
    Number of basis function: 188
    Number of Cartesian functions: 227
    Spherical Harmonics?: true
    Max angular momentum: 4

  Cached 100.0% of DFT collocation blocks in 0.330 [GiB].

  Minimum eigenvalue in the overlap matrix is 1.0586362891E-03.
  Using Symmetric Orthogonalization.

  SCF Guess: Orbitals guess was supplied from a previous computation.

  ==> Iterations <==

                           Total Energy        Delta E     RMS |[F,P]|

   @DF-RKS iter   0:   -93.43531500839967   -9.34353e+01   1.04167e-03 
   @DF-RKS iter   1:   -93.42883011191665    6.48490e-03   1.88914e-04 DIIS
   @DF-RKS iter   2:   -93.42884136310292   -1.12512e-05   1.91118e-04 DIIS
   @DF-RKS iter   3:   -93.42886397696431   -2.26139e-05   4.78662e-05 DIIS
   @DF-RKS iter   4:   -93.42886546580030   -1.48884e-06   8.54287e-06 DIIS
   @DF-RKS iter   5:   -93.42886553740942   -7.16091e-08   1.30128e-06 DIIS
   @DF-RKS iter   6:   -93.42886554016467   -2.75524e-09   1.82366e-07 DIIS
   @DF-RKS iter   7:   -93.42886554022547   -6.08082e-11   2.64407e-08 DIIS
   @DF-RKS iter   8:   -93.42886554022655   -1.08002e-12   3.31580e-09 DIIS
  Energy and wave function converged.


  ==> Post-Iterations <==

    Orbital Energies [Eh]
    ---------------------

    Doubly Occupied:                                                      

       1A1   -14.528222     2A1   -10.395035     3A1    -1.051316  
       4A1    -0.718419     5A1    -0.494972     1B1    -0.469402  
       1B2    -0.469402  

    Virtual:                                                              

       2B2     0.102698     2B1     0.102698     6A1     0.104806  
       7A1     0.196287     3B2     0.374314     3B1     0.374314  
       8A1     0.417920     9A1     0.475973    10A1     0.556853  
       4B1     0.614451     4B2     0.614451    11A1     0.720161  
       1A2     0.720161     5B2     0.772377     5B1     0.772377  
      12A1     0.861223    13A1     1.059443     6B1     1.262000  
       6B2     1.262000     2A2     1.283293    14A1     1.283293  
      15A1     1.464412    16A1     1.591423     7B2     1.759274  
       7B1     1.759274    17A1     1.886478     8B1     2.103204  
       8B2     2.103204    18A1     2.258242    19A1     2.624955  
      20A1     2.714650     3A2     2.714652     9B1     2.725722  
       9B2     2.725722    10B2     2.786730    10B1     2.786730  
       4A2     2.990482    21A1     2.990483    11B2     3.171008  
      11B1     3.171008    22A1     3.192247    12B2     3.313575  
      12B1     3.313575    23A1     3.611461     5A2     3.611466  
      24A1     3.756086    13B1     4.054155    13B2     4.054155  
      14B1     4.078661    14B2     4.078661    25A1     4.114824  
      26A1     4.605976     6A2     4.605983    15B2     4.644450  
      15B1     4.644450     7A2     4.761250    27A1     4.761256  
      28A1     4.764942    29A1     5.131839    16B1     5.358349  
      16B2     5.358349    30A1     5.789104    17B1     6.303091  
      17B2     6.303091    31A1     6.514363    32A1     8.308555  
      33A1    14.860085  

    Final Occupation by Irrep:
             A1    A2    B1    B2 
    DOCC [     5,    0,    1,    1 ]

  @DF-RKS Final Energy:   -93.42886554022655

   => Energetics <=

    Nuclear Repulsion Energy =             24.0726285315397135
    One-Electron Energy =                -173.1370189953337047
    Two-Electron Energy =                  64.5466861389727740
    DFT Exchange-Correlation Energy =      -8.9695390390216492
    Empirical Dispersion Energy =           0.0000000000000000
    VV10 Nonlocal Energy =                  0.0583778236162893
    Total Energy =                        -93.4288655402265817

Computation Completed


Properties will be evaluated at   0.000000,   0.000000,   0.000000 [a0]

Properties computed using the SCF density matrix

  Nuclear Dipole Moment: [e a0]
     X:     0.0000      Y:     0.0000      Z:    -1.5191

  Electronic Dipole Moment: [e a0]
     X:     0.0000      Y:     0.0000      Z:     0.3435

  Dipole Moment: [e a0]
     X:     0.0000      Y:     0.0000      Z:    -1.1756     Total:     1.1756

  Dipole Moment: [D]
     X:     0.0000      Y:     0.0000      Z:    -2.9881     Total:     2.9881


*** tstop() called on bp1-compute00116.data.bp.acrc.priv at Tue Apr 27 17:45:55 2021
Module time:
	user time   =      50.56 seconds =       0.84 minutes
	system time =       1.59 seconds =       0.03 minutes
	total time  =          2 seconds =       0.03 minutes
Total time:
	user time   =     406.65 seconds =       6.78 minutes
	system time =      15.48 seconds =       0.26 minutes
	total time  =         18 seconds =       0.30 minutes

  //>>>>>>>>>>>>>>>>>>>>>>>>>>>>>>>>>>>//
  //    Loading displacement 2 of 5    //
  //<<<<<<<<<<<<<<<<<<<<<<<<<<<<<<<<<<<//

*** tstart() called on bp1-compute00116.data.bp.acrc.priv
*** at Tue Apr 27 17:45:55 2021

   => Loading Basis Set <=

    Name: CC-PV(T+D)Z
    Role: ORBITAL
    Keyword: BASIS
    atoms 1 entry H          line    32 file /work/zw18965/.conda/envs/p4env/share/psi4/basis/cc-pv_tpd_z.gbs 
    atoms 2 entry C          line   195 file /work/zw18965/.conda/envs/p4env/share/psi4/basis/cc-pv_tpd_z.gbs 
    atoms 3 entry N          line   233 file /work/zw18965/.conda/envs/p4env/share/psi4/basis/cc-pv_tpd_z.gbs 


         ---------------------------------------------------------
                                   SCF
               by Justin Turney, Rob Parrish, Andy Simmonett
                          and Daniel G. A. Smith
                              RKS Reference
                       24 Threads, 137329 MiB Core
         ---------------------------------------------------------

  ==> Geometry <==

    Molecular point group: c2v
    Full point group: C_inf_v

    Geometry (in Angstrom), charge = 0, multiplicity = 1:

       Center              X                  Y                   Z               Mass       
    ------------   -----------------  -----------------  -----------------  -----------------
         H            0.000000000000     0.000000000000    -1.621166691536     1.007825032230
         C            0.000000000000     0.000000000000    -0.553654314154    12.000000000000
         N            0.000000000000     0.000000000000     0.591134785146    14.003074004430

  Running in c2v symmetry.

  Rotational constants: A = ************  B =      1.50241  C =      1.50241 [cm^-1]
  Rotational constants: A = ************  B =  45041.15450  C =  45041.15450 [MHz]
  Nuclear repulsion =   24.063089991805434

  Charge       = 0
  Multiplicity = 1
  Electrons    = 14
  Nalpha       = 7
  Nbeta        = 7

  ==> Algorithm <==

  SCF Algorithm Type is DF.
  DIIS enabled.
  MOM disabled.
  Fractional occupation disabled.
  Guess Type is READ.
  Energy threshold   = 1.00e-08
  Density threshold  = 1.00e-08
  Integral threshold = 0.00e+00

  ==> Primary Basis <==

  Basis Set: CC-PV(T+D)Z
    Blend: CC-PV(T+D)Z
    Number of shells: 26
    Number of basis function: 74
    Number of Cartesian functions: 85
    Spherical Harmonics?: true
    Max angular momentum: 3

  ==> DFT Potential <==

   => Composite Functional: WB97M-V <= 

    wB97M-V Hyb-GGA Exchange-Correlation Functional

    N. Mardirossian and M. Head-Gordon, J. Chem. Phys. 144, 214110 (2016)

    Deriv               =              1
    GGA                 =           TRUE
    Meta                =           TRUE

    Exchange Hybrid     =           TRUE
    MP2 Hybrid          =          FALSE

   => Exchange-Correlation Functionals <=

    1.0000   wB97M-V exchange-correlation functional

   => Exact (HF) Exchange <=

    0.8500            HF,LR [omega = 0.3000]
    0.1500               HF 

   => VV10 Non-Local Parameters <=

    VV10 B              =     6.0000E+00
    VV10 C              =     1.0000E-02

   => Molecular Quadrature <=

    Radial Scheme          =       TREUTLER
    Pruning Scheme         =           FLAT
    Nuclear Scheme         =       TREUTLER

    BS radius alpha        =              1
    Pruning alpha          =              1
    Radial Points          =             75
    Spherical Points       =            302
    Total Points           =          66073
    Total Blocks           =            569
    Max Points             =            255
    Max Functions          =             74

   => Loading Basis Set <=

    Name: (CC-PV(T+D)Z AUX)
    Role: JKFIT
    Keyword: DF_BASIS_SCF
    atoms 1 entry H          line    51 file /work/zw18965/.conda/envs/p4env/share/psi4/basis/cc-pvtz-jkfit.gbs 
    atoms 2 entry C          line   125 file /work/zw18965/.conda/envs/p4env/share/psi4/basis/cc-pvtz-jkfit.gbs 
    atoms 3 entry N          line   177 file /work/zw18965/.conda/envs/p4env/share/psi4/basis/cc-pvtz-jkfit.gbs 

   => Loading Basis Set <=

    Name: CC-PV(T+D)Z
    Role: ORBITAL
    Keyword: BASIS
    atoms 1 entry H          line    32 file /work/zw18965/.conda/envs/p4env/share/psi4/basis/cc-pv_tpd_z.gbs 
    atoms 2 entry C          line   195 file /work/zw18965/.conda/envs/p4env/share/psi4/basis/cc-pv_tpd_z.gbs 
    atoms 3 entry N          line   233 file /work/zw18965/.conda/envs/p4env/share/psi4/basis/cc-pv_tpd_z.gbs 

  Reading orbitals from file 180, no projection.

  ==> Pre-Iterations <==

   -------------------------------------------------------
    Irrep   Nso     Nmo     Nalpha   Nbeta   Ndocc  Nsocc
   -------------------------------------------------------
     A1        33      33       0       0       0       0
     A2         7       7       0       0       0       0
     B1        17      17       0       0       0       0
     B2        17      17       0       0       0       0
   -------------------------------------------------------
    Total      74      74       7       7       7       0
   -------------------------------------------------------

  ==> Integral Setup <==

  ==> DiskDFJK: Density-Fitted J/K Matrices <==

    J tasked:                  Yes
    K tasked:                  Yes
    wK tasked:                 Yes
    Omega:               3.000E-01
    OpenMP threads:             24
    Integrals threads:          24
    Memory [MiB]:           102658
    Algorithm:                Core
    Integral Cache:           NONE
    Schwarz Cutoff:          1E-12
    Fitting Condition:       1E-10

   => Auxiliary Basis Set <=

  Basis Set: (CC-PV(T+D)Z AUX)
    Blend: CC-PVTZ-JKFIT
    Number of shells: 60
    Number of basis function: 188
    Number of Cartesian functions: 227
    Spherical Harmonics?: true
    Max angular momentum: 4

  Cached 100.0% of DFT collocation blocks in 0.330 [GiB].

  Minimum eigenvalue in the overlap matrix is 1.0637164751E-03.
  Using Symmetric Orthogonalization.

  SCF Guess: Orbitals guess was supplied from a previous computation.

  ==> Iterations <==

                           Total Energy        Delta E     RMS |[F,P]|

   @DF-RKS iter   0:   -93.42843204725358   -9.34284e+01   1.11909e-04 
   @DF-RKS iter   1:   -93.42885887811356   -4.26831e-04   1.87385e-05 DIIS
   @DF-RKS iter   2:   -93.42885871617342    1.61940e-07   2.62948e-05 DIIS
   @DF-RKS iter   3:   -93.42885918993146   -4.73758e-07   1.52656e-06 DIIS
   @DF-RKS iter   4:   -93.42885919119443   -1.26298e-09   1.85564e-07 DIIS
   @DF-RKS iter   5:   -93.42885919126714   -7.27027e-11   4.78296e-08 DIIS
   @DF-RKS iter   6:   -93.42885919127049   -3.35376e-12   8.96692e-09 DIIS
  Energy and wave function converged.


  ==> Post-Iterations <==

    Orbital Energies [Eh]
    ---------------------

    Doubly Occupied:                                                      

       1A1   -14.528176     2A1   -10.395221     3A1    -1.051283  
       4A1    -0.717607     5A1    -0.494913     1B1    -0.469359  
       1B2    -0.469359  

    Virtual:                                                              

       2B1     0.102745     2B2     0.102745     6A1     0.104452  
       7A1     0.196179     3B1     0.374353     3B2     0.374353  
       8A1     0.417981     9A1     0.475246    10A1     0.556889  
       4B2     0.614487     4B1     0.614487    11A1     0.720206  
       1A2     0.720206     5B1     0.771786     5B2     0.771786  
      12A1     0.860857    13A1     1.059665     6B2     1.261246  
       6B1     1.261246     2A2     1.283332    14A1     1.283333  
      15A1     1.463068    16A1     1.591349     7B2     1.758842  
       7B1     1.758842    17A1     1.886505     8B2     2.103333  
       8B1     2.103333    18A1     2.258028    19A1     2.624652  
      20A1     2.714323     3A2     2.714324     9B1     2.725757  
       9B2     2.725757    10B2     2.786668    10B1     2.786668  
       4A2     2.990895    21A1     2.990896    11B2     3.170331  
      11B1     3.170331    22A1     3.189122    12B2     3.314162  
      12B1     3.314162    23A1     3.608691     5A2     3.608695  
      24A1     3.753922    13B1     4.054199    13B2     4.054199  
      14B1     4.075981    14B2     4.075981    25A1     4.110610  
      26A1     4.605700     6A2     4.605706    15B2     4.640404  
      15B1     4.640404     7A2     4.760132    27A1     4.760138  
      28A1     4.760491    29A1     5.129446    16B2     5.354410  
      16B1     5.354410    30A1     5.784990    17B1     6.300891  
      17B2     6.300891    31A1     6.510656    32A1     8.283767  
      33A1    14.851510  

    Final Occupation by Irrep:
             A1    A2    B1    B2 
    DOCC [     5,    0,    1,    1 ]

  @DF-RKS Final Energy:   -93.42885919127049

   => Energetics <=

    Nuclear Repulsion Energy =             24.0630899918054340
    One-Electron Energy =                -173.1201062921823564
    Two-Electron Energy =                  64.5385289213232198
    DFT Exchange-Correlation Energy =      -8.9687483746798975
    Empirical Dispersion Energy =           0.0000000000000000
    VV10 Nonlocal Energy =                  0.0583765624630931
    Total Energy =                        -93.4288591912704902

Computation Completed


Properties will be evaluated at   0.000000,   0.000000,   0.000000 [a0]

Properties computed using the SCF density matrix

  Nuclear Dipole Moment: [e a0]
     X:     0.0000      Y:     0.0000      Z:    -1.5215

  Electronic Dipole Moment: [e a0]
     X:     0.0000      Y:     0.0000      Z:     0.3447

  Dipole Moment: [e a0]
     X:     0.0000      Y:     0.0000      Z:    -1.1769     Total:     1.1769

  Dipole Moment: [D]
     X:     0.0000      Y:     0.0000      Z:    -2.9913     Total:     2.9913


*** tstop() called on bp1-compute00116.data.bp.acrc.priv at Tue Apr 27 17:45:57 2021
Module time:
	user time   =      47.30 seconds =       0.79 minutes
	system time =       1.78 seconds =       0.03 minutes
	total time  =          2 seconds =       0.03 minutes
Total time:
	user time   =     454.07 seconds =       7.57 minutes
	system time =      17.26 seconds =       0.29 minutes
	total time  =         20 seconds =       0.33 minutes

  //>>>>>>>>>>>>>>>>>>>>>>>>>>>>>>>>>>>//
  //    Loading displacement 3 of 5    //
  //<<<<<<<<<<<<<<<<<<<<<<<<<<<<<<<<<<<//

*** tstart() called on bp1-compute00116.data.bp.acrc.priv
*** at Tue Apr 27 17:45:57 2021

   => Loading Basis Set <=

    Name: CC-PV(T+D)Z
    Role: ORBITAL
    Keyword: BASIS
    atoms 1 entry H          line    32 file /work/zw18965/.conda/envs/p4env/share/psi4/basis/cc-pv_tpd_z.gbs 
    atoms 2 entry C          line   195 file /work/zw18965/.conda/envs/p4env/share/psi4/basis/cc-pv_tpd_z.gbs 
[...]
    One-Electron Energy =                -173.1464116364148822
    Two-Electron Energy =                  64.5514751581264790
    DFT Exchange-Correlation Energy =      -8.9698233410905424
    Empirical Dispersion Energy =           0.0000000000000000
    VV10 Nonlocal Energy =                  0.0583780733830723
    Total Energy =                        -93.4288654284892033

Computation Completed


Properties will be evaluated at   0.000000,   0.000000,   0.000000 [a0]

Properties computed using the SCF density matrix

  Nuclear Dipole Moment: [e a0]
     X:    -0.0021      Y:     0.0000      Z:    -1.5187

  Electronic Dipole Moment: [e a0]
     X:     0.0011      Y:     0.0000      Z:     0.3432

  Dipole Moment: [e a0]
     X:    -0.0010      Y:     0.0000      Z:    -1.1755     Total:     1.1755

  Dipole Moment: [D]
     X:    -0.0024      Y:     0.0000      Z:    -2.9877     Total:     2.9877


*** tstop() called on bp1-compute00116.data.bp.acrc.priv at Tue Apr 27 17:46:54 2021
Module time:
	user time   =      74.71 seconds =       1.25 minutes
	system time =       2.33 seconds =       0.04 minutes
	total time  =          3 seconds =       0.05 minutes
Total time:
	user time   =    1784.22 seconds =      29.74 minutes
	system time =      59.95 seconds =       1.00 minutes
	total time  =         77 seconds =       1.28 minutes

  //>>>>>>>>>>>>>>>>>>>>>>>>>>>>>>>>>>>//
  //    Loading displacement 9 of 9    //
  //<<<<<<<<<<<<<<<<<<<<<<<<<<<<<<<<<<<//

*** tstart() called on bp1-compute00116.data.bp.acrc.priv
*** at Tue Apr 27 17:46:54 2021

   => Loading Basis Set <=

    Name: CC-PV(T+D)Z
    Role: ORBITAL
    Keyword: BASIS
    atoms 1 entry H          line    32 file /work/zw18965/.conda/envs/p4env/share/psi4/basis/cc-pv_tpd_z.gbs 
    atoms 2 entry C          line   195 file /work/zw18965/.conda/envs/p4env/share/psi4/basis/cc-pv_tpd_z.gbs 
    atoms 3 entry N          line   233 file /work/zw18965/.conda/envs/p4env/share/psi4/basis/cc-pv_tpd_z.gbs 


         ---------------------------------------------------------
                                   SCF
               by Justin Turney, Rob Parrish, Andy Simmonett
                          and Daniel G. A. Smith
                              RKS Reference
                       24 Threads, 137329 MiB Core
         ---------------------------------------------------------

  ==> Geometry <==

    Molecular point group: cs
    Full point group: Cs

    Geometry (in Angstrom), charge = 0, multiplicity = 1:

       Center              X                  Y                   Z               Mass       
    ------------   -----------------  -----------------  -----------------  -----------------
         H            0.000000000000    -0.002247556184    -1.618162686639     1.007825032230
         C            0.000000000000     0.000364318757    -0.553656470482    12.000000000000
         N            0.000000000000    -0.000150444231     0.590920429684    14.003074004430

  Running in cs symmetry.

  Rotational constants: A = 2407987.46702  B =      1.50420  C =      1.50420 [cm^-1]
  Rotational constants: A = 72189648157.17371  B =  45094.71391  C =  45094.68574 [MHz]
  Nuclear repulsion =   24.077516317506678

  Charge       = 0
  Multiplicity = 1
  Electrons    = 14
  Nalpha       = 7
  Nbeta        = 7

  ==> Algorithm <==

  SCF Algorithm Type is DF.
  DIIS enabled.
  MOM disabled.
  Fractional occupation disabled.
  Guess Type is SAD.
  Energy threshold   = 1.00e-10
  Density threshold  = 1.00e-10
  Integral threshold = 0.00e+00

  ==> Primary Basis <==

  Basis Set: CC-PV(T+D)Z
    Blend: CC-PV(T+D)Z
    Number of shells: 26
    Number of basis function: 74
    Number of Cartesian functions: 85
    Spherical Harmonics?: true
    Max angular momentum: 3

  ==> DFT Potential <==

   => Composite Functional: WB97M-V <= 

    wB97M-V Hyb-GGA Exchange-Correlation Functional

    N. Mardirossian and M. Head-Gordon, J. Chem. Phys. 144, 214110 (2016)

    Deriv               =              1
    GGA                 =           TRUE
    Meta                =           TRUE

    Exchange Hybrid     =           TRUE
    MP2 Hybrid          =          FALSE

   => Exchange-Correlation Functionals <=

    1.0000   wB97M-V exchange-correlation functional

   => Exact (HF) Exchange <=

    0.8500            HF,LR [omega = 0.3000]
    0.1500               HF 

   => VV10 Non-Local Parameters <=

    VV10 B              =     6.0000E+00
    VV10 C              =     1.0000E-02

   => Molecular Quadrature <=

    Radial Scheme          =       TREUTLER
    Pruning Scheme         =           FLAT
    Nuclear Scheme         =       TREUTLER

    BS radius alpha        =              1
    Pruning alpha          =              1
    Radial Points          =             75
    Spherical Points       =            302
    Total Points           =          66071
    Total Blocks           =            562
    Max Points             =            255
    Max Functions          =             74

   => Loading Basis Set <=

    Name: (CC-PV(T+D)Z AUX)
    Role: JKFIT
    Keyword: DF_BASIS_SCF
    atoms 1 entry H          line    51 file /work/zw18965/.conda/envs/p4env/share/psi4/basis/cc-pvtz-jkfit.gbs 
    atoms 2 entry C          line   125 file /work/zw18965/.conda/envs/p4env/share/psi4/basis/cc-pvtz-jkfit.gbs 
    atoms 3 entry N          line   177 file /work/zw18965/.conda/envs/p4env/share/psi4/basis/cc-pvtz-jkfit.gbs 

  ==> Pre-Iterations <==

   -------------------------------------------------------
    Irrep   Nso     Nmo     Nalpha   Nbeta   Ndocc  Nsocc
   -------------------------------------------------------
     A'        50      50       0       0       0       0
     A"        24      24       0       0       0       0
   -------------------------------------------------------
    Total      74      74       7       7       7       0
   -------------------------------------------------------

  ==> Integral Setup <==

  ==> DiskDFJK: Density-Fitted J/K Matrices <==

    J tasked:                  Yes
    K tasked:                  Yes
    wK tasked:                 Yes
    Omega:               3.000E-01
    OpenMP threads:             24
    Integrals threads:          24
    Memory [MiB]:           102658
    Algorithm:                Core
    Integral Cache:           NONE
    Schwarz Cutoff:          1E-12
    Fitting Condition:       1E-10

   => Auxiliary Basis Set <=

  Basis Set: (CC-PV(T+D)Z AUX)
    Blend: CC-PVTZ-JKFIT
    Number of shells: 60
    Number of basis function: 188
    Number of Cartesian functions: 227
    Spherical Harmonics?: true
    Max angular momentum: 4

  Cached 100.0% of DFT collocation blocks in 0.330 [GiB].

  Minimum eigenvalue in the overlap matrix is 1.0578458267E-03.
  Using Symmetric Orthogonalization.

  SCF Guess: Superposition of Atomic Densities via on-the-fly atomic UHF.

  ==> Iterations <==

                           Total Energy        Delta E     RMS |[F,P]|

   @DF-RKS iter SAD:   -92.63010962136701   -9.26301e+01   0.00000e+00 
   @DF-RKS iter   1:   -93.34409287871647   -7.13983e-01   8.18045e-03 DIIS
   @DF-RKS iter   2:   -93.31333764451614    3.07552e-02   9.52168e-03 DIIS
   @DF-RKS iter   3:   -93.42596897324029   -1.12631e-01   1.47633e-03 DIIS
   @DF-RKS iter   4:   -93.42882463052598   -2.85566e-03   1.80589e-04 DIIS
   @DF-RKS iter   5:   -93.42886410596758   -3.94754e-05   2.76999e-05 DIIS
   @DF-RKS iter   6:   -93.42886535190559   -1.24594e-06   5.46426e-06 DIIS
   @DF-RKS iter   7:   -93.42886542700990   -7.51043e-08   5.84538e-07 DIIS
   @DF-RKS iter   8:   -93.42886542843966   -1.42977e-09   5.53864e-08 DIIS
   @DF-RKS iter   9:   -93.42886542845017   -1.05018e-11   1.09523e-08 DIIS
   @DF-RKS iter  10:   -93.42886542845052   -3.55271e-13   1.09719e-09 DIIS
   @DF-RKS iter  11:   -93.42886542845029    2.27374e-13   1.75235e-10 DIIS
   @DF-RKS iter  12:   -93.42886542845039   -9.94760e-14   3.54395e-11 DIIS
  Energy and wave function converged.


  ==> Post-Iterations <==

    Orbital Energies [Eh]
    ---------------------

    Doubly Occupied:                                                      

       1Ap   -14.528162     2Ap   -10.394948     3Ap    -1.051397  
       4Ap    -0.718493     5Ap    -0.494963     1App   -0.469457  
       6Ap    -0.469457  

    Virtual:                                                              

       7Ap     0.102744     2App    0.102762     8Ap     0.104873  
       9Ap     0.196313    10Ap     0.374308     3App    0.374308  
      11Ap     0.417908    12Ap     0.476087    13Ap     0.556866  
       4App    0.614455    14Ap     0.614457    15Ap     0.720155  
       5App    0.720155    16Ap     0.772487     6App    0.772490  
      17Ap     0.861433    18Ap     1.059536    19Ap     1.262173  
       7App    1.262174     8App    1.283367    20Ap     1.283368  
      21Ap     1.464483    22Ap     1.591566    23Ap     1.759342  
       9App    1.759345    24Ap     1.886735    10App    2.103138  
      25Ap     2.103139    26Ap     2.258258    27Ap     2.625145  
      28Ap     2.714777    11App    2.714779    12App    2.725733  
      29Ap     2.725733    13App    2.786726    30Ap     2.786734  
      14App    2.990405    31Ap     2.990407    32Ap     3.171320  
      15App    3.171361    33Ap     3.192810    16App    3.313617  
      34Ap     3.313635    35Ap     3.611857    17App    3.611861  
      36Ap     3.756266    37Ap     4.054224    18App    4.054224  
      38Ap     4.079096    19App    4.079117    39Ap     4.115736  
      40Ap     4.606131    20App    4.606138    21App    4.644953  
      41Ap     4.644955    22App    4.761712    42Ap     4.761718  
      43Ap     4.765556    44Ap     5.132455    45Ap     5.359135  
      23App    5.359139    46Ap     5.790003    47Ap     6.303745  
      24App    6.303750    48Ap     6.515902    49Ap     8.311595  
      50Ap    14.865177  

    Final Occupation by Irrep:
             Ap   App 
    DOCC [     6,    1 ]

  @DF-RKS Final Energy:   -93.42886542845039

   => Energetics <=

    Nuclear Repulsion Energy =             24.0775163175066780
    One-Electron Energy =                -173.1464116363935943
    Two-Electron Energy =                  64.5514751581433472
    DFT Exchange-Correlation Energy =      -8.9698233410898744
    Empirical Dispersion Energy =           0.0000000000000000
    VV10 Nonlocal Energy =                  0.0583780733830648
    Total Energy =                        -93.4288654284503792

Computation Completed


Properties will be evaluated at   0.000000,   0.000000,   0.000000 [a0]

Properties computed using the SCF density matrix

  Nuclear Dipole Moment: [e a0]
     X:     0.0000      Y:    -0.0021      Z:    -1.5187

  Electronic Dipole Moment: [e a0]
     X:     0.0000      Y:     0.0011      Z:     0.3432

  Dipole Moment: [e a0]
     X:     0.0000      Y:    -0.0010      Z:    -1.1755     Total:     1.1755

  Dipole Moment: [D]
     X:     0.0000      Y:    -0.0024      Z:    -2.9877     Total:     2.9877


*** tstop() called on bp1-compute00116.data.bp.acrc.priv at Tue Apr 27 17:46:57 2021
Module time:
	user time   =      75.10 seconds =       1.25 minutes
	system time =       2.19 seconds =       0.04 minutes
	total time  =          3 seconds =       0.05 minutes
Total time:
	user time   =    1859.45 seconds =      30.99 minutes
	system time =      62.15 seconds =       1.04 minutes
	total time  =         80 seconds =       1.33 minutes

         ----------------------------------------------------------
                                   FINDIF
                     R. A. King and Jonathon Misiewicz
         ---------------------------------------------------------

  Computing second-derivative from energies using projected, 
  symmetry-adapted, cartesian coordinates.

  9 energies passed in, including the reference geometry.
    Using 3-point formula.
    Energy without displacement:  -93.4288657064
    Check energies below for precision!
    0: -1        :       -93.4288605623
    0: 1         :       -93.4288603988
    1: -1        :       -93.4288628894
    1: 1         :       -93.4288628566
    0: 1, 1: 1   :       -93.4288598889
    0: -1, 1: -1 :       -93.4288600586
    2: -1        :       -93.4288654285
    3: -1        :       -93.4288654285

-------------------------------------------------------------


  ==> Harmonic Vibrational Analysis <==

  non-mass-weighted Hessian:       Symmetric? True   Hermitian? True   Lin Dep Dim?  5 (0)
  projection of translations (True) and rotations (True) removed 5 degrees of freedom (5)
  total projector:                 Symmetric? True   Hermitian? True   Lin Dep Dim?  5 (5)
  mass-weighted Hessian:           Symmetric? True   Hermitian? True   Lin Dep Dim?  5 (0)
  pre-proj  low-frequency mode:    0.0000i [cm^-1]
  pre-proj  low-frequency mode:    0.0000i [cm^-1]
  pre-proj  low-frequency mode:    0.0000i [cm^-1]
  pre-proj  low-frequency mode:    0.0000i [cm^-1]
  pre-proj  low-frequency mode:    0.0000  [cm^-1]
  pre-proj  all modes:['0.0000i' '0.0000i' '0.0000i' '0.0000i' '0.0000' '766.4185' '766.4721'
 '2234.0721' '3470.6940']
  projected mass-weighted Hessian: Symmetric? True   Hermitian? True   Lin Dep Dim?  5 (5)
  post-proj low-frequency mode:    0.0000i [cm^-1] (TR)
  post-proj low-frequency mode:    0.0000  [cm^-1] (TR)
  post-proj low-frequency mode:    0.0000  [cm^-1] (TR)
  post-proj low-frequency mode:    0.0000  [cm^-1] (TR)
  post-proj low-frequency mode:    0.0000  [cm^-1] (TR)
  post-proj  all modes:['0.0000i' '0.0000' '0.0000' '0.0000' '0.0000' '766.4185' '766.4721'
 '2234.0721' '3470.6940']

  Vibration                       6                   7                   8           
  Freq [cm^-1]                 766.4185            766.4721           2234.0721       
  Irrep                           B1                  B2                  A1          
  Reduced mass [u]              1.3445              1.3445              4.9597        
  Force const [mDyne/A]         0.4653              0.4654             14.5847        
  Turning point v=0 [a0]        0.3418              0.3418              0.1042        
  RMS dev v=0 [a0 u^1/2]        0.2803              0.2803              0.1642        
  Char temp [K]               1102.7056           1102.7826           3214.3324       
  ----------------------------------------------------------------------------------
      1   H                0.98  0.00 -0.00   -0.00  0.98 -0.00    0.00 -0.00 -0.82   
      2   C               -0.16  0.00 -0.00   -0.00 -0.16  0.00    0.00  0.00 -0.41   
      3   N                0.07  0.00 -0.00   -0.00  0.07  0.00    0.00  0.00  0.41   

  Vibration                       9           
  Freq [cm^-1]                3470.6940       
  Irrep                           A1          
  Reduced mass [u]              1.1986        
  Force const [mDyne/A]         8.5068        
  Turning point v=0 [a0]        0.1701        
  RMS dev v=0 [a0 u^1/2]        0.1317        
  Char temp [K]               4993.5559       
  ----------------------------------------------------------------------------------
      1   H                0.00 -0.00  0.99   
      2   C               -0.00 -0.00 -0.13   
      3   N               -0.00 -0.00  0.04   

  ==> Thermochemistry Components <==

  Entropy, S
    Electronic S            0.000 [cal/(mol K)]        0.000 [J/(mol K)]       0.00000000 [mEh/K] (multiplicity = 1)
    Translational S        35.816 [cal/(mol K)]      149.856 [J/(mol K)]       0.05707695 [mEh/K] (mol. weight = 27.0109 [u], P = 101325.00 [Pa])
    Rotational S           11.775 [cal/(mol K)]       49.268 [J/(mol K)]       0.01876507 [mEh/K] (symmetry no. = 1)
    Vibrational S           0.473 [cal/(mol K)]        1.980 [J/(mol K)]       0.00075424 [mEh/K]
  Total S                  48.065 [cal/(mol K)]      201.103 [J/(mol K)]       0.07659627 [mEh/K]
  Correction S              0.000 [cal/(mol K)]        0.000 [J/(mol K)]       0.00000000 [mEh/K]

  Constant volume heat capacity, Cv
    Electronic Cv           0.000 [cal/(mol K)]        0.000 [J/(mol K)]       0.00000000 [mEh/K]
    Translational Cv        2.981 [cal/(mol K)]       12.472 [J/(mol K)]       0.00475022 [mEh/K]
    Rotational Cv           1.987 [cal/(mol K)]        8.314 [J/(mol K)]       0.00316681 [mEh/K]
    Vibrational Cv          1.420 [cal/(mol K)]        5.942 [J/(mol K)]       0.00226306 [mEh/K]
  Total Cv                  6.388 [cal/(mol K)]       26.728 [J/(mol K)]       0.01018009 [mEh/K]
  Correction Cv             0.000 [cal/(mol K)]        0.000 [J/(mol K)]       0.00000000 [mEh/K]

  Constant pressure heat capacity, Cp
    Electronic Cp           0.000 [cal/(mol K)]        0.000 [J/(mol K)]       0.00000000 [mEh/K]
    Translational Cp        4.968 [cal/(mol K)]       20.786 [J/(mol K)]       0.00791703 [mEh/K]
    Rotational Cp           1.987 [cal/(mol K)]        8.314 [J/(mol K)]       0.00316681 [mEh/K]
    Vibrational Cp          1.420 [cal/(mol K)]        5.942 [J/(mol K)]       0.00226306 [mEh/K]
  Total Cp                  8.375 [cal/(mol K)]       35.042 [J/(mol K)]       0.01334690 [mEh/K]
  Correction Cp             0.000 [cal/(mol K)]        0.000 [J/(mol K)]       0.00000000 [mEh/K]

  ==> Thermochemistry Energy Analysis <==

  Raw electronic energy, E0
  Total E0, Electronic energy at well bottom at 0 [K]                  -93.42886571 [Eh]

  Zero-point energy, ZPE_vib = Sum_i nu_i / 2
    Electronic ZPE          0.000 [kcal/mol]        0.000 [kJ/mol]       0.00000000 [Eh]
    Translational ZPE       0.000 [kcal/mol]        0.000 [kJ/mol]       0.00000000 [Eh]
    Rotational ZPE          0.000 [kcal/mol]        0.000 [kJ/mol]       0.00000000 [Eh]
    Vibrational ZPE        10.347 [kcal/mol]       43.291 [kJ/mol]       0.01648860 [Eh]        3618.828 [cm^-1]
  Correction ZPE           10.347 [kcal/mol]       43.291 [kJ/mol]       0.01648860 [Eh]        3618.828 [cm^-1]
  Total ZPE, Electronic energy at 0 [K]                                -93.41237711 [Eh]

  Thermal Energy, E (includes ZPE)
    Electronic E            0.000 [kcal/mol]        0.000 [kJ/mol]       0.00000000 [Eh]
    Translational E         0.889 [kcal/mol]        3.718 [kJ/mol]       0.00141628 [Eh]
    Rotational E            0.592 [kcal/mol]        2.479 [kJ/mol]       0.00094418 [Eh]
    Vibrational E          10.458 [kcal/mol]       43.757 [kJ/mol]       0.01666611 [Eh]
  Correction E             11.939 [kcal/mol]       49.954 [kJ/mol]       0.01902657 [Eh]
  Total E, Electronic energy at  298.15 [K]                            -93.40983913 [Eh]

  Enthalpy, H_trans = E_trans + k_B * T
    Electronic H            0.000 [kcal/mol]        0.000 [kJ/mol]       0.00000000 [Eh]
    Translational H         1.481 [kcal/mol]        6.197 [kJ/mol]       0.00236046 [Eh]
    Rotational H            0.592 [kcal/mol]        2.479 [kJ/mol]       0.00094418 [Eh]
    Vibrational H          10.458 [kcal/mol]       43.757 [kJ/mol]       0.01666611 [Eh]
  Correction H             12.532 [kcal/mol]       52.433 [kJ/mol]       0.01997076 [Eh]
  Total H, Enthalpy at  298.15 [K]                                     -93.40889495 [Eh]

  Gibbs free energy, G = H - T * S
    Electronic G            0.000 [kcal/mol]        0.000 [kJ/mol]       0.00000000 [Eh]
    Translational G        -9.197 [kcal/mol]      -38.482 [kJ/mol]      -0.01465703 [Eh]
    Rotational G           -2.918 [kcal/mol]      -12.210 [kJ/mol]      -0.00465062 [Eh]
    Vibrational G          10.317 [kcal/mol]       43.166 [kJ/mol]       0.01644124 [Eh]
  Correction G             -1.799 [kcal/mol]       -7.526 [kJ/mol]      -0.00286642 [Eh]
  Total G, Free enthalpy at  298.15 [K]                                -93.43173212 [Eh]

    Psi4 stopped on: Tuesday, 27 April 2021 05:46PM
    Psi4 wall time for execution: 0:01:20.96

*** Psi4 exiting successfully. Buy a developer a beer!
