
    -----------------------------------------------------------------------
          Psi4: An Open-Source Ab Initio Electronic Structure Package
                               Psi4 1.3.2 release

                         Git: Rev {HEAD} ecbda83 


    R. M. Parrish, L. A. Burns, D. G. A. Smith, A. C. Simmonett,
    A. E. DePrince III, E. G. Hohenstein, U. Bozkaya, A. Yu. Sokolov,
    R. Di Remigio, R. M. Richard, J. F. Gonthier, A. M. James,
    H. R. McAlexander, A. Kumar, M. Saitow, X. Wang, B. P. Pritchard,
    P. Verma, H. F. Schaefer III, K. Patkowski, R. A. King, E. F. Valeev,
    F. A. Evangelista, J. M. Turney, T. D. Crawford, and C. D. Sherrill,
    J. Chem. Theory Comput. 13(7) pp 3185--3197 (2017).
    (doi: 10.1021/acs.jctc.7b00174)


                         Additional Contributions by
    P. Kraus, H. Kruse, M. H. Lechner, M. C. Schieber, R. A. Shaw,
    A. Alenaizan, R. Galvelis, Z. L. Glick, S. Lehtola, and J. P. Misiewicz

    -----------------------------------------------------------------------


    Psi4 started on: Tuesday, 27 April 2021 05:45PM

    Process ID: 37787
    Host:       bp1-compute00100.data.bp.acrc.priv
    PSIDATADIR: /work/zw18965/.conda/envs/p4env/share/psi4
    Memory:     500.0 MiB
    Threads:    24
    
  ==> Input File <==

--------------------------------------------------------------------------
memory 144 GB

molecule {
0 1
F 0.0000000000 0.0000000000 0.0000000000
H 0.0000000000 0.0000000000 0.9157690000
}

set dynamic_level 1
set basis cc-pV(T+d)Z
 
optimize("wB97M-V")
frequencies("wB97M-V")
--------------------------------------------------------------------------

  Memory set to 134.110 GiB by Python driver.
gradient() will perform gradient computation by finite difference of analytic energies.

         ----------------------------------------------------------
                                   FINDIF
                     R. A. King and Jonathon Misiewicz
         ---------------------------------------------------------

  Using finite-differences of energies to determine gradients.
    Generating geometries for use with 3-point formula.
    Displacement size will be 5.00e-03.
    Number of atoms is 2.
    Number of symmetric SALCs is 1.
    Translations projected? 1. Rotations projected? 1.
    Number of geometries (including reference) is 3.

  //>>>>>>>>>>>>>>>>>>>>>>>>>>>>>>>>>>>//
  //    Loading displacement 1 of 3    //
  //<<<<<<<<<<<<<<<<<<<<<<<<<<<<<<<<<<<//

*** tstart() called on bp1-compute00100.data.bp.acrc.priv
*** at Tue Apr 27 17:45:58 2021

   => Loading Basis Set <=

    Name: CC-PV(T+D)Z
    Role: ORBITAL
    Keyword: BASIS
    atoms 1 entry F          line   309 file /work/zw18965/.conda/envs/p4env/share/psi4/basis/cc-pv_tpd_z.gbs 
    atoms 2 entry H          line    32 file /work/zw18965/.conda/envs/p4env/share/psi4/basis/cc-pv_tpd_z.gbs 


         ---------------------------------------------------------
                                   SCF
               by Justin Turney, Rob Parrish, Andy Simmonett
                          and Daniel G. A. Smith
                              RKS Reference
                       24 Threads, 137329 MiB Core
         ---------------------------------------------------------

  ==> Geometry <==

    Molecular point group: c2v
    Full point group: C_inf_v

    Geometry (in Angstrom), charge = 0, multiplicity = 1:

       Center              X                  Y                   Z               Mass       
    ------------   -----------------  -----------------  -----------------  -----------------
         F            0.000000000000     0.000000000000    -0.046132380024    18.998403162730
         H            0.000000000000     0.000000000000     0.869636619976     1.007825032230

  Running in c2v symmetry.

  Rotational constants: A = ************  B =     21.00330  C =     21.00330 [cm^-1]
  Rotational constants: A = ************  B = 629663.18359  C = 629663.18359 [MHz]
  Nuclear repulsion =    5.200650924010313

  Charge       = 0
  Multiplicity = 1
  Electrons    = 10
  Nalpha       = 5
  Nbeta        = 5

  ==> Algorithm <==

  SCF Algorithm Type is DF.
  DIIS enabled.
  MOM disabled.
  Fractional occupation disabled.
  Guess Type is SAD.
  Energy threshold   = 1.00e-08
  Density threshold  = 1.00e-08
  Integral threshold = 0.00e+00

  ==> Primary Basis <==

  Basis Set: CC-PV(T+D)Z
    Blend: CC-PV(T+D)Z
    Number of shells: 16
    Number of basis function: 44
    Number of Cartesian functions: 50
    Spherical Harmonics?: true
    Max angular momentum: 3

  ==> DFT Potential <==

   => Composite Functional: WB97M-V <= 

    wB97M-V Hyb-GGA Exchange-Correlation Functional

    N. Mardirossian and M. Head-Gordon, J. Chem. Phys. 144, 214110 (2016)

    Deriv               =              1
    GGA                 =           TRUE
    Meta                =           TRUE

    Exchange Hybrid     =           TRUE
    MP2 Hybrid          =          FALSE

   => Exchange-Correlation Functionals <=

    1.0000   wB97M-V exchange-correlation functional

   => Exact (HF) Exchange <=

    0.8500            HF,LR [omega = 0.3000]
    0.1500               HF 

   => VV10 Non-Local Parameters <=

    VV10 B              =     6.0000E+00
    VV10 C              =     1.0000E-02

   => Molecular Quadrature <=

    Radial Scheme          =       TREUTLER
    Pruning Scheme         =           FLAT
    Nuclear Scheme         =       TREUTLER

    BS radius alpha        =              1
    Pruning alpha          =              1
    Radial Points          =             75
    Spherical Points       =            302
    Total Points           =          44435
    Total Blocks           =            398
    Max Points             =            256
    Max Functions          =             44

   => Loading Basis Set <=

    Name: (CC-PV(T+D)Z AUX)
    Role: JKFIT
    Keyword: DF_BASIS_SCF
    atoms 1 entry F          line   281 file /work/zw18965/.conda/envs/p4env/share/psi4/basis/cc-pvtz-jkfit.gbs 
    atoms 2 entry H          line    51 file /work/zw18965/.conda/envs/p4env/share/psi4/basis/cc-pvtz-jkfit.gbs 

  ==> Pre-Iterations <==

   -------------------------------------------------------
    Irrep   Nso     Nmo     Nalpha   Nbeta   Ndocc  Nsocc
   -------------------------------------------------------
     A1        20      20       0       0       0       0
     A2         4       4       0       0       0       0
     B1        10      10       0       0       0       0
     B2        10      10       0       0       0       0
   -------------------------------------------------------
    Total      44      44       5       5       5       0
   -------------------------------------------------------

  ==> Integral Setup <==

  ==> DiskDFJK: Density-Fitted J/K Matrices <==

    J tasked:                  Yes
    K tasked:                  Yes
    wK tasked:                 Yes
    Omega:               3.000E-01
    OpenMP threads:             24
    Integrals threads:          24
    Memory [MiB]:           102863
    Algorithm:                Core
    Integral Cache:           NONE
    Schwarz Cutoff:          1E-12
    Fitting Condition:       1E-10

   => Auxiliary Basis Set <=

  Basis Set: (CC-PV(T+D)Z AUX)
    Blend: CC-PVTZ-JKFIT
    Number of shells: 35
    Number of basis function: 109
    Number of Cartesian functions: 131
    Spherical Harmonics?: true
    Max angular momentum: 4

  Cached 100.0% of DFT collocation blocks in 0.131 [GiB].

  Minimum eigenvalue in the overlap matrix is 3.7243958983E-03.
  Using Symmetric Orthogonalization.

  SCF Guess: Superposition of Atomic Densities via on-the-fly atomic UHF.

  ==> Iterations <==

                           Total Energy        Delta E     RMS |[F,P]|

   @DF-RKS iter SAD:  -100.12039342992607   -1.00120e+02   0.00000e+00 
   @DF-RKS iter   1:  -100.40225876380444   -2.81865e-01   1.58532e-02 DIIS
   @DF-RKS iter   2:  -100.40703363277490   -4.77487e-03   1.70140e-02 DIIS
   @DF-RKS iter   3:  -100.45089953755762   -4.38659e-02   6.21639e-04 DIIS
   @DF-RKS iter   4:  -100.45097101476657   -7.14772e-05   1.31724e-04 DIIS
   @DF-RKS iter   5:  -100.45097548556384   -4.47080e-06   1.50345e-05 DIIS
   @DF-RKS iter   6:  -100.45097559144045   -1.05877e-07   2.00675e-06 DIIS
   @DF-RKS iter   7:  -100.45097559462735   -3.18690e-09   3.93905e-07 DIIS
   @DF-RKS iter   8:  -100.45097559470300   -7.56444e-11   2.54258e-08 DIIS
   @DF-RKS iter   9:  -100.45097559470348   -4.83169e-13   3.58293e-09 DIIS
  Energy and wave function converged.


  ==> Post-Iterations <==

    Orbital Energies [Eh]
    ---------------------

    Doubly Occupied:                                                      

       1A1   -24.881041     2A1    -1.323219     3A1    -0.650412  
       1B1    -0.514908     1B2    -0.514908  

    Virtual:                                                              

       4A1     0.096976     5A1     0.467399     6A1     0.733488  
       2B2     0.759660     2B1     0.759660     3B1     0.890747  
       3B2     0.890747     7A1     1.284296     8A1     1.410962  
       1A2     2.047308     9A1     2.047308    10A1     2.103677  
       4B2     2.336003     4B1     2.336003    11A1     2.963645  
       2A2     3.349605    12A1     3.349607     5B2     3.634063  
       5B1     3.634063    13A1     3.991518     6B1     4.039872  
       6B2     4.039872    14A1     4.810987     7B1     4.980414  
       7B2     4.980414    15A1     5.870581     8B2     7.024857  
       8B1     7.024857    16A1     7.213174     3A2     7.213175  
       9B1     8.029529     9B2     8.029529    17A1     8.068502  
       4A2     8.444998    18A1     8.444999    10B2     8.883156  
      10B1     8.883156    19A1     9.226604    20A1    11.943032  

    Final Occupation by Irrep:
             A1    A2    B1    B2 
    DOCC [     3,    0,    1,    1 ]

  @DF-RKS Final Energy:  -100.45097559470348

   => Energetics <=

    Nuclear Repulsion Energy =              5.2006509240103131
    One-Electron Energy =                -150.5842292802859959
    Two-Electron Energy =                  52.8117774563926119
    DFT Exchange-Correlation Energy =      -7.9225860910439012
    Empirical Dispersion Energy =           0.0000000000000000
    VV10 Nonlocal Energy =                  0.0434113962234835
    Total Energy =                       -100.4509755947034790

Computation Completed


Properties will be evaluated at   0.000000,   0.000000,   0.000000 [a0]

Properties computed using the SCF density matrix

  Nuclear Dipole Moment: [e a0]
     X:     0.0000      Y:     0.0000      Z:     0.8588

  Electronic Dipole Moment: [e a0]
     X:     0.0000      Y:     0.0000      Z:    -0.1472

  Dipole Moment: [e a0]
     X:     0.0000      Y:     0.0000      Z:     0.7116     Total:     0.7116

  Dipole Moment: [D]
     X:     0.0000      Y:     0.0000      Z:     1.8088     Total:     1.8088


*** tstop() called on bp1-compute00100.data.bp.acrc.priv at Tue Apr 27 17:46:00 2021
Module time:
	user time   =      49.69 seconds =       0.83 minutes
	system time =       2.34 seconds =       0.04 minutes
	total time  =          2 seconds =       0.03 minutes
Total time:
	user time   =      49.69 seconds =       0.83 minutes
	system time =       2.34 seconds =       0.04 minutes
	total time  =          2 seconds =       0.03 minutes

  //>>>>>>>>>>>>>>>>>>>>>>>>>>>>>>>>>>>//
  //    Loading displacement 2 of 3    //
  //<<<<<<<<<<<<<<<<<<<<<<<<<<<<<<<<<<<//

*** tstart() called on bp1-compute00100.data.bp.acrc.priv
*** at Tue Apr 27 17:46:00 2021

   => Loading Basis Set <=

    Name: CC-PV(T+D)Z
    Role: ORBITAL
    Keyword: BASIS
    atoms 1 entry F          line   309 file /work/zw18965/.conda/envs/p4env/share/psi4/basis/cc-pv_tpd_z.gbs 
    atoms 2 entry H          line    32 file /work/zw18965/.conda/envs/p4env/share/psi4/basis/cc-pv_tpd_z.gbs 


         ---------------------------------------------------------
                                   SCF
               by Justin Turney, Rob Parrish, Andy Simmonett
                          and Daniel G. A. Smith
                              RKS Reference
                       24 Threads, 137329 MiB Core
         ---------------------------------------------------------

  ==> Geometry <==

    Molecular point group: c2v
    Full point group: C_inf_v

    Geometry (in Angstrom), charge = 0, multiplicity = 1:

       Center              X                  Y                   Z               Mass       
    ------------   -----------------  -----------------  -----------------  -----------------
         F            0.000000000000     0.000000000000    -0.046268625644    18.998403162730
         H            0.000000000000     0.000000000000     0.872204971754     1.007825032230

  Running in c2v symmetry.

  Rotational constants: A = ************  B =     20.87979  C =     20.87979 [cm^-1]
  Rotational constants: A = ************  B = 625960.34869  C = 625960.34869 [MHz]
  Nuclear repulsion =    5.185336747319763

  Charge       = 0
  Multiplicity = 1
  Electrons    = 10
  Nalpha       = 5
  Nbeta        = 5

  ==> Algorithm <==

  SCF Algorithm Type is DF.
  DIIS enabled.
  MOM disabled.
  Fractional occupation disabled.
  Guess Type is SAD.
  Energy threshold   = 1.00e-08
  Density threshold  = 1.00e-08
  Integral threshold = 0.00e+00

  ==> Primary Basis <==

  Basis Set: CC-PV(T+D)Z
    Blend: CC-PV(T+D)Z
    Number of shells: 16
    Number of basis function: 44
    Number of Cartesian functions: 50
    Spherical Harmonics?: true
    Max angular momentum: 3

  ==> DFT Potential <==

   => Composite Functional: WB97M-V <= 

    wB97M-V Hyb-GGA Exchange-Correlation Functional

    N. Mardirossian and M. Head-Gordon, J. Chem. Phys. 144, 214110 (2016)

    Deriv               =              1
    GGA                 =           TRUE
    Meta                =           TRUE

    Exchange Hybrid     =           TRUE
    MP2 Hybrid          =          FALSE

   => Exchange-Correlation Functionals <=

    1.0000   wB97M-V exchange-correlation functional

   => Exact (HF) Exchange <=

    0.8500            HF,LR [omega = 0.3000]
    0.1500               HF 

   => VV10 Non-Local Parameters <=

    VV10 B              =     6.0000E+00
    VV10 C              =     1.0000E-02

   => Molecular Quadrature <=

    Radial Scheme          =       TREUTLER
    Pruning Scheme         =           FLAT
    Nuclear Scheme         =       TREUTLER

    BS radius alpha        =              1
    Pruning alpha          =              1
    Radial Points          =             75
    Spherical Points       =            302
    Total Points           =          44435
    Total Blocks           =            400
    Max Points             =            256
    Max Functions          =             44

   => Loading Basis Set <=

    Name: (CC-PV(T+D)Z AUX)
    Role: JKFIT
    Keyword: DF_BASIS_SCF
    atoms 1 entry F          line   281 file /work/zw18965/.conda/envs/p4env/share/psi4/basis/cc-pvtz-jkfit.gbs 
    atoms 2 entry H          line    51 file /work/zw18965/.conda/envs/p4env/share/psi4/basis/cc-pvtz-jkfit.gbs 

  ==> Pre-Iterations <==

   -------------------------------------------------------
    Irrep   Nso     Nmo     Nalpha   Nbeta   Ndocc  Nsocc
   -------------------------------------------------------
     A1        20      20       0       0       0       0
     A2         4       4       0       0       0       0
     B1        10      10       0       0       0       0
     B2        10      10       0       0       0       0
   -------------------------------------------------------
    Total      44      44       5       5       5       0
   -------------------------------------------------------

  ==> Integral Setup <==

  ==> DiskDFJK: Density-Fitted J/K Matrices <==

    J tasked:                  Yes
    K tasked:                  Yes
    wK tasked:                 Yes
    Omega:               3.000E-01
    OpenMP threads:             24
    Integrals threads:          24
    Memory [MiB]:           102863
    Algorithm:                Core
    Integral Cache:           NONE
    Schwarz Cutoff:          1E-12
    Fitting Condition:       1E-10

   => Auxiliary Basis Set <=

  Basis Set: (CC-PV(T+D)Z AUX)
    Blend: CC-PVTZ-JKFIT
    Number of shells: 35
    Number of basis function: 109
    Number of Cartesian functions: 131
    Spherical Harmonics?: true
    Max angular momentum: 4

  Cached 100.0% of DFT collocation blocks in 0.131 [GiB].

  Minimum eigenvalue in the overlap matrix is 3.7725139224E-03.
  Using Symmetric Orthogonalization.

  SCF Guess: Superposition of Atomic Densities via on-the-fly atomic UHF.

  ==> Iterations <==

                           Total Energy        Delta E     RMS |[F,P]|

   @DF-RKS iter SAD:  -100.11908447350189   -1.00119e+02   0.00000e+00 
   @DF-RKS iter   1:  -100.40220134392251   -2.83117e-01   1.58482e-02 DIIS
   @DF-RKS iter   2:  -100.40685971393052   -4.65837e-03   1.70433e-02 DIIS
   @DF-RKS iter   3:  -100.45092116685768   -4.40615e-02   6.25404e-04 DIIS
   @DF-RKS iter   4:  -100.45099348938547   -7.23225e-05   1.32978e-04 DIIS
   @DF-RKS iter   5:  -100.45099805565212   -4.56627e-06   1.51953e-05 DIIS
   @DF-RKS iter   6:  -100.45099816447998   -1.08828e-07   2.02751e-06 DIIS
   @DF-RKS iter   7:  -100.45099816775632   -3.27634e-09   3.98766e-07 DIIS
   @DF-RKS iter   8:  -100.45099816783379   -7.74634e-11   2.56808e-08 DIIS
   @DF-RKS iter   9:  -100.45099816783430   -5.11591e-13   3.61838e-09 DIIS
  Energy and wave function converged.


  ==> Post-Iterations <==

    Orbital Energies [Eh]
    ---------------------

    Doubly Occupied:                                                      

       1A1   -24.881101     2A1    -1.322339     3A1    -0.649730  
       1B2    -0.514659     1B1    -0.514659  

    Virtual:                                                              

       4A1     0.096473     5A1     0.465615     6A1     0.734162  
       2B2     0.758758     2B1     0.758758     3B2     0.891143  
       3B1     0.891143     7A1     1.282186     8A1     1.410812  
       1A2     2.047606     9A1     2.047606    10A1     2.107258  
       4B2     2.334146     4B1     2.334146    11A1     2.959711  
       2A2     3.348068    12A1     3.348069     5B2     3.633815  
       5B1     3.633815    13A1     3.989079     6B1     4.036642  
       6B2     4.036642    14A1     4.798528     7B2     4.978014  
       7B1     4.978014    15A1     5.873270     8B1     7.025096  
       8B2     7.025096    16A1     7.210458     3A2     7.210459  
       9B2     8.020030     9B1     8.020030    17A1     8.064457  
       4A2     8.444842    18A1     8.444844    10B1     8.881844  
      10B2     8.881844    19A1     9.224262    20A1    11.915710  

    Final Occupation by Irrep:
             A1    A2    B1    B2 
    DOCC [     3,    0,    1,    1 ]

  @DF-RKS Final Energy:  -100.45099816783430

   => Energetics <=

    Nuclear Repulsion Energy =              5.1853367473197629
    One-Electron Energy =                -150.5583076561843825
    Two-Electron Energy =                  52.8000278591717773
    DFT Exchange-Correlation Energy =      -7.9214653035532949
    Empirical Dispersion Energy =           0.0000000000000000
    VV10 Nonlocal Energy =                  0.0434101854118401
    Total Energy =                       -100.4509981678342996

Computation Completed


Properties will be evaluated at   0.000000,   0.000000,   0.000000 [a0]

Properties computed using the SCF density matrix

  Nuclear Dipole Moment: [e a0]
     X:     0.0000      Y:     0.0000      Z:     0.8613

  Electronic Dipole Moment: [e a0]
     X:     0.0000      Y:     0.0000      Z:    -0.1481

  Dipole Moment: [e a0]
     X:     0.0000      Y:     0.0000      Z:     0.7132     Total:     0.7132

  Dipole Moment: [D]
     X:     0.0000      Y:     0.0000      Z:     1.8128     Total:     1.8128


*** tstop() called on bp1-compute00100.data.bp.acrc.priv at Tue Apr 27 17:46:02 2021
Module time:
	user time   =      51.70 seconds =       0.86 minutes
	system time =       2.23 seconds =       0.04 minutes
	total time  =          2 seconds =       0.03 minutes
Total time:
	user time   =     101.57 seconds =       1.69 minutes
	system time =       4.58 seconds =       0.08 minutes
	total time  =          4 seconds =       0.07 minutes

  //>>>>>>>>>>>>>>>>>>>>>>>>>>>>>>>>>>>//
  //    Loading displacement 3 of 3    //
  //<<<<<<<<<<<<<<<<<<<<<<<<<<<<<<<<<<<//

*** tstart() called on bp1-compute00100.data.bp.acrc.priv
*** at Tue Apr 27 17:46:02 2021

   => Loading Basis Set <=

    Name: CC-PV(T+D)Z
    Role: ORBITAL
    Keyword: BASIS
    atoms 1 entry F          line   309 file /work/zw18965/.conda/envs/p4env/share/psi4/basis/cc-pv_tpd_z.gbs 
    atoms 2 entry H          line    32 file /work/zw18965/.conda/envs/p4env/share/psi4/basis/cc-pv_tpd_z.gbs 


         ---------------------------------------------------------
                                   SCF
               by Justin Turney, Rob Parrish, Andy Simmonett
                          and Daniel G. A. Smith
                              RKS Reference
                       24 Threads, 137329 MiB Core
         ---------------------------------------------------------

  ==> Geometry <==

    Molecular point group: c2v
    Full point group: C_inf_v

    Geometry (in Angstrom), charge = 0, multiplicity = 1:

       Center              X                  Y                   Z               Mass       
    ------------   -----------------  -----------------  -----------------  -----------------
         F            0.000000000000     0.000000000000    -0.045996134404    18.998403162730
         H            0.000000000000     0.000000000000     0.867068268198     1.007825032230

  Running in c2v symmetry.

  Rotational constants: A = ************  B =     21.12792  C =     21.12792 [cm^-1]
  Rotational constants: A = ************  B = 633398.97182  C = 633398.97182 [MHz]
  Nuclear repulsion =    5.216055825259414

  Charge       = 0
  Multiplicity = 1
  Electrons    = 10
  Nalpha       = 5
  Nbeta        = 5

  ==> Algorithm <==

  SCF Algorithm Type is DF.
  DIIS enabled.
  MOM disabled.
  Fractional occupation disabled.
  Guess Type is SAD.
  Energy threshold   = 1.00e-08
  Density threshold  = 1.00e-08
  Integral threshold = 0.00e+00

  ==> Primary Basis <==

  Basis Set: CC-PV(T+D)Z
    Blend: CC-PV(T+D)Z
    Number of shells: 16
    Number of basis function: 44
    Number of Cartesian functions: 50
    Spherical Harmonics?: true
    Max angular momentum: 3

  ==> DFT Potential <==

   => Composite Functional: WB97M-V <= 

    wB97M-V Hyb-GGA Exchange-Correlation Functional

    N. Mardirossian and M. Head-Gordon, J. Chem. Phys. 144, 214110 (2016)

    Deriv               =              1
    GGA                 =           TRUE
    Meta                =           TRUE

    Exchange Hybrid     =           TRUE
    MP2 Hybrid          =          FALSE

   => Exchange-Correlation Functionals <=

    1.0000   wB97M-V exchange-correlation functional

   => Exact (HF) Exchange <=

    0.8500            HF,LR [omega = 0.3000]
    0.1500               HF 

   => VV10 Non-Local Parameters <=

    VV10 B              =     6.0000E+00
    VV10 C              =     1.0000E-02

   => Molecular Quadrature <=

    Radial Scheme          =       TREUTLER
    Pruning Scheme         =           FLAT
    Nuclear Scheme         =       TREUTLER

    BS radius alpha        =              1
    Pruning alpha          =              1
    Radial Points          =             75
    Spherical Points       =            302
    Total Points           =          44435
    Total Blocks           =            400
    Max Points             =            256
    Max Functions          =             44

   => Loading Basis Set <=

    Name: (CC-PV(T+D)Z AUX)
    Role: JKFIT
    Keyword: DF_BASIS_SCF
    atoms 1 entry F          line   281 file /work/zw18965/.conda/envs/p4env/share/psi4/basis/cc-pvtz-jkfit.gbs 
    atoms 2 entry H          line    51 file /work/zw18965/.conda/envs/p4env/share/psi4/basis/cc-pvtz-jkfit.gbs 

  ==> Pre-Iterations <==

   -------------------------------------------------------
    Irrep   Nso     Nmo     Nalpha   Nbeta   Ndocc  Nsocc
   -------------------------------------------------------
     A1        20      20       0       0       0       0
     A2         4       4       0       0       0       0
     B1        10      10       0       0       0       0
     B2        10      10       0       0       0       0
   -------------------------------------------------------
    Total      44      44       5       5       5       0
   -------------------------------------------------------

  ==> Integral Setup <==

  ==> DiskDFJK: Density-Fitted J/K Matrices <==

    J tasked:                  Yes
    K tasked:                  Yes
    wK tasked:                 Yes
    Omega:               3.000E-01
    OpenMP threads:             24
    Integrals threads:          24
    Memory [MiB]:           102863
    Algorithm:                Core
    Integral Cache:           NONE
    Schwarz Cutoff:          1E-12
    Fitting Condition:       1E-10

   => Auxiliary Basis Set <=

  Basis Set: (CC-PV(T+D)Z AUX)
    Blend: CC-PVTZ-JKFIT
    Number of shells: 35
    Number of basis function: 109
    Number of Cartesian functions: 131
    Spherical Harmonics?: true
    Max angular momentum: 4

  Cached 100.0% of DFT collocation blocks in 0.131 [GiB].

  Minimum eigenvalue in the overlap matrix is 3.6769023834E-03.
  Using Symmetric Orthogonalization.

  SCF Guess: Superposition of Atomic Densities via on-the-fly atomic UHF.

  ==> Iterations <==

                           Total Energy        Delta E     RMS |[F,P]|

   @DF-RKS iter SAD:  -100.12169392418009   -1.00122e+02   0.00000e+00 
   @DF-RKS iter   1:  -100.40229680296751   -2.80603e-01   1.58587e-02 DIIS
   @DF-RKS iter   2:  -100.40718725242218   -4.89045e-03   1.69852e-02 DIIS
   @DF-RKS iter   3:  -100.45086125169517   -4.36740e-02   6.17892e-04 DIIS
   @DF-RKS iter   4:  -100.45093189581890   -7.06441e-05   1.30480e-04 DIIS
   @DF-RKS iter   5:  -100.45093627273836   -4.37692e-06   1.48747e-05 DIIS
   @DF-RKS iter   6:  -100.45093637572155   -1.02983e-07   1.98607e-06 DIIS
   @DF-RKS iter   7:  -100.45093637881983   -3.09828e-09   3.89032e-07 DIIS
   @DF-RKS iter   8:  -100.45093637889391   -7.40812e-11   2.51739e-08 DIIS
   @DF-RKS iter   9:  -100.45093637889434   -4.26326e-13   3.54751e-09 DIIS
  Energy and wave function converged.


  ==> Post-Iterations <==

    Orbital Energies [Eh]
    ---------------------

    Doubly Occupied:                                                      

       1A1   -24.880980     2A1    -1.324105     3A1    -0.651094  
       1B1    -0.515157     1B2    -0.515157  

    Virtual:                                                              

       4A1     0.097475     5A1     0.469193     6A1     0.732815  
       2B1     0.760565     2B2     0.760565     3B2     0.890348  
       3B1     0.890348     7A1     1.286354     8A1     1.411179  
       1A2     2.047012     9A1     2.047013    10A1     2.100129  
       4B2     2.337856     4B1     2.337856    11A1     2.967579  
       2A2     3.351152    12A1     3.351153     5B2     3.634298  
       5B1     3.634298    13A1     3.993968     6B1     4.043119  
       6B2     4.043119    14A1     4.823566     7B2     4.982813  
       7B1     4.982813    15A1     5.867910     8B1     7.024618  
       8B2     7.024618    16A1     7.215918     3A2     7.215918  
       9B2     8.039092     9B1     8.039092    17A1     8.072580  
       4A2     8.445153    18A1     8.445155    10B2     8.884454  
      10B1     8.884454    19A1     9.229019    20A1    11.970512  

    Final Occupation by Irrep:
             A1    A2    B1    B2 
    DOCC [     3,    0,    1,    1 ]

  @DF-RKS Final Energy:  -100.45093637889434

   => Energetics <=

    Nuclear Repulsion Energy =              5.2160558252594145
    One-Electron Energy =                -150.6102787565698691
    Two-Electron Energy =                  52.8235881805533865
    DFT Exchange-Correlation Energy =      -7.9237142441829533
    Empirical Dispersion Energy =           0.0000000000000000
    VV10 Nonlocal Energy =                  0.0434126160456734
    Total Energy =                       -100.4509363788943546

Computation Completed


Properties will be evaluated at   0.000000,   0.000000,   0.000000 [a0]

Properties computed using the SCF density matrix

  Nuclear Dipole Moment: [e a0]
     X:     0.0000      Y:     0.0000      Z:     0.8562

  Electronic Dipole Moment: [e a0]
     X:     0.0000      Y:     0.0000      Z:    -0.1462

  Dipole Moment: [e a0]
     X:     0.0000      Y:     0.0000      Z:     0.7100     Total:     0.7100

  Dipole Moment: [D]
     X:     0.0000      Y:     0.0000      Z:     1.8047     Total:     1.8047


*** tstop() called on bp1-compute00100.data.bp.acrc.priv at Tue Apr 27 17:46:04 2021
Module time:
	user time   =      48.36 seconds =       0.81 minutes
	system time =       1.78 seconds =       0.03 minutes
	total time  =          2 seconds =       0.03 minutes
Total time:
	user time   =     150.10 seconds =       2.50 minutes
	system time =       6.37 seconds =       0.11 minutes
	total time  =          6 seconds =       0.10 minutes

         ----------------------------------------------------------
                                   FINDIF
                     R. A. King and Jonathon Misiewicz
         ---------------------------------------------------------

  Computing gradient from energies.
    Using 3-point formula.
    Energy without displacement: -100.4509755947
    Check energies below for precision!
    Forces are for mass-weighted, symmetry-adapted cartesians (in au).

     Coord      Energy(-1)        Energy(+1)            Force
        0   -100.4509981678   -100.4509363789      0.0061788940


-------------------------------------------------------------
  ## New Matrix (Symmetry 0) ##
  Irrep: 1 Size: 2 x 3

                 1                   2                   3

    1     0.00000000000000     0.00000000000000     0.00604476269259
    2     0.00000000000000     0.00000000000000    -0.00604476269259




			-----------------------------------------
			 OPTKING 2.0: for geometry optimizations 
			  - R.A. King,  Bethel University        
			-----------------------------------------
	At level 1: Red. Int., RFO, no backsteps, dynamic trust

	Internal coordinates to be generated automatically.
	Detected frag 1 with atoms:  1 2
	---Fragment 1 Bond Connectivity---
	 1 : 2
	 2 : 1

	---Fragment 1 Geometry and Gradient---
	 F           0.0000000000        0.0000000000       -0.0871775638
	 H           0.0000000000        0.0000000000        1.6433750404
	             0.0000000000        0.0000000000        0.0060447627
	             0.0000000000        0.0000000000       -0.0060447627

	Previous optimization step data not found.  Starting new optimization.

	---Fragment 1 Intrafragment Coordinates---
	 - Coordinate -           - BOHR/RAD -       - ANG/DEG -
	 R(1,2)           =         1.730553	       0.915769

	Current energy   :      -100.4509755947

	Generating empirical Hessian (Schlegel '84) for each fragment.
	Taking RFO optimization step.
	Going to follow RFO solution 1.
	Using RFO vector 1.
	Norm of target step-size    0.00913
	Projected energy change by RFO approximation:        -0.0000135031

	Back-transformation to cartesian coordinates...
	Successfully converged to displaced geometry.

	--- Internal Coordinate Step in ANG or DEG, aJ/ANG or AJ/DEG ---
	 ---------------------------------------------------------------------------
	   Coordinate                Previous        Force       Change         New 
	   ----------                --------       ------       ------       ------
	    1 R(1,2)          =      0.915769     0.049801     0.004832     0.920601
	 ---------------------------------------------------------------------------
	Successfully symmetrized geometry.

  ==> Convergence Check <==

  Measures of convergence in internal coordinates in au.
  Criteria marked as inactive (o), active & met (*), and active & unmet ( ).
  --------------------------------------------------------------------------------------------- ~
   Step     Total Energy     Delta E     MAX Force     RMS Force      MAX Disp      RMS Disp    ~
  --------------------------------------------------------------------------------------------- ~
    Convergence Criteria    1.00e-06 *    3.00e-04 *             o    1.20e-03 *             o  ~
  --------------------------------------------------------------------------------------------- ~
      1    -100.45097559   -1.00e+02      6.04e-03      6.04e-03 o    9.13e-03      9.13e-03 o  ~
  ---------------------------------------------------------------------------------------------

	Writing optimization data to binary file.
	Structure for next step:
	Cartesian Geometry (in Angstrom)
	    F     0.0000000000   0.0000000000  -0.0485485922
	    H     0.0000000000   0.0000000000   0.8720528290
			--------------------------
			 OPTKING Finished Execution 
			--------------------------

    Structure for next step:
    Molecular point group: c2v
    Full point group: C_inf_v

    Geometry (in Angstrom), charge = 0, multiplicity = 1:

    F            0.000000000000     0.000000000000    -0.046375816151
    H            0.000000000000     0.000000000000     0.874225608666

gradient() will perform gradient computation by finite difference of analytic energies.

         ----------------------------------------------------------
                                   FINDIF
                     R. A. King and Jonathon Misiewicz
         ---------------------------------------------------------

  Using finite-differences of energies to determine gradients.
    Generating geometries for use with 3-point formula.
    Displacement size will be 5.00e-03.
    Number of atoms is 2.
    Number of symmetric SALCs is 1.
    Translations projected? 1. Rotations projected? 1.
    Number of geometries (including reference) is 3.

  //>>>>>>>>>>>>>>>>>>>>>>>>>>>>>>>>>>>//
  //    Loading displacement 1 of 3    //
  //<<<<<<<<<<<<<<<<<<<<<<<<<<<<<<<<<<<//

*** tstart() called on bp1-compute00100.data.bp.acrc.priv
*** at Tue Apr 27 17:46:04 2021

   => Loading Basis Set <=

    Name: CC-PV(T+D)Z
    Role: ORBITAL
    Keyword: BASIS
    atoms 1 entry F          line   309 file /work/zw18965/.conda/envs/p4env/share/psi4/basis/cc-pv_tpd_z.gbs 
    atoms 2 entry H          line    32 file /work/zw18965/.conda/envs/p4env/share/psi4/basis/cc-pv_tpd_z.gbs 


         ---------------------------------------------------------
                                   SCF
               by Justin Turney, Rob Parrish, Andy Simmonett
                          and Daniel G. A. Smith
                              RKS Reference
                       24 Threads, 137329 MiB Core
         ---------------------------------------------------------

  ==> Geometry <==

    Molecular point group: c2v
    Full point group: C_inf_v

    Geometry (in Angstrom), charge = 0, multiplicity = 1:

       Center              X                  Y                   Z               Mass       
    ------------   -----------------  -----------------  -----------------  -----------------
         F            0.000000000000     0.000000000000    -0.046375816151    18.998403162730
         H            0.000000000000     0.000000000000     0.874225608666     1.007825032230

  Running in c2v symmetry.

  Rotational constants: A = ************  B =     20.78338  C =     20.78338 [cm^-1]
  Rotational constants: A = ************  B = 623070.07223  C = 623070.07223 [MHz]
  Nuclear repulsion =    5.173351645612558

  Charge       = 0
  Multiplicity = 1
  Electrons    = 10
  Nalpha       = 5
  Nbeta        = 5

  ==> Algorithm <==

  SCF Algorithm Type is DF.
  DIIS enabled.
  MOM disabled.
  Fractional occupation disabled.
  Guess Type is READ.
  Energy threshold   = 1.00e-08
  Density threshold  = 1.00e-08
  Integral threshold = 0.00e+00

  ==> Primary Basis <==

  Basis Set: CC-PV(T+D)Z
    Blend: CC-PV(T+D)Z
    Number of shells: 16
    Number of basis function: 44
    Number of Cartesian functions: 50
    Spherical Harmonics?: true
    Max angular momentum: 3

  ==> DFT Potential <==

   => Composite Functional: WB97M-V <= 

    wB97M-V Hyb-GGA Exchange-Correlation Functional

    N. Mardirossian and M. Head-Gordon, J. Chem. Phys. 144, 214110 (2016)

    Deriv               =              1
    GGA                 =           TRUE
    Meta                =           TRUE

    Exchange Hybrid     =           TRUE
    MP2 Hybrid          =          FALSE

   => Exchange-Correlation Functionals <=

    1.0000   wB97M-V exchange-correlation functional

   => Exact (HF) Exchange <=

    0.8500            HF,LR [omega = 0.3000]
    0.1500               HF 

   => VV10 Non-Local Parameters <=

    VV10 B              =     6.0000E+00
    VV10 C              =     1.0000E-02

   => Molecular Quadrature <=

    Radial Scheme          =       TREUTLER
    Pruning Scheme         =           FLAT
    Nuclear Scheme         =       TREUTLER

    BS radius alpha        =              1
    Pruning alpha          =              1
    Radial Points          =             75
    Spherical Points       =            302
    Total Points           =          44435
    Total Blocks           =            399
    Max Points             =            256
    Max Functions          =             44

   => Loading Basis Set <=

    Name: (CC-PV(T+D)Z AUX)
    Role: JKFIT
    Keyword: DF_BASIS_SCF
    atoms 1 entry F          line   281 file /work/zw18965/.conda/envs/p4env/share/psi4/basis/cc-pvtz-jkfit.gbs 
    atoms 2 entry H          line    51 file /work/zw18965/.conda/envs/p4env/share/psi4/basis/cc-pvtz-jkfit.gbs 

   => Loading Basis Set <=

    Name: CC-PV(T+D)Z
    Role: ORBITAL
    Keyword: BASIS
    atoms 1 entry F          line   309 file /work/zw18965/.conda/envs/p4env/share/psi4/basis/cc-pv_tpd_z.gbs 
    atoms 2 entry H          line    32 file /work/zw18965/.conda/envs/p4env/share/psi4/basis/cc-pv_tpd_z.gbs 

  Reading orbitals from file 180, no projection.

  ==> Pre-Iterations <==

   -------------------------------------------------------
    Irrep   Nso     Nmo     Nalpha   Nbeta   Ndocc  Nsocc
   -------------------------------------------------------
     A1        20      20       0       0       0       0
     A2         4       4       0       0       0       0
     B1        10      10       0       0       0       0
     B2        10      10       0       0       0       0
   -------------------------------------------------------
    Total      44      44       5       5       5       0
   -------------------------------------------------------

  ==> Integral Setup <==

  ==> DiskDFJK: Density-Fitted J/K Matrices <==

    J tasked:                  Yes
    K tasked:                  Yes
    wK tasked:                 Yes
    Omega:               3.000E-01
    OpenMP threads:             24
    Integrals threads:          24
    Memory [MiB]:           102863
    Algorithm:                Core
    Integral Cache:           NONE
    Schwarz Cutoff:          1E-12
    Fitting Condition:       1E-10

   => Auxiliary Basis Set <=

  Basis Set: (CC-PV(T+D)Z AUX)
    Blend: CC-PVTZ-JKFIT
    Number of shells: 35
    Number of basis function: 109
    Number of Cartesian functions: 131
    Spherical Harmonics?: true
    Max angular momentum: 4

  Cached 100.0% of DFT collocation blocks in 0.131 [GiB].

  Minimum eigenvalue in the overlap matrix is 3.8108141886E-03.
  Using Symmetric Orthogonalization.

  SCF Guess: Orbitals guess was supplied from a previous computation.

  ==> Iterations <==

                           Total Energy        Delta E     RMS |[F,P]|

   @DF-RKS iter   0:  -100.44766027959288   -1.00448e+02   4.44731e-04 
   @DF-RKS iter   1:  -100.45100255881400   -3.34228e-03   9.62271e-05 DIIS
   @DF-RKS iter   2:  -100.45100366905008   -1.11024e-06   7.36806e-05 DIIS
   @DF-RKS iter   3:  -100.45100441250646   -7.43456e-07   1.19552e-05 DIIS
   @DF-RKS iter   4:  -100.45100443752521   -2.50187e-08   2.70566e-06 DIIS
   @DF-RKS iter   5:  -100.45100443968073   -2.15552e-09   3.33081e-07 DIIS
   @DF-RKS iter   6:  -100.45100443973641   -5.56781e-11   1.92167e-08 DIIS
   @DF-RKS iter   7:  -100.45100443973693   -5.25802e-13   1.69413e-09 DIIS
  Energy and wave function converged.


  ==> Post-Iterations <==

    Orbital Energies [Eh]
    ---------------------

    Doubly Occupied:                                                      

       1A1   -24.881148     2A1    -1.321651     3A1    -0.649195  
       1B2    -0.514465     1B1    -0.514465  

    Virtual:                                                              

       4A1     0.096075     5A1     0.464219     6A1     0.734693  
       2B2     0.758050     2B1     0.758050     3B2     0.891454  
       3B1     0.891454     7A1     1.280493     8A1     1.410740  
       1A2     2.047842     9A1     2.047843    10A1     2.110097  
       4B1     2.332682     4B2     2.332682    11A1     2.956617  
       2A2     3.346864    12A1     3.346865     5B2     3.633611  
       5B1     3.633611    13A1     3.987166     6B2     4.034113  
       6B1     4.034113    14A1     4.788812     7B2     4.976125  
       7B1     4.976125    15A1     5.875397     8B1     7.025284  
       8B2     7.025284    16A1     7.208342     3A2     7.208343  
       9B2     8.012602     9B1     8.012602    17A1     8.061299  
       4A2     8.444718    18A1     8.444720    10B2     8.880801  
      10B1     8.880801    19A1     9.222470    20A1    11.894326  

    Final Occupation by Irrep:
             A1    A2    B1    B2 
    DOCC [     3,    0,    1,    1 ]

  @DF-RKS Final Energy:  -100.45100443973693

   => Energetics <=

    Nuclear Repulsion Energy =              5.1733516456125583
    One-Electron Energy =                -150.5380034646346417
    Two-Electron Energy =                  52.7908268353742116
    DFT Exchange-Correlation Energy =      -7.9205886952293003
    Empirical Dispersion Energy =           0.0000000000000000
    VV10 Nonlocal Energy =                  0.0434092391402180
    Total Energy =                       -100.4510044397369342

Computation Completed


Properties will be evaluated at   0.000000,   0.000000,   0.000000 [a0]

Properties computed using the SCF density matrix

  Nuclear Dipole Moment: [e a0]
     X:     0.0000      Y:     0.0000      Z:     0.8633

  Electronic Dipole Moment: [e a0]
     X:     0.0000      Y:     0.0000      Z:    -0.1489

  Dipole Moment: [e a0]
     X:     0.0000      Y:     0.0000      Z:     0.7145     Total:     0.7145

  Dipole Moment: [D]
     X:     0.0000      Y:     0.0000      Z:     1.8160     Total:     1.8160


*** tstop() called on bp1-compute00100.data.bp.acrc.priv at Tue Apr 27 17:46:06 2021
Module time:
	user time   =      36.56 seconds =       0.61 minutes
	system time =       1.38 seconds =       0.02 minutes
	total time  =          2 seconds =       0.03 minutes
Total time:
	user time   =     187.15 seconds =       3.12 minutes
	system time =       7.78 seconds =       0.13 minutes
	total time  =          8 seconds =       0.13 minutes

  //>>>>>>>>>>>>>>>>>>>>>>>>>>>>>>>>>>>//
  //    Loading displacement 2 of 3    //
  //<<<<<<<<<<<<<<<<<<<<<<<<<<<<<<<<<<<//

*** tstart() called on bp1-compute00100.data.bp.acrc.priv
*** at Tue Apr 27 17:46:06 2021

   => Loading Basis Set <=

    Name: CC-PV(T+D)Z
    Role: ORBITAL
    Keyword: BASIS
    atoms 1 entry F          line   309 file /work/zw18965/.conda/envs/p4env/share/psi4/basis/cc-pv_tpd_z.gbs 
    atoms 2 entry H          line    32 file /work/zw18965/.conda/envs/p4env/share/psi4/basis/cc-pv_tpd_z.gbs 


         ---------------------------------------------------------
                                   SCF
               by Justin Turney, Rob Parrish, Andy Simmonett
                          and Daniel G. A. Smith
                              RKS Reference
                       24 Threads, 137329 MiB Core
         ---------------------------------------------------------

  ==> Geometry <==

    Molecular point group: c2v
    Full point group: C_inf_v

    Geometry (in Angstrom), charge = 0, multiplicity = 1:

       Center              X                  Y                   Z               Mass       
    ------------   -----------------  -----------------  -----------------  -----------------
         F            0.000000000000     0.000000000000    -0.046512061770    18.998403162730
         H            0.000000000000     0.000000000000     0.876793960444     1.007825032230

  Running in c2v symmetry.

  Rotational constants: A = ************  B =     20.66180  C =     20.66180 [cm^-1]
  Rotational constants: A = ************  B = 619425.15812  C = 619425.15812 [MHz]
  Nuclear repulsion =    5.158197587194012

  Charge       = 0
  Multiplicity = 1
  Electrons    = 10
  Nalpha       = 5
  Nbeta        = 5

  ==> Algorithm <==

  SCF Algorithm Type is DF.
  DIIS enabled.
  MOM disabled.
  Fractional occupation disabled.
  Guess Type is READ.
  Energy threshold   = 1.00e-08
  Density threshold  = 1.00e-08
  Integral threshold = 0.00e+00

  ==> Primary Basis <==

  Basis Set: CC-PV(T+D)Z
    Blend: CC-PV(T+D)Z
    Number of shells: 16
    Number of basis function: 44
    Number of Cartesian functions: 50
    Spherical Harmonics?: true
    Max angular momentum: 3

  ==> DFT Potential <==

   => Composite Functional: WB97M-V <= 

    wB97M-V Hyb-GGA Exchange-Correlation Functional

    N. Mardirossian and M. Head-Gordon, J. Chem. Phys. 144, 214110 (2016)

    Deriv               =              1
    GGA                 =           TRUE
    Meta                =           TRUE

    Exchange Hybrid     =           TRUE
    MP2 Hybrid          =          FALSE

   => Exchange-Correlation Functionals <=

    1.0000   wB97M-V exchange-correlation functional

   => Exact (HF) Exchange <=

    0.8500            HF,LR [omega = 0.3000]
    0.1500               HF 

   => VV10 Non-Local Parameters <=

    VV10 B              =     6.0000E+00
    VV10 C              =     1.0000E-02

   => Molecular Quadrature <=

    Radial Scheme          =       TREUTLER
    Pruning Scheme         =           FLAT
    Nuclear Scheme         =       TREUTLER

    BS radius alpha        =              1
    Pruning alpha          =              1
    Radial Points          =             75
    Spherical Points       =            302
    Total Points           =          44435
    Total Blocks           =            400
    Max Points             =            256
    Max Functions          =             44

   => Loading Basis Set <=

    Name: (CC-PV(T+D)Z AUX)
    Role: JKFIT
    Keyword: DF_BASIS_SCF
    atoms 1 entry F          line   281 file /work/zw18965/.conda/envs/p4env/share/psi4/basis/cc-pvtz-jkfit.gbs 
    atoms 2 entry H          line    51 file /work/zw18965/.conda/envs/p4env/share/psi4/basis/cc-pvtz-jkfit.gbs 

   => Loading Basis Set <=

    Name: CC-PV(T+D)Z
    Role: ORBITAL
    Keyword: BASIS
    atoms 1 entry F          line   309 file /work/zw18965/.conda/envs/p4env/share/psi4/basis/cc-pv_tpd_z.gbs 
    atoms 2 entry H          line    32 file /work/zw18965/.conda/envs/p4env/share/psi4/basis/cc-pv_tpd_z.gbs 

  Reading orbitals from file 180, no projection.

  ==> Pre-Iterations <==

   -------------------------------------------------------
    Irrep   Nso     Nmo     Nalpha   Nbeta   Ndocc  Nsocc
   -------------------------------------------------------
     A1        20      20       0       0       0       0
     A2         4       4       0       0       0       0
     B1        10      10       0       0       0       0
     B2        10      10       0       0       0       0
   -------------------------------------------------------
    Total      44      44       5       5       5       0
   -------------------------------------------------------

  ==> Integral Setup <==

  ==> DiskDFJK: Density-Fitted J/K Matrices <==

    J tasked:                  Yes
    K tasked:                  Yes
    wK tasked:                 Yes
    Omega:               3.000E-01
    OpenMP threads:             24
    Integrals threads:          24
    Memory [MiB]:           102863
    Algorithm:                Core
    Integral Cache:           NONE
    Schwarz Cutoff:          1E-12
    Fitting Condition:       1E-10

   => Auxiliary Basis Set <=

  Basis Set: (CC-PV(T+D)Z AUX)
    Blend: CC-PVTZ-JKFIT
    Number of shells: 35
    Number of basis function: 109
    Number of Cartesian functions: 131
    Spherical Harmonics?: true
    Max angular momentum: 4

  Cached 100.0% of DFT collocation blocks in 0.131 [GiB].

  Minimum eigenvalue in the overlap matrix is 3.8600660730E-03.
  Using Symmetric Orthogonalization.

  SCF Guess: Orbitals guess was supplied from a previous computation.

  ==> Iterations <==

                           Total Energy        Delta E     RMS |[F,P]|

   @DF-RKS iter   0:  -100.44912547632315   -1.00449e+02   2.45357e-04 
   @DF-RKS iter   1:  -100.45099748682733   -1.87201e-03   5.36856e-05 DIIS
   @DF-RKS iter   2:  -100.45099783290577   -3.46078e-07   4.10881e-05 DIIS
   @DF-RKS iter   3:  -100.45099806413370   -2.31228e-07   6.70414e-06 DIIS
   @DF-RKS iter   4:  -100.45099807200630   -7.87260e-09   1.51574e-06 DIIS
   @DF-RKS iter   5:  -100.45099807268284   -6.76536e-10   1.86183e-07 DIIS
   @DF-RKS iter   6:  -100.45099807270043   -1.75930e-11   1.07476e-08 DIIS
   @DF-RKS iter   7:  -100.45099807270050   -7.10543e-14   9.49012e-10 DIIS
  Energy and wave function converged.


  ==> Post-Iterations <==

    Orbital Energies [Eh]
    ---------------------

    Doubly Occupied:                                                      

       1A1   -24.881205     2A1    -1.320784     3A1    -0.648514  
       1B1    -0.514218     1B2    -0.514218  

    Virtual:                                                              

       4A1     0.095566     5A1     0.462453     6A1     0.735369  
       2B1     0.757152     2B2     0.757152     3B1     0.891846  
       3B2     0.891846     7A1     1.278301     8A1     1.410701  
       1A2     2.048146     9A1     2.048146    10A1     2.113731  
       4B1     2.330819     4B2     2.330819    11A1     2.952684  
       2A2     3.345342    12A1     3.345343     5B2     3.633339  
       5B1     3.633339    13A1     3.984744     6B1     4.030911  
       6B2     4.030911    14A1     4.776569     7B1     4.973725  
       7B2     4.973725    15A1     5.878111     8B1     7.025522  
       8B2     7.025522    16A1     7.205676     3A2     7.205677  
       9B1     8.003219     9B2     8.003219    17A1     8.057313  
       4A2     8.444561    18A1     8.444563    10B1     8.879463  
      10B2     8.879463    19A1     9.220261    20A1    11.867286  

    Final Occupation by Irrep:
             A1    A2    B1    B2 
    DOCC [     3,    0,    1,    1 ]

  @DF-RKS Final Energy:  -100.45099807270050

   => Energetics <=

    Nuclear Repulsion Energy =              5.1581975871940120
    One-Electron Energy =                -150.5123081304516006
    Two-Electron Energy =                  52.7791853598122955
    DFT Exchange-Correlation Energy =      -7.9194809336430785
    Empirical Dispersion Energy =           0.0000000000000000
    VV10 Nonlocal Energy =                  0.0434080443878527
    Total Energy =                       -100.4509980727005143

Computation Completed


Properties will be evaluated at   0.000000,   0.000000,   0.000000 [a0]

Properties computed using the SCF density matrix

  Nuclear Dipole Moment: [e a0]
     X:     0.0000      Y:     0.0000      Z:     0.8658

  Electronic Dipole Moment: [e a0]
     X:     0.0000      Y:     0.0000      Z:    -0.1498

  Dipole Moment: [e a0]
     X:     0.0000      Y:     0.0000      Z:     0.7160     Total:     0.7160

  Dipole Moment: [D]
     X:     0.0000      Y:     0.0000      Z:     1.8200     Total:     1.8200


*** tstop() called on bp1-compute00100.data.bp.acrc.priv at Tue Apr 27 17:46:08 2021
Module time:
	user time   =      37.28 seconds =       0.62 minutes
	system time =       1.46 seconds =       0.02 minutes
	total time  =          2 seconds =       0.03 minutes
Total time:
	user time   =     224.56 seconds =       3.74 minutes
	system time =       9.25 seconds =       0.15 minutes
	total time  =         10 seconds =       0.17 minutes

  //>>>>>>>>>>>>>>>>>>>>>>>>>>>>>>>>>>>//
  //    Loading displacement 3 of 3    //
  //<<<<<<<<<<<<<<<<<<<<<<<<<<<<<<<<<<<//

*** tstart() called on bp1-compute00100.data.bp.acrc.priv
*** at Tue Apr 27 17:46:08 2021

   => Loading Basis Set <=

    Name: CC-PV(T+D)Z
    Role: ORBITAL
    Keyword: BASIS
    atoms 1 entry F          line   309 file /work/zw18965/.conda/envs/p4env/share/psi4/basis/cc-pv_tpd_z.gbs 
    atoms 2 entry H          line    32 file /work/zw18965/.conda/envs/p4env/share/psi4/basis/cc-pv_tpd_z.gbs 


         ---------------------------------------------------------
                                   SCF
               by Justin Turney, Rob Parrish, Andy Simmonett
                          and Daniel G. A. Smith
                              RKS Reference
                       24 Threads, 137329 MiB Core
         ---------------------------------------------------------

  ==> Geometry <==

    Molecular point group: c2v
    Full point group: C_inf_v

    Geometry (in Angstrom), charge = 0, multiplicity = 1:

       Center              X                  Y                   Z               Mass       
    ------------   -----------------  -----------------  -----------------  -----------------
         F            0.000000000000     0.000000000000    -0.046239570531    18.998403162730
         H            0.000000000000     0.000000000000     0.871657256888     1.007825032230

  Running in c2v symmetry.

  Rotational constants: A = ************  B =     20.90604  C =     20.90604 [cm^-1]
  Rotational constants: A = ************  B = 626747.25318  C = 626747.25318 [MHz]
  Nuclear repulsion =    5.188595007372703

  Charge       = 0
  Multiplicity = 1
  Electrons    = 10
  Nalpha       = 5
  Nbeta        = 5

  ==> Algorithm <==

  SCF Algorithm Type is DF.
  DIIS enabled.
  MOM disabled.
  Fractional occupation disabled.
  Guess Type is READ.
  Energy threshold   = 1.00e-08
  Density threshold  = 1.00e-08
  Integral threshold = 0.00e+00

  ==> Primary Basis <==

  Basis Set: CC-PV(T+D)Z
    Blend: CC-PV(T+D)Z
    Number of shells: 16
    Number of basis function: 44
    Number of Cartesian functions: 50
    Spherical Harmonics?: true
    Max angular momentum: 3

  ==> DFT Potential <==

   => Composite Functional: WB97M-V <= 

    wB97M-V Hyb-GGA Exchange-Correlation Functional

    N. Mardirossian and M. Head-Gordon, J. Chem. Phys. 144, 214110 (2016)

    Deriv               =              1
    GGA                 =           TRUE
    Meta                =           TRUE

    Exchange Hybrid     =           TRUE
    MP2 Hybrid          =          FALSE

   => Exchange-Correlation Functionals <=

    1.0000   wB97M-V exchange-correlation functional

   => Exact (HF) Exchange <=

    0.8500            HF,LR [omega = 0.3000]
    0.1500               HF 

   => VV10 Non-Local Parameters <=

    VV10 B              =     6.0000E+00
    VV10 C              =     1.0000E-02

   => Molecular Quadrature <=

    Radial Scheme          =       TREUTLER
    Pruning Scheme         =           FLAT
    Nuclear Scheme         =       TREUTLER

    BS radius alpha        =              1
    Pruning alpha          =              1
    Radial Points          =             75
    Spherical Points       =            302
    Total Points           =          44435
    Total Blocks           =            400
    Max Points             =            256
    Max Functions          =             44

   => Loading Basis Set <=

    Name: (CC-PV(T+D)Z AUX)
    Role: JKFIT
    Keyword: DF_BASIS_SCF
    atoms 1 entry F          line   281 file /work/zw18965/.conda/envs/p4env/share/psi4/basis/cc-pvtz-jkfit.gbs 
    atoms 2 entry H          line    51 file /work/zw18965/.conda/envs/p4env/share/psi4/basis/cc-pvtz-jkfit.gbs 

   => Loading Basis Set <=

    Name: CC-PV(T+D)Z
    Role: ORBITAL
    Keyword: BASIS
    atoms 1 entry F          line   309 file /work/zw18965/.conda/envs/p4env/share/psi4/basis/cc-pv_tpd_z.gbs 
    atoms 2 entry H          line    32 file /work/zw18965/.conda/envs/p4env/share/psi4/basis/cc-pv_tpd_z.gbs 

  Reading orbitals from file 180, no projection.

  ==> Pre-Iterations <==

   -------------------------------------------------------
    Irrep   Nso     Nmo     Nalpha   Nbeta   Ndocc  Nsocc
   -------------------------------------------------------
     A1        20      20       0       0       0       0
     A2         4       4       0       0       0       0
     B1        10      10       0       0       0       0
     B2        10      10       0       0       0       0
   -------------------------------------------------------
    Total      44      44       5       5       5       0
   -------------------------------------------------------

  ==> Integral Setup <==

  ==> DiskDFJK: Density-Fitted J/K Matrices <==

    J tasked:                  Yes
    K tasked:                  Yes
    wK tasked:                 Yes
    Omega:               3.000E-01
    OpenMP threads:             24
    Integrals threads:          24
    Memory [MiB]:           102863
    Algorithm:                Core
    Integral Cache:           NONE
    Schwarz Cutoff:          1E-12
    Fitting Condition:       1E-10

   => Auxiliary Basis Set <=

  Basis Set: (CC-PV(T+D)Z AUX)
    Blend: CC-PVTZ-JKFIT
    Number of shells: 35
    Number of basis function: 109
    Number of Cartesian functions: 131
    Spherical Harmonics?: true
    Max angular momentum: 4

  Cached 100.0% of DFT collocation blocks in 0.131 [GiB].

  Minimum eigenvalue in the overlap matrix is 3.7621997428E-03.
  Using Symmetric Orthogonalization.

  SCF Guess: Orbitals guess was supplied from a previous computation.

  ==> Iterations <==

                           Total Energy        Delta E     RMS |[F,P]|

   @DF-RKS iter   0:  -100.45287100395794   -1.00453e+02   2.47301e-04 
   @DF-RKS iter   1:  -100.45099415177856    1.87685e-03   5.34983e-05 DIIS
   @DF-RKS iter   2:  -100.45099449868324   -3.46905e-07   4.07327e-05 DIIS
   @DF-RKS iter   3:  -100.45099472549403   -2.26811e-07   6.68183e-06 DIIS
   @DF-RKS iter   4:  -100.45099473329918   -7.80516e-09   1.50915e-06 DIIS
   @DF-RKS iter   5:  -100.45099473397097   -6.71790e-10   1.86392e-07 DIIS
   @DF-RKS iter   6:  -100.45099473398827   -1.72946e-11   1.06702e-08 DIIS
   @DF-RKS iter   7:  -100.45099473398854   -2.70006e-13   9.37506e-10 DIIS
  Energy and wave function converged.


  ==> Post-Iterations <==

    Orbital Energies [Eh]
    ---------------------

    Doubly Occupied:                                                      

       1A1   -24.881089     2A1    -1.322526     3A1    -0.649876  
       1B2    -0.514712     1B1    -0.514712  

    Virtual:                                                              

       4A1     0.096580     5A1     0.465995     6A1     0.734018  
       2B2     0.758950     2B1     0.758950     3B2     0.891059  
       3B1     0.891059     7A1     1.282640     8A1     1.410839  
       1A2     2.047542     9A1     2.047542    10A1     2.106492  
       4B2     2.334542     4B1     2.334542    11A1     2.960550  
       2A2     3.348395    12A1     3.348396     5B1     3.633869  
       5B2     3.633869    13A1     3.989598     6B1     4.037330  
       6B2     4.037330    14A1     4.801175     7B2     4.978526  
       7B1     4.978526    15A1     5.872695     8B2     7.025045  
       8B1     7.025045    16A1     7.211035     3A2     7.211036  
       9B2     8.022050     9B1     8.022050    17A1     8.065317  
       4A2     8.444875    18A1     8.444877    10B1     8.882125  
      10B2     8.882125    19A1     9.224755    20A1    11.921524  

    Final Occupation by Irrep:
             A1    A2    B1    B2 
    DOCC [     3,    0,    1,    1 ]

  @DF-RKS Final Energy:  -100.45099473398854

   => Energetics <=

    Nuclear Repulsion Energy =              5.1885950073727027
    One-Electron Energy =                -150.5638251499194666
    Two-Electron Energy =                  52.8025286986048101
    DFT Exchange-Correlation Energy =      -7.9217037329462219
    Empirical Dispersion Energy =           0.0000000000000000
    VV10 Nonlocal Energy =                  0.0434104428996397
    Total Energy =                       -100.4509947339885372

Computation Completed


Properties will be evaluated at   0.000000,   0.000000,   0.000000 [a0]

Properties computed using the SCF density matrix

  Nuclear Dipole Moment: [e a0]
     X:     0.0000      Y:     0.0000      Z:     0.8608

  Electronic Dipole Moment: [e a0]
     X:     0.0000      Y:     0.0000      Z:    -0.1479

  Dipole Moment: [e a0]
     X:     0.0000      Y:     0.0000      Z:     0.7129     Total:     0.7129

  Dipole Moment: [D]
     X:     0.0000      Y:     0.0000      Z:     1.8119     Total:     1.8119


*** tstop() called on bp1-compute00100.data.bp.acrc.priv at Tue Apr 27 17:46:09 2021
Module time:
	user time   =      35.88 seconds =       0.60 minutes
	system time =       1.39 seconds =       0.02 minutes
	total time  =          1 seconds =       0.02 minutes
Total time:
	user time   =     260.57 seconds =       4.34 minutes
	system time =      10.65 seconds =       0.18 minutes
	total time  =         11 seconds =       0.18 minutes

         ----------------------------------------------------------
                                   FINDIF
                     R. A. King and Jonathon Misiewicz
         ---------------------------------------------------------

  Computing gradient from energies.
    Using 3-point formula.
    Energy without displacement: -100.4510044397
    Check energies below for precision!
    Forces are for mass-weighted, symmetry-adapted cartesians (in au).

     Coord      Energy(-1)        Energy(+1)            Force
        0   -100.4509980727   -100.4509947340      0.0003338712


-------------------------------------------------------------
  ## New Matrix (Symmetry 0) ##
  Irrep: 1 Size: 2 x 3

                 1                   2                   3

    1     0.00000000000000     0.00000000000000     0.00032662352725
    2     0.00000000000000     0.00000000000000    -0.00032662352725




			-----------------------------------------
			 OPTKING 2.0: for geometry optimizations 
			  - R.A. King,  Bethel University        
			-----------------------------------------
	At level 1: Red. Int., RFO, no backsteps, dynamic trust

	Previous internal coordinate definitions found.
	---Fragment 1 Geometry and Gradient---
	 F           0.0000000000        0.0000000000       -0.0876375914
	 H           0.0000000000        0.0000000000        1.6520469722
	             0.0000000000        0.0000000000        0.0003266235
	             0.0000000000        0.0000000000       -0.0003266235

	---Fragment 1 Intrafragment Coordinates---
	 - Coordinate -           - BOHR/RAD -       - ANG/DEG -
	 R(1,2)           =         1.739685	       0.920601

	Current energy   :      -100.4510044397

	Energy change for the previous step:
		Projected    :        -0.0000135031
		Actual       :        -0.0000288450
	Energy ratio indicates good step: Trust radius increased to 1.000e+00.


	Performing BFGS update.
	Previous computed or guess Hessian on step 1.
	Steps to be used in Hessian update: 1
	Taking RFO optimization step.
	Going to follow RFO solution 1.
	Using RFO vector 1.
	Norm of target step-size    0.00052
	Projected energy change by RFO approximation:        -0.0000000343

	Back-transformation to cartesian coordinates...
	Successfully converged to displaced geometry.

	--- Internal Coordinate Step in ANG or DEG, aJ/ANG or AJ/DEG ---
	 ---------------------------------------------------------------------------
	   Coordinate                Previous        Force       Change         New 
	   ----------                --------       ------       ------       ------
	    1 R(1,2)          =      0.920601     0.002691     0.000276     0.920877
	 ---------------------------------------------------------------------------
	Successfully symmetrized geometry.

  ==> Convergence Check <==

  Measures of convergence in internal coordinates in au.
  Criteria marked as inactive (o), active & met (*), and active & unmet ( ).
  ---------------------------------------------------------------------------------------------
   Step     Total Energy     Delta E     MAX Force     RMS Force      MAX Disp      RMS Disp   
  ---------------------------------------------------------------------------------------------
    Convergence Criteria    1.00e-06 *    3.00e-04 *             o    1.20e-03 *             o
  ---------------------------------------------------------------------------------------------
      2    -100.45100444   -2.88e-05      3.27e-04      3.27e-04 o    5.22e-04 *    5.22e-04 o  ~
  ---------------------------------------------------------------------------------------------

	Writing optimization data to binary file.
	Structure for next step:
	Cartesian Geometry (in Angstrom)
	    F     0.0000000000   0.0000000000  -0.0465138314
	    H     0.0000000000   0.0000000000   0.8743636207
			--------------------------
			 OPTKING Finished Execution 
			--------------------------

    Structure for next step:
    Molecular point group: c2v
    Full point group: C_inf_v

    Geometry (in Angstrom), charge = 0, multiplicity = 1:

    F            0.000000000000     0.000000000000    -0.046389721364
    H            0.000000000000     0.000000000000     0.874487734372

gradient() will perform gradient computation by finite difference of analytic energies.

         ----------------------------------------------------------
                                   FINDIF
                     R. A. King and Jonathon Misiewicz
         ---------------------------------------------------------

  Using finite-differences of energies to determine gradients.
    Generating geometries for use with 3-point formula.
    Displacement size will be 5.00e-03.
    Number of atoms is 2.
    Number of symmetric SALCs is 1.
    Translations projected? 1. Rotations projected? 1.
    Number of geometries (including reference) is 3.

  //>>>>>>>>>>>>>>>>>>>>>>>>>>>>>>>>>>>//
  //    Loading displacement 1 of 3    //
  //<<<<<<<<<<<<<<<<<<<<<<<<<<<<<<<<<<<//

*** tstart() called on bp1-compute00100.data.bp.acrc.priv
*** at Tue Apr 27 17:46:09 2021

   => Loading Basis Set <=

    Name: CC-PV(T+D)Z
    Role: ORBITAL
    Keyword: BASIS
    atoms 1 entry F          line   309 file /work/zw18965/.conda/envs/p4env/share/psi4/basis/cc-pv_tpd_z.gbs 
    atoms 2 entry H          line    32 file /work/zw18965/.conda/envs/p4env/share/psi4/basis/cc-pv_tpd_z.gbs 


         ---------------------------------------------------------
                                   SCF
               by Justin Turney, Rob Parrish, Andy Simmonett
                          and Daniel G. A. Smith
                              RKS Reference
                       24 Threads, 137329 MiB Core
         ---------------------------------------------------------

  ==> Geometry <==

    Molecular point group: c2v
    Full point group: C_inf_v

    Geometry (in Angstrom), charge = 0, multiplicity = 1:

       Center              X                  Y                   Z               Mass       
    ------------   -----------------  -----------------  -----------------  -----------------
         F            0.000000000000     0.000000000000    -0.046389721364    18.998403162730
         H            0.000000000000     0.000000000000     0.874487734372     1.007825032230

  Running in c2v symmetry.

  Rotational constants: A = ************  B =     20.77092  C =     20.77092 [cm^-1]
  Rotational constants: A = ************  B = 622696.60054  C = 622696.60054 [MHz]
  Nuclear repulsion =    5.171800945244405

  Charge       = 0
  Multiplicity = 1
  Electrons    = 10
  Nalpha       = 5
  Nbeta        = 5

  ==> Algorithm <==

  SCF Algorithm Type is DF.
  DIIS enabled.
  MOM disabled.
  Fractional occupation disabled.
  Guess Type is READ.
  Energy threshold   = 1.00e-08
  Density threshold  = 1.00e-08
  Integral threshold = 0.00e+00

  ==> Primary Basis <==

  Basis Set: CC-PV(T+D)Z
    Blend: CC-PV(T+D)Z
    Number of shells: 16
    Number of basis function: 44
    Number of Cartesian functions: 50
    Spherical Harmonics?: true
    Max angular momentum: 3

  ==> DFT Potential <==

   => Composite Functional: WB97M-V <= 

    wB97M-V Hyb-GGA Exchange-Correlation Functional

    N. Mardirossian and M. Head-Gordon, J. Chem. Phys. 144, 214110 (2016)

    Deriv               =              1
    GGA                 =           TRUE
    Meta                =           TRUE

    Exchange Hybrid     =           TRUE
    MP2 Hybrid          =          FALSE

   => Exchange-Correlation Functionals <=

    1.0000   wB97M-V exchange-correlation functional

   => Exact (HF) Exchange <=

    0.8500            HF,LR [omega = 0.3000]
    0.1500               HF 

   => VV10 Non-Local Parameters <=

    VV10 B              =     6.0000E+00
    VV10 C              =     1.0000E-02

   => Molecular Quadrature <=

    Radial Scheme          =       TREUTLER
    Pruning Scheme         =           FLAT
    Nuclear Scheme         =       TREUTLER

    BS radius alpha        =              1
    Pruning alpha          =              1
    Radial Points          =             75
    Spherical Points       =            302
    Total Points           =          44435
    Total Blocks           =            399
    Max Points             =            256
    Max Functions          =             44

   => Loading Basis Set <=

    Name: (CC-PV(T+D)Z AUX)
    Role: JKFIT
    Keyword: DF_BASIS_SCF
    atoms 1 entry F          line   281 file /work/zw18965/.conda/envs/p4env/share/psi4/basis/cc-pvtz-jkfit.gbs 
    atoms 2 entry H          line    51 file /work/zw18965/.conda/envs/p4env/share/psi4/basis/cc-pvtz-jkfit.gbs 

   => Loading Basis Set <=

    Name: CC-PV(T+D)Z
    Role: ORBITAL
    Keyword: BASIS
    atoms 1 entry F          line   309 file /work/zw18965/.conda/envs/p4env/share/psi4/basis/cc-pv_tpd_z.gbs 
    atoms 2 entry H          line    32 file /work/zw18965/.conda/envs/p4env/share/psi4/basis/cc-pv_tpd_z.gbs 

  Reading orbitals from file 180, no projection.

  ==> Pre-Iterations <==

   -------------------------------------------------------
    Irrep   Nso     Nmo     Nalpha   Nbeta   Ndocc  Nsocc
   -------------------------------------------------------
     A1        20      20       0       0       0       0
     A2         4       4       0       0       0       0
     B1        10      10       0       0       0       0
     B2        10      10       0       0       0       0
   -------------------------------------------------------
    Total      44      44       5       5       5       0
   -------------------------------------------------------

  ==> Integral Setup <==

  ==> DiskDFJK: Density-Fitted J/K Matrices <==

    J tasked:                  Yes
    K tasked:                  Yes
    wK tasked:                 Yes
    Omega:               3.000E-01
    OpenMP threads:             24
    Integrals threads:          24
    Memory [MiB]:           102863
    Algorithm:                Core
    Integral Cache:           NONE
    Schwarz Cutoff:          1E-12
    Fitting Condition:       1E-10

   => Auxiliary Basis Set <=

  Basis Set: (CC-PV(T+D)Z AUX)
    Blend: CC-PVTZ-JKFIT
    Number of shells: 35
    Number of basis function: 109
    Number of Cartesian functions: 131
    Spherical Harmonics?: true
    Max angular momentum: 4

  Cached 100.0% of DFT collocation blocks in 0.131 [GiB].

  Minimum eigenvalue in the overlap matrix is 3.8158115005E-03.
  Using Symmetric Orthogonalization.

  SCF Guess: Orbitals guess was supplied from a previous computation.

  ==> Iterations <==

                           Total Energy        Delta E     RMS |[F,P]|

   @DF-RKS iter   0:  -100.45081323557054   -1.00451e+02   2.51299e-05 
   @DF-RKS iter   1:  -100.45100451504267   -1.91279e-04   5.47066e-06 DIIS
   @DF-RKS iter   2:  -100.45100451865142   -3.60875e-09   4.17726e-06 DIIS
   @DF-RKS iter   3:  -100.45100452103935   -2.38794e-09   6.83202e-07 DIIS
   @DF-RKS iter   4:  -100.45100452112105   -8.16982e-11   1.54394e-07 DIIS
   @DF-RKS iter   5:  -100.45100452112820   -7.14806e-12   1.90117e-08 DIIS
   @DF-RKS iter   6:  -100.45100452112834   -1.42109e-13   1.09335e-09 DIIS
  Energy and wave function converged.


  ==> Post-Iterations <==

    Orbital Energies [Eh]
    ---------------------

    Doubly Occupied:                                                      

       1A1   -24.881154     2A1    -1.321562     3A1    -0.649125  
       1B2    -0.514439     1B1    -0.514439  

    Virtual:                                                              

       4A1     0.096023     5A1     0.464038     6A1     0.734762  
       2B1     0.757958     2B2     0.757958     3B1     0.891494  
       3B2     0.891494     7A1     1.280271     8A1     1.410733  
       1A2     2.047873     9A1     2.047874    10A1     2.110466  
       4B2     2.332492     4B1     2.332492    11A1     2.956215  
       2A2     3.346708    12A1     3.346710     5B2     3.633584  
       5B1     3.633584    13A1     3.986919     6B2     4.033785  
       6B1     4.033785    14A1     4.787557     7B2     4.975880  
       7B1     4.975880    15A1     5.875673     8B2     7.025308  
       8B1     7.025308    16A1     7.208068     3A2     7.208069  
       9B1     8.011641     9B2     8.011641    17A1     8.060890  
       4A2     8.444702    18A1     8.444704    10B2     8.880665  
      10B1     8.880665    19A1     9.222241    20A1    11.891559  

    Final Occupation by Irrep:
             A1    A2    B1    B2 
    DOCC [     3,    0,    1,    1 ]

  @DF-RKS Final Energy:  -100.45100452112834

   => Energetics <=

    Nuclear Repulsion Energy =              5.1718009452444047
    One-Electron Energy =                -150.5353752257386759
    Two-Electron Energy =                  52.7896359462589686
    DFT Exchange-Correlation Energy =      -7.9204753036875211
    Empirical Dispersion Energy =           0.0000000000000000
    VV10 Nonlocal Energy =                  0.0434091167944879
    Total Energy =                       -100.4510045211283398

Computation Completed


Properties will be evaluated at   0.000000,   0.000000,   0.000000 [a0]

Properties computed using the SCF density matrix

  Nuclear Dipole Moment: [e a0]
     X:     0.0000      Y:     0.0000      Z:     0.8636

  Electronic Dipole Moment: [e a0]
     X:     0.0000      Y:     0.0000      Z:    -0.1490

  Dipole Moment: [e a0]
     X:     0.0000      Y:     0.0000      Z:     0.7146     Total:     0.7146

  Dipole Moment: [D]
     X:     0.0000      Y:     0.0000      Z:     1.8164     Total:     1.8164


*** tstop() called on bp1-compute00100.data.bp.acrc.priv at Tue Apr 27 17:46:11 2021
Module time:
	user time   =      33.77 seconds =       0.56 minutes
	system time =       1.32 seconds =       0.02 minutes
	total time  =          2 seconds =       0.03 minutes
Total time:
	user time   =     294.64 seconds =       4.91 minutes
	system time =      11.99 seconds =       0.20 minutes
	total time  =         13 seconds =       0.22 minutes

  //>>>>>>>>>>>>>>>>>>>>>>>>>>>>>>>>>>>//
  //    Loading displacement 2 of 3    //
  //<<<<<<<<<<<<<<<<<<<<<<<<<<<<<<<<<<<//

*** tstart() called on bp1-compute00100.data.bp.acrc.priv
*** at Tue Apr 27 17:46:11 2021

   => Loading Basis Set <=

    Name: CC-PV(T+D)Z
    Role: ORBITAL
    Keyword: BASIS
    atoms 1 entry F          line   309 file /work/zw18965/.conda/envs/p4env/share/psi4/basis/cc-pv_tpd_z.gbs 
    atoms 2 entry H          line    32 file /work/zw18965/.conda/envs/p4env/share/psi4/basis/cc-pv_tpd_z.gbs 


         ---------------------------------------------------------
                                   SCF
               by Justin Turney, Rob Parrish, Andy Simmonett
                          and Daniel G. A. Smith
                              RKS Reference
                       24 Threads, 137329 MiB Core
         ---------------------------------------------------------

  ==> Geometry <==

    Molecular point group: c2v
    Full point group: C_inf_v

    Geometry (in Angstrom), charge = 0, multiplicity = 1:

       Center              X                  Y                   Z               Mass       
    ------------   -----------------  -----------------  -----------------  -----------------
         F            0.000000000000     0.000000000000    -0.046525966984    18.998403162730
         H            0.000000000000     0.000000000000     0.877056086150     1.007825032230

  Running in c2v symmetry.

  Rotational constants: A = ************  B =     20.64945  C =     20.64945 [cm^-1]
  Rotational constants: A = ************  B = 619054.95832  C = 619054.95832 [MHz]
  Nuclear repulsion =    5.156655956955389

  Charge       = 0
  Multiplicity = 1
  Electrons    = 10
  Nalpha       = 5
  Nbeta        = 5

  ==> Algorithm <==

  SCF Algorithm Type is DF.
  DIIS enabled.
  MOM disabled.
  Fractional occupation disabled.
  Guess Type is READ.
  Energy threshold   = 1.00e-08
  Density threshold  = 1.00e-08
  Integral threshold = 0.00e+00

  ==> Primary Basis <==

  Basis Set: CC-PV(T+D)Z
    Blend: CC-PV(T+D)Z
    Number of shells: 16
    Number of basis function: 44
    Number of Cartesian functions: 50
    Spherical Harmonics?: true
    Max angular momentum: 3

  ==> DFT Potential <==

   => Composite Functional: WB97M-V <= 

    wB97M-V Hyb-GGA Exchange-Correlation Functional

    N. Mardirossian and M. Head-Gordon, J. Chem. Phys. 144, 214110 (2016)

    Deriv               =              1
    GGA                 =           TRUE
    Meta                =           TRUE

    Exchange Hybrid     =           TRUE
    MP2 Hybrid          =          FALSE

   => Exchange-Correlation Functionals <=

    1.0000   wB97M-V exchange-correlation functional

   => Exact (HF) Exchange <=

    0.8500            HF,LR [omega = 0.3000]
    0.1500               HF 

   => VV10 Non-Local Parameters <=

    VV10 B              =     6.0000E+00
    VV10 C              =     1.0000E-02

   => Molecular Quadrature <=

    Radial Scheme          =       TREUTLER
    Pruning Scheme         =           FLAT
    Nuclear Scheme         =       TREUTLER

    BS radius alpha        =              1
    Pruning alpha          =              1
    Radial Points          =             75
    Spherical Points       =            302
    Total Points           =          44435
    Total Blocks           =            399
    Max Points             =            256
    Max Functions          =             44

   => Loading Basis Set <=

    Name: (CC-PV(T+D)Z AUX)
    Role: JKFIT
    Keyword: DF_BASIS_SCF
    atoms 1 entry F          line   281 file /work/zw18965/.conda/envs/p4env/share/psi4/basis/cc-pvtz-jkfit.gbs 
    atoms 2 entry H          line    51 file /work/zw18965/.conda/envs/p4env/share/psi4/basis/cc-pvtz-jkfit.gbs 

   => Loading Basis Set <=

    Name: CC-PV(T+D)Z
    Role: ORBITAL
[...]
   @DF-RKS iter   1:  -100.40204121183781   -2.85451e-01   1.58400e-02 DIIS
   @DF-RKS iter   2:  -100.40647691028603   -4.43570e-03   1.71003e-02 DIIS
   @DF-RKS iter   3:  -100.45091770914445   -4.44408e-02   6.32565e-04 DIIS
   @DF-RKS iter   4:  -100.45099166219300   -7.39530e-05   1.35375e-04 DIIS
   @DF-RKS iter   5:  -100.45099641317570   -4.75098e-06   1.55017e-05 DIIS
   @DF-RKS iter   6:  -100.45099652773708   -1.14561e-07   2.06688e-06 DIIS
   @DF-RKS iter   7:  -100.45099653118572   -3.44865e-09   4.07915e-07 DIIS
   @DF-RKS iter   8:  -100.45099653126657   -8.08456e-11   2.61711e-08 DIIS
   @DF-RKS iter   9:  -100.45099653126714   -5.68434e-13   3.68540e-09 DIIS
   @DF-RKS iter  10:  -100.45099653126705    8.52651e-14   2.27346e-10 DIIS
   @DF-RKS iter  11:  -100.45099653126691    1.42109e-13   9.91867e-12 DIIS
  Energy and wave function converged.


  ==> Post-Iterations <==

    Orbital Energies [Eh]
    ---------------------

    Doubly Occupied:                                                      

       1A1   -24.881211     2A1    -1.320696     3A1    -0.648445  
       1B1    -0.514192     1B2    -0.514192  

    Virtual:                                                              

       4A1     0.095513     5A1     0.462274     6A1     0.735438  
       2B1     0.757061     2B2     0.757061     3B2     0.891886  
       3B1     0.891886     7A1     1.278075     8A1     1.410700  
       1A2     2.048177     9A1     2.048177    10A1     2.114104  
       4B2     2.330628     4B1     2.330628    11A1     2.952283  
       2A2     3.345187    12A1     3.345188     5B2     3.633311  
       5B1     3.633311    13A1     3.984497     6B1     4.030585  
       6B2     4.030585    14A1     4.775327     7B2     4.973480  
       7B1     4.973480    15A1     5.878389     8B1     7.025546  
       8B2     7.025546    16A1     7.205405     3A2     7.205407  
       9B1     8.002265     9B2     8.002265    17A1     8.056908  
       4A2     8.444544    18A1     8.444547    10B1     8.879326  
      10B2     8.879326    19A1     9.220039    20A1    11.864535  

    Final Occupation by Irrep:
             A1    A2    B1    B2 
    DOCC [     3,    0,    1,    1 ]

  @DF-RKS Final Energy:  -100.45099653126691

   => Energetics <=

    Nuclear Repulsion Energy =              5.1566559569553894
    One-Electron Energy =                -150.5096927488639267
    Two-Electron Energy =                  52.7780006220339359
    DFT Exchange-Correlation Energy =      -7.9193682843556417
    Empirical Dispersion Energy =           0.0000000000000000
    VV10 Nonlocal Energy =                  0.0434079229633401
    Total Energy =                       -100.4509965312669095

Computation Completed


Properties will be evaluated at   0.000000,   0.000000,   0.000000 [a0]

Properties computed using the SCF density matrix

  Nuclear Dipole Moment: [e a0]
     X:     0.0000      Y:     0.0000      Z:     0.8661

  Electronic Dipole Moment: [e a0]
     X:     0.0000      Y:     0.0000      Z:    -0.1499

  Dipole Moment: [e a0]
     X:     0.0000      Y:     0.0000      Z:     0.7162     Total:     0.7162

  Dipole Moment: [D]
     X:     0.0000      Y:     0.0000      Z:     1.8204     Total:     1.8204


*** tstop() called on bp1-compute00100.data.bp.acrc.priv at Tue Apr 27 17:46:25 2021
Module time:
	user time   =      51.16 seconds =       0.85 minutes
	system time =       1.79 seconds =       0.03 minutes
	total time  =          2 seconds =       0.03 minutes
Total time:
	user time   =     616.58 seconds =      10.28 minutes
	system time =      24.42 seconds =       0.41 minutes
	total time  =         27 seconds =       0.45 minutes

  //>>>>>>>>>>>>>>>>>>>>>>>>>>>>>>>>>>>//
  //    Loading displacement 3 of 3    //
  //<<<<<<<<<<<<<<<<<<<<<<<<<<<<<<<<<<<//

*** tstart() called on bp1-compute00100.data.bp.acrc.priv
*** at Tue Apr 27 17:46:25 2021

   => Loading Basis Set <=

    Name: CC-PV(T+D)Z
    Role: ORBITAL
    Keyword: BASIS
    atoms 1 entry F          line   309 file /work/zw18965/.conda/envs/p4env/share/psi4/basis/cc-pv_tpd_z.gbs 
    atoms 2 entry H          line    32 file /work/zw18965/.conda/envs/p4env/share/psi4/basis/cc-pv_tpd_z.gbs 


         ---------------------------------------------------------
                                   SCF
               by Justin Turney, Rob Parrish, Andy Simmonett
                          and Daniel G. A. Smith
                              RKS Reference
                       24 Threads, 137329 MiB Core
         ---------------------------------------------------------

  ==> Geometry <==

    Molecular point group: c2v
    Full point group: C_inf_v

    Geometry (in Angstrom), charge = 0, multiplicity = 1:

       Center              X                  Y                   Z               Mass       
    ------------   -----------------  -----------------  -----------------  -----------------
         F            0.000000000000     0.000000000000    -0.046253475744    18.998403162730
         H            0.000000000000     0.000000000000     0.871919382594     1.007825032230

  Running in c2v symmetry.

  Rotational constants: A = ************  B =     20.89347  C =     20.89347 [cm^-1]
  Rotational constants: A = ************  B = 626370.47093  C = 626370.47093 [MHz]
  Nuclear repulsion =    5.187035156593207

  Charge       = 0
  Multiplicity = 1
  Electrons    = 10
  Nalpha       = 5
  Nbeta        = 5

  ==> Algorithm <==

  SCF Algorithm Type is DF.
  DIIS enabled.
  MOM disabled.
  Fractional occupation disabled.
  Guess Type is SAD.
  Energy threshold   = 1.00e-10
  Density threshold  = 1.00e-10
  Integral threshold = 0.00e+00

  ==> Primary Basis <==

  Basis Set: CC-PV(T+D)Z
    Blend: CC-PV(T+D)Z
    Number of shells: 16
    Number of basis function: 44
    Number of Cartesian functions: 50
    Spherical Harmonics?: true
    Max angular momentum: 3

  ==> DFT Potential <==

   => Composite Functional: WB97M-V <= 

    wB97M-V Hyb-GGA Exchange-Correlation Functional

    N. Mardirossian and M. Head-Gordon, J. Chem. Phys. 144, 214110 (2016)

    Deriv               =              1
    GGA                 =           TRUE
    Meta                =           TRUE

    Exchange Hybrid     =           TRUE
    MP2 Hybrid          =          FALSE

   => Exchange-Correlation Functionals <=

    1.0000   wB97M-V exchange-correlation functional

   => Exact (HF) Exchange <=

    0.8500            HF,LR [omega = 0.3000]
    0.1500               HF 

   => VV10 Non-Local Parameters <=

    VV10 B              =     6.0000E+00
    VV10 C              =     1.0000E-02

   => Molecular Quadrature <=

    Radial Scheme          =       TREUTLER
    Pruning Scheme         =           FLAT
    Nuclear Scheme         =       TREUTLER

    BS radius alpha        =              1
    Pruning alpha          =              1
    Radial Points          =             75
    Spherical Points       =            302
    Total Points           =          44435
    Total Blocks           =            400
    Max Points             =            256
    Max Functions          =             44

   => Loading Basis Set <=

    Name: (CC-PV(T+D)Z AUX)
    Role: JKFIT
    Keyword: DF_BASIS_SCF
    atoms 1 entry F          line   281 file /work/zw18965/.conda/envs/p4env/share/psi4/basis/cc-pvtz-jkfit.gbs 
    atoms 2 entry H          line    51 file /work/zw18965/.conda/envs/p4env/share/psi4/basis/cc-pvtz-jkfit.gbs 

  ==> Pre-Iterations <==

   -------------------------------------------------------
    Irrep   Nso     Nmo     Nalpha   Nbeta   Ndocc  Nsocc
   -------------------------------------------------------
     A1        20      20       0       0       0       0
     A2         4       4       0       0       0       0
     B1        10      10       0       0       0       0
     B2        10      10       0       0       0       0
   -------------------------------------------------------
    Total      44      44       5       5       5       0
   -------------------------------------------------------

  ==> Integral Setup <==

  ==> DiskDFJK: Density-Fitted J/K Matrices <==

    J tasked:                  Yes
    K tasked:                  Yes
    wK tasked:                 Yes
    Omega:               3.000E-01
    OpenMP threads:             24
    Integrals threads:          24
    Memory [MiB]:           102863
    Algorithm:                Core
    Integral Cache:           NONE
    Schwarz Cutoff:          1E-12
    Fitting Condition:       1E-10

   => Auxiliary Basis Set <=

  Basis Set: (CC-PV(T+D)Z AUX)
    Blend: CC-PVTZ-JKFIT
    Number of shells: 35
    Number of basis function: 109
    Number of Cartesian functions: 131
    Spherical Harmonics?: true
    Max angular momentum: 4

  Cached 100.0% of DFT collocation blocks in 0.131 [GiB].

  Minimum eigenvalue in the overlap matrix is 3.7671323287E-03.
  Using Symmetric Orthogonalization.

  SCF Guess: Superposition of Atomic Densities via on-the-fly atomic UHF.

  ==> Iterations <==

                           Total Energy        Delta E     RMS |[F,P]|

   @DF-RKS iter SAD:  -100.11923043149122   -1.00119e+02   0.00000e+00 
   @DF-RKS iter   1:  -100.40220867582352   -2.82978e-01   1.58488e-02 DIIS
   @DF-RKS iter   2:  -100.40688004645087   -4.67137e-03   1.70400e-02 DIIS
   @DF-RKS iter   3:  -100.45091957481799   -4.40395e-02   6.24984e-04 DIIS
   @DF-RKS iter   4:  -100.45099180274082   -7.22279e-05   1.32838e-04 DIIS
   @DF-RKS iter   5:  -100.45099635831303   -4.55557e-06   1.51774e-05 DIIS
   @DF-RKS iter   6:  -100.45099646680991   -1.08497e-07   2.02520e-06 DIIS
   @DF-RKS iter   7:  -100.45099647007619   -3.26628e-09   3.98226e-07 DIIS
   @DF-RKS iter   8:  -100.45099647015364   -7.74492e-11   2.56523e-08 DIIS
   @DF-RKS iter   9:  -100.45099647015405   -4.12115e-13   3.61444e-09 DIIS
   @DF-RKS iter  10:  -100.45099647015408   -2.84217e-14   2.21309e-10 DIIS
   @DF-RKS iter  11:  -100.45099647015402    5.68434e-14   9.69029e-12 DIIS
  Energy and wave function converged.


  ==> Post-Iterations <==

    Orbital Energies [Eh]
    ---------------------

    Doubly Occupied:                                                      

       1A1   -24.881095     2A1    -1.322436     3A1    -0.649806  
       1B2    -0.514687     1B1    -0.514687  

    Virtual:                                                              

       4A1     0.096529     5A1     0.465813     6A1     0.734087  
       2B2     0.758858     2B1     0.758858     3B1     0.891099  
       3B2     0.891099     7A1     1.282423     8A1     1.410826  
       1A2     2.047573     9A1     2.047573    10A1     2.106858  
       4B1     2.334353     4B2     2.334353    11A1     2.960149  
       2A2     3.348238    12A1     3.348240     5B1     3.633844  
       5B2     3.633844    13A1     3.989350     6B1     4.037001  
       6B2     4.037001    14A1     4.799908     7B1     4.978281  
       7B2     4.978281    15A1     5.872970     8B1     7.025070  
       8B2     7.025070    16A1     7.210759     3A2     7.210760  
       9B1     8.021083     9B2     8.021083    17A1     8.064905  
       4A2     8.444859    18A1     8.444861    10B1     8.881990  
      10B2     8.881990    19A1     9.224519    20A1    11.918741  

    Final Occupation by Irrep:
             A1    A2    B1    B2 
    DOCC [     3,    0,    1,    1 ]

  @DF-RKS Final Energy:  -100.45099647015402

   => Energetics <=

    Nuclear Repulsion Energy =              5.1870351565932067
    One-Electron Energy =                -150.5611839691861746
    Two-Electron Energy =                  52.8013316188234398
    DFT Exchange-Correlation Energy =      -7.9215895960109144
    Empirical Dispersion Energy =           0.0000000000000000
    VV10 Nonlocal Energy =                  0.0434103196264360
    Total Energy =                       -100.4509964701540241

Computation Completed


Properties will be evaluated at   0.000000,   0.000000,   0.000000 [a0]

Properties computed using the SCF density matrix

  Nuclear Dipole Moment: [e a0]
     X:     0.0000      Y:     0.0000      Z:     0.8610

  Electronic Dipole Moment: [e a0]
     X:     0.0000      Y:     0.0000      Z:    -0.1480

  Dipole Moment: [e a0]
     X:     0.0000      Y:     0.0000      Z:     0.7130     Total:     0.7130

  Dipole Moment: [D]
     X:     0.0000      Y:     0.0000      Z:     1.8123     Total:     1.8123


*** tstop() called on bp1-compute00100.data.bp.acrc.priv at Tue Apr 27 17:46:27 2021
Module time:
	user time   =      50.93 seconds =       0.85 minutes
	system time =       1.95 seconds =       0.03 minutes
	total time  =          2 seconds =       0.03 minutes
Total time:
	user time   =     667.63 seconds =      11.13 minutes
	system time =      26.38 seconds =       0.44 minutes
	total time  =         29 seconds =       0.48 minutes

         ----------------------------------------------------------
                                   FINDIF
                     R. A. King and Jonathon Misiewicz
         ---------------------------------------------------------

  Computing second-derivative from energies using projected, 
  symmetry-adapted, cartesian coordinates.

  3 energies passed in, including the reference geometry.
    Using 3-point formula.
    Energy without displacement: -100.4510045211
    Check energies below for precision!
    0: -1 :      -100.4509965313
    0: 1  :      -100.4509964702

-------------------------------------------------------------


  ==> Harmonic Vibrational Analysis <==

  non-mass-weighted Hessian:       Symmetric? True   Hermitian? True   Lin Dep Dim?  5 (0)
  projection of translations (True) and rotations (True) removed 5 degrees of freedom (5)
  total projector:                 Symmetric? True   Hermitian? True   Lin Dep Dim?  5 (5)
  mass-weighted Hessian:           Symmetric? True   Hermitian? True   Lin Dep Dim?  5 (0)
  pre-proj  low-frequency mode:    0.0000i [cm^-1]
  pre-proj  low-frequency mode:    0.0000  [cm^-1]
  pre-proj  low-frequency mode:    0.0000  [cm^-1]
  pre-proj  low-frequency mode:    0.0000  [cm^-1]
  pre-proj  low-frequency mode:    0.0000  [cm^-1]
  pre-proj  all modes:['0.0000i' '0.0000' '0.0000' '0.0000' '0.0000' '4117.6342']
  projected mass-weighted Hessian: Symmetric? True   Hermitian? True   Lin Dep Dim?  5 (5)
  post-proj low-frequency mode:    0.0000  [cm^-1] (TR)
  post-proj low-frequency mode:    0.0000  [cm^-1] (TR)
  post-proj low-frequency mode:    0.0000  [cm^-1] (TR)
  post-proj low-frequency mode:    0.0000  [cm^-1] (TR)
  post-proj low-frequency mode:    0.0000  [cm^-1] (TR)
  post-proj  all modes:['0.0000' '0.0000' '0.0000' '0.0000' '0.0000' '4117.6342']

  Vibration                       6           
  Freq [cm^-1]                4117.6342       
  Irrep                           A1          
  Reduced mass [u]              1.0583        
  Force const [mDyne/A]        10.5720        
  Turning point v=0 [a0]        0.1662        
  RMS dev v=0 [a0 u^1/2]        0.1209        
  Char temp [K]               5924.3589       
  ----------------------------------------------------------------------------------
      1   F                0.00  0.00 -0.05   
      2   H                0.00  0.00  1.00   

  ==> Thermochemistry Components <==

  Entropy, S
    Electronic S            0.000 [cal/(mol K)]        0.000 [J/(mol K)]       0.00000000 [mEh/K] (multiplicity = 1)
    Translational S        34.921 [cal/(mol K)]      146.112 [J/(mol K)]       0.05565095 [mEh/K] (mol. weight = 20.0062 [u], P = 101325.00 [Pa])
    Rotational S            6.558 [cal/(mol K)]       27.440 [J/(mol K)]       0.01045126 [mEh/K] (symmetry no. = 1)
    Vibrational S           0.000 [cal/(mol K)]        0.000 [J/(mol K)]       0.00000000 [mEh/K]
  Total S                  41.480 [cal/(mol K)]      173.551 [J/(mol K)]       0.06610221 [mEh/K]
  Correction S              0.000 [cal/(mol K)]        0.000 [J/(mol K)]       0.00000000 [mEh/K]

  Constant volume heat capacity, Cv
    Electronic Cv           0.000 [cal/(mol K)]        0.000 [J/(mol K)]       0.00000000 [mEh/K]
    Translational Cv        2.981 [cal/(mol K)]       12.472 [J/(mol K)]       0.00475022 [mEh/K]
    Rotational Cv           1.987 [cal/(mol K)]        8.314 [J/(mol K)]       0.00316681 [mEh/K]
    Vibrational Cv          0.000 [cal/(mol K)]        0.000 [J/(mol K)]       0.00000000 [mEh/K]
  Total Cv                  4.968 [cal/(mol K)]       20.786 [J/(mol K)]       0.00791703 [mEh/K]
  Correction Cv             0.000 [cal/(mol K)]        0.000 [J/(mol K)]       0.00000000 [mEh/K]

  Constant pressure heat capacity, Cp
    Electronic Cp           0.000 [cal/(mol K)]        0.000 [J/(mol K)]       0.00000000 [mEh/K]
    Translational Cp        4.968 [cal/(mol K)]       20.786 [J/(mol K)]       0.00791703 [mEh/K]
    Rotational Cp           1.987 [cal/(mol K)]        8.314 [J/(mol K)]       0.00316681 [mEh/K]
    Vibrational Cp          0.000 [cal/(mol K)]        0.000 [J/(mol K)]       0.00000000 [mEh/K]
  Total Cp                  6.955 [cal/(mol K)]       29.101 [J/(mol K)]       0.01108384 [mEh/K]
  Correction Cp             0.000 [cal/(mol K)]        0.000 [J/(mol K)]       0.00000000 [mEh/K]

  ==> Thermochemistry Energy Analysis <==

  Raw electronic energy, E0
  Total E0, Electronic energy at well bottom at 0 [K]                 -100.45100452 [Eh]

  Zero-point energy, ZPE_vib = Sum_i nu_i / 2
    Electronic ZPE          0.000 [kcal/mol]        0.000 [kJ/mol]       0.00000000 [Eh]
    Translational ZPE       0.000 [kcal/mol]        0.000 [kJ/mol]       0.00000000 [Eh]
    Rotational ZPE          0.000 [kcal/mol]        0.000 [kJ/mol]       0.00000000 [Eh]
    Vibrational ZPE         5.886 [kcal/mol]       24.629 [kJ/mol]       0.00938066 [Eh]        2058.817 [cm^-1]
  Correction ZPE            5.886 [kcal/mol]       24.629 [kJ/mol]       0.00938066 [Eh]        2058.817 [cm^-1]
  Total ZPE, Electronic energy at 0 [K]                               -100.44162386 [Eh]

  Thermal Energy, E (includes ZPE)
    Electronic E            0.000 [kcal/mol]        0.000 [kJ/mol]       0.00000000 [Eh]
    Translational E         0.889 [kcal/mol]        3.718 [kJ/mol]       0.00141628 [Eh]
    Rotational E            0.592 [kcal/mol]        2.479 [kJ/mol]       0.00094418 [Eh]
    Vibrational E           5.886 [kcal/mol]       24.629 [kJ/mol]       0.00938066 [Eh]
  Correction E              7.368 [kcal/mol]       30.826 [kJ/mol]       0.01174112 [Eh]
  Total E, Electronic energy at  298.15 [K]                           -100.43926340 [Eh]

  Enthalpy, H_trans = E_trans + k_B * T
    Electronic H            0.000 [kcal/mol]        0.000 [kJ/mol]       0.00000000 [Eh]
    Translational H         1.481 [kcal/mol]        6.197 [kJ/mol]       0.00236046 [Eh]
    Rotational H            0.592 [kcal/mol]        2.479 [kJ/mol]       0.00094418 [Eh]
    Vibrational H           5.886 [kcal/mol]       24.629 [kJ/mol]       0.00938066 [Eh]
  Correction H              7.960 [kcal/mol]       33.305 [kJ/mol]       0.01268531 [Eh]
  Total H, Enthalpy at  298.15 [K]                                    -100.43831921 [Eh]

  Gibbs free energy, G = H - T * S
    Electronic G            0.000 [kcal/mol]        0.000 [kJ/mol]       0.00000000 [Eh]
    Translational G        -8.931 [kcal/mol]      -37.366 [kJ/mol]      -0.01423187 [Eh]
    Rotational G           -1.363 [kcal/mol]       -5.702 [kJ/mol]      -0.00217186 [Eh]
    Vibrational G           5.886 [kcal/mol]       24.629 [kJ/mol]       0.00938066 [Eh]
  Correction G             -4.407 [kcal/mol]      -18.439 [kJ/mol]      -0.00702307 [Eh]
  Total G, Free enthalpy at  298.15 [K]                               -100.45802759 [Eh]

    Psi4 stopped on: Tuesday, 27 April 2021 05:46PM
    Psi4 wall time for execution: 0:00:29.87

*** Psi4 exiting successfully. Buy a developer a beer!
