
    -----------------------------------------------------------------------
          Psi4: An Open-Source Ab Initio Electronic Structure Package
                               Psi4 1.3.2 release

                         Git: Rev {HEAD} ecbda83 


    R. M. Parrish, L. A. Burns, D. G. A. Smith, A. C. Simmonett,
    A. E. DePrince III, E. G. Hohenstein, U. Bozkaya, A. Yu. Sokolov,
    R. Di Remigio, R. M. Richard, J. F. Gonthier, A. M. James,
    H. R. McAlexander, A. Kumar, M. Saitow, X. Wang, B. P. Pritchard,
    P. Verma, H. F. Schaefer III, K. Patkowski, R. A. King, E. F. Valeev,
    F. A. Evangelista, J. M. Turney, T. D. Crawford, and C. D. Sherrill,
    J. Chem. Theory Comput. 13(7) pp 3185--3197 (2017).
    (doi: 10.1021/acs.jctc.7b00174)


                         Additional Contributions by
    P. Kraus, H. Kruse, M. H. Lechner, M. C. Schieber, R. A. Shaw,
    A. Alenaizan, R. Galvelis, Z. L. Glick, S. Lehtola, and J. P. Misiewicz

    -----------------------------------------------------------------------


    Psi4 started on: Tuesday, 27 April 2021 05:45PM

    Process ID: 172854
    Host:       bp1-compute00139.data.bp.acrc.priv
    PSIDATADIR: /work/zw18965/.conda/envs/p4env/share/psi4
    Memory:     500.0 MiB
    Threads:    24
    
  ==> Input File <==

--------------------------------------------------------------------------
memory 144 GB

molecule {
0 1
N 0.0000000000 0.0000000000 0.0000000000
H 0.0000000000 0.0000000000 1.0535284100
O 1.1513717966 0.0000000000 -0.3743228181
}

set dynamic_level 1
set basis cc-pV(T+d)Z
 
optimize("wB97M-V")
frequencies("wB97M-V")
--------------------------------------------------------------------------

  Memory set to 134.110 GiB by Python driver.
gradient() will perform gradient computation by finite difference of analytic energies.

         ----------------------------------------------------------
                                   FINDIF
                     R. A. King and Jonathon Misiewicz
         ---------------------------------------------------------

  Using finite-differences of energies to determine gradients.
    Generating geometries for use with 3-point formula.
    Displacement size will be 5.00e-03.
    Number of atoms is 3.
    Number of symmetric SALCs is 3.
    Translations projected? 1. Rotations projected? 1.
    Number of geometries (including reference) is 7.

  //>>>>>>>>>>>>>>>>>>>>>>>>>>>>>>>>>>>//
  //    Loading displacement 1 of 7    //
  //<<<<<<<<<<<<<<<<<<<<<<<<<<<<<<<<<<<//

*** tstart() called on bp1-compute00139.data.bp.acrc.priv
*** at Tue Apr 27 17:45:15 2021

   => Loading Basis Set <=

    Name: CC-PV(T+D)Z
    Role: ORBITAL
    Keyword: BASIS
    atoms 1 entry N          line   233 file /work/zw18965/.conda/envs/p4env/share/psi4/basis/cc-pv_tpd_z.gbs 
    atoms 2 entry H          line    32 file /work/zw18965/.conda/envs/p4env/share/psi4/basis/cc-pv_tpd_z.gbs 
    atoms 3 entry O          line   271 file /work/zw18965/.conda/envs/p4env/share/psi4/basis/cc-pv_tpd_z.gbs 


         ---------------------------------------------------------
                                   SCF
               by Justin Turney, Rob Parrish, Andy Simmonett
                          and Daniel G. A. Smith
                              RKS Reference
                       24 Threads, 137329 MiB Core
         ---------------------------------------------------------

  ==> Geometry <==

    Molecular point group: cs
    Full point group: Cs

    Geometry (in Angstrom), charge = 0, multiplicity = 1:

       Center              X                  Y                   Z               Mass       
    ------------   -----------------  -----------------  -----------------  -----------------
         N            0.593956145973     0.158856957167     0.000000000000    14.003074004430
         H            0.593956145973     1.212385367167     0.000000000000     1.007825032230
         O           -0.557415650627    -0.215465860933     0.000000000000    15.994914619570

  Running in cs symmetry.

  Rotational constants: A =     18.79965  B =      1.41115  C =      1.31262 [cm^-1]
  Rotational constants: A = 563599.28425  B =  42305.12378  C =  39351.31873 [MHz]
  Nuclear repulsion =   30.300887510772334

  Charge       = 0
  Multiplicity = 1
  Electrons    = 16
  Nalpha       = 8
  Nbeta        = 8

  ==> Algorithm <==

  SCF Algorithm Type is DF.
  DIIS enabled.
  MOM disabled.
  Fractional occupation disabled.
  Guess Type is SAD.
  Energy threshold   = 1.00e-08
  Density threshold  = 1.00e-08
  Integral threshold = 0.00e+00

  ==> Primary Basis <==

  Basis Set: CC-PV(T+D)Z
    Blend: CC-PV(T+D)Z
    Number of shells: 26
    Number of basis function: 74
    Number of Cartesian functions: 85
    Spherical Harmonics?: true
    Max angular momentum: 3

  ==> DFT Potential <==

   => Composite Functional: WB97M-V <= 

    wB97M-V Hyb-GGA Exchange-Correlation Functional

    N. Mardirossian and M. Head-Gordon, J. Chem. Phys. 144, 214110 (2016)

    Deriv               =              1
    GGA                 =           TRUE
    Meta                =           TRUE

    Exchange Hybrid     =           TRUE
    MP2 Hybrid          =          FALSE

   => Exchange-Correlation Functionals <=

    1.0000   wB97M-V exchange-correlation functional

   => Exact (HF) Exchange <=

    0.8500            HF,LR [omega = 0.3000]
    0.1500               HF 

   => VV10 Non-Local Parameters <=

    VV10 B              =     6.0000E+00
    VV10 C              =     1.0000E-02

   => Molecular Quadrature <=

    Radial Scheme          =       TREUTLER
    Pruning Scheme         =           FLAT
    Nuclear Scheme         =       TREUTLER

    BS radius alpha        =              1
    Pruning alpha          =              1
    Radial Points          =             75
    Spherical Points       =            302
    Total Points           =          66216
    Total Blocks           =            549
    Max Points             =            256
    Max Functions          =             74

   => Loading Basis Set <=

    Name: (CC-PV(T+D)Z AUX)
    Role: JKFIT
    Keyword: DF_BASIS_SCF
    atoms 1 entry N          line   177 file /work/zw18965/.conda/envs/p4env/share/psi4/basis/cc-pvtz-jkfit.gbs 
    atoms 2 entry H          line    51 file /work/zw18965/.conda/envs/p4env/share/psi4/basis/cc-pvtz-jkfit.gbs 
    atoms 3 entry O          line   229 file /work/zw18965/.conda/envs/p4env/share/psi4/basis/cc-pvtz-jkfit.gbs 

  ==> Pre-Iterations <==

   -------------------------------------------------------
    Irrep   Nso     Nmo     Nalpha   Nbeta   Ndocc  Nsocc
   -------------------------------------------------------
     A'        50      50       0       0       0       0
     A"        24      24       0       0       0       0
   -------------------------------------------------------
    Total      74      74       8       8       8       0
   -------------------------------------------------------

  ==> Integral Setup <==

  ==> DiskDFJK: Density-Fitted J/K Matrices <==

    J tasked:                  Yes
    K tasked:                  Yes
    wK tasked:                 Yes
    Omega:               3.000E-01
    OpenMP threads:             24
    Integrals threads:          24
    Memory [MiB]:           102664
    Algorithm:                Core
    Integral Cache:           NONE
    Schwarz Cutoff:          1E-12
    Fitting Condition:       1E-10

   => Auxiliary Basis Set <=

  Basis Set: (CC-PV(T+D)Z AUX)
    Blend: CC-PVTZ-JKFIT
    Number of shells: 60
    Number of basis function: 188
    Number of Cartesian functions: 227
    Spherical Harmonics?: true
    Max angular momentum: 4

  Cached 100.0% of DFT collocation blocks in 0.324 [GiB].

  Minimum eigenvalue in the overlap matrix is 2.5852925993E-03.
  Using Symmetric Orthogonalization.

  SCF Guess: Superposition of Atomic Densities via on-the-fly atomic UHF.

  ==> Iterations <==

                           Total Energy        Delta E     RMS |[F,P]|

   @DF-RKS iter SAD:  -129.93733573283538   -1.29937e+02   0.00000e+00 
   @DF-RKS iter   1:  -130.44947199050492   -5.12136e-01   5.29048e-03 DIIS
   @DF-RKS iter   2:  -130.46424055451823   -1.47686e-02   4.67052e-03 DIIS
   @DF-RKS iter   3:  -130.48323334872393   -1.89928e-02   1.44827e-03 DIIS
   @DF-RKS iter   4:  -130.48533074925396   -2.09740e-03   2.84834e-04 DIIS
   @DF-RKS iter   5:  -130.48543849826689   -1.07749e-04   6.53555e-05 DIIS
   @DF-RKS iter   6:  -130.48544681524453   -8.31698e-06   9.66375e-06 DIIS
   @DF-RKS iter   7:  -130.48544747563486   -6.60390e-07   2.35944e-06 DIIS
   @DF-RKS iter   8:  -130.48544751912598   -4.34911e-08   4.57233e-07 DIIS
   @DF-RKS iter   9:  -130.48544752058859   -1.46261e-09   9.39314e-08 DIIS
   @DF-RKS iter  10:  -130.48544752064359   -5.49960e-11   2.48481e-08 DIIS
   @DF-RKS iter  11:  -130.48544752064586   -2.27374e-12   6.63441e-09 DIIS
  Energy and wave function converged.


  ==> Post-Iterations <==

    Orbital Energies [Eh]
    ---------------------

    Doubly Occupied:                                                      

       1Ap   -19.414469     2Ap   -14.630566     3Ap    -1.299526  
       4Ap    -0.848407     5Ap    -0.642602     1App   -0.564649  
       6Ap    -0.562022     7Ap    -0.350893  

    Virtual:                                                              

       2App   -0.004240     8Ap     0.104093     9Ap     0.305087  
      10Ap     0.443538    11Ap     0.516574     3App    0.518165  
      12Ap     0.585633    13Ap     0.623387    14Ap     0.677962  
      15Ap     0.701671     4App    0.719581     5App    0.742605  
      16Ap     0.873353    17Ap     1.189544     6App    1.191955  
       7App    1.311478    18Ap     1.325615    19Ap     1.439540  
      20Ap     1.544629    21Ap     1.676345    22Ap     1.697199  
       8App    1.703689     9App    2.081329    23Ap     2.160885  
      24Ap     2.300185    25Ap     2.402115    10App    2.923956  
      26Ap     3.073085    11App    3.189206    27Ap     3.234966  
      12App    3.352288    28Ap     3.427855    29Ap     3.544963  
      30Ap     3.666077    13App    3.699016    31Ap     3.863812  
      14App    3.871111    32Ap     3.927801    33Ap     4.022165  
      15App    4.114141    34Ap     4.198104    16App    4.214264  
      35Ap     4.322411    17App    4.631174    36Ap     4.661625  
      37Ap     4.692017    18App    4.812982    38Ap     4.896145  
      39Ap     5.148261    19App    5.167176    40Ap     5.237213  
      20App    5.479302    41Ap     5.508555    42Ap     5.642645  
      21App    5.669186    43Ap     5.952660    22App    6.340164  
      44Ap     6.351233    23App    6.410480    45Ap     6.613204  
      46Ap     6.618181    24App    6.934037    47Ap     6.984823  
      48Ap     7.215738    49Ap     8.840656    50Ap    12.785258  

    Final Occupation by Irrep:
             Ap   App 
    DOCC [     7,    1 ]

  @DF-RKS Final Energy:  -130.48544752064586

   => Energetics <=

    Nuclear Repulsion Energy =             30.3008875107723341
    One-Electron Energy =                -237.8271700104571096
    Two-Electron Energy =                  88.3398136430088528
    DFT Exchange-Correlation Energy =     -11.3659485823207014
    Empirical Dispersion Energy =           0.0000000000000000
    VV10 Nonlocal Energy =                  0.0669699183507735
    Total Energy =                       -130.4854475206458631

Computation Completed


Properties will be evaluated at   0.000000,   0.000000,   0.000000 [a0]

Properties computed using the SCF density matrix

  Nuclear Dipole Moment: [e a0]
     X:     0.5524      Y:     1.1351      Z:     0.0000

  Electronic Dipole Moment: [e a0]
     X:    -0.3656      Y:    -0.4766      Z:     0.0000

  Dipole Moment: [e a0]
     X:     0.1868      Y:     0.6585      Z:     0.0000     Total:     0.6845

  Dipole Moment: [D]
     X:     0.4749      Y:     1.6736      Z:     0.0000     Total:     1.7397


*** tstop() called on bp1-compute00139.data.bp.acrc.priv at Tue Apr 27 17:45:18 2021
Module time:
	user time   =      73.51 seconds =       1.23 minutes
	system time =       3.91 seconds =       0.07 minutes
	total time  =          3 seconds =       0.05 minutes
Total time:
	user time   =      73.51 seconds =       1.23 minutes
	system time =       3.91 seconds =       0.07 minutes
	total time  =          3 seconds =       0.05 minutes

  //>>>>>>>>>>>>>>>>>>>>>>>>>>>>>>>>>>>//
  //    Loading displacement 2 of 7    //
  //<<<<<<<<<<<<<<<<<<<<<<<<<<<<<<<<<<<//

*** tstart() called on bp1-compute00139.data.bp.acrc.priv
*** at Tue Apr 27 17:45:18 2021

   => Loading Basis Set <=

    Name: CC-PV(T+D)Z
    Role: ORBITAL
    Keyword: BASIS
    atoms 1 entry N          line   233 file /work/zw18965/.conda/envs/p4env/share/psi4/basis/cc-pv_tpd_z.gbs 
    atoms 2 entry H          line    32 file /work/zw18965/.conda/envs/p4env/share/psi4/basis/cc-pv_tpd_z.gbs 
    atoms 3 entry O          line   271 file /work/zw18965/.conda/envs/p4env/share/psi4/basis/cc-pv_tpd_z.gbs 


         ---------------------------------------------------------
                                   SCF
               by Justin Turney, Rob Parrish, Andy Simmonett
                          and Daniel G. A. Smith
                              RKS Reference
                       24 Threads, 137329 MiB Core
         ---------------------------------------------------------

  ==> Geometry <==

    Molecular point group: cs
    Full point group: Cs

    Geometry (in Angstrom), charge = 0, multiplicity = 1:

       Center              X                  Y                   Z               Mass       
    ------------   -----------------  -----------------  -----------------  -----------------
         N            0.593445853998     0.158756165124     0.000000000000    14.003074004430
         H            0.594604349552     1.212284575124     0.000000000000     1.007825032230
         O           -0.557009747836    -0.215371269670     0.000000000000    15.994914619570

  Running in cs symmetry.

  Rotational constants: A =     18.81882  B =      1.41297  C =      1.31429 [cm^-1]
  Rotational constants: A = 564174.14970  B =  42359.64686  C =  39401.29616 [MHz]
  Nuclear repulsion =   30.319736449052463

  Charge       = 0
  Multiplicity = 1
  Electrons    = 16
  Nalpha       = 8
  Nbeta        = 8

  ==> Algorithm <==

  SCF Algorithm Type is DF.
  DIIS enabled.
  MOM disabled.
  Fractional occupation disabled.
  Guess Type is SAD.
  Energy threshold   = 1.00e-08
  Density threshold  = 1.00e-08
  Integral threshold = 0.00e+00

  ==> Primary Basis <==

  Basis Set: CC-PV(T+D)Z
    Blend: CC-PV(T+D)Z
    Number of shells: 26
    Number of basis function: 74
    Number of Cartesian functions: 85
    Spherical Harmonics?: true
    Max angular momentum: 3

  ==> DFT Potential <==

   => Composite Functional: WB97M-V <= 

    wB97M-V Hyb-GGA Exchange-Correlation Functional

    N. Mardirossian and M. Head-Gordon, J. Chem. Phys. 144, 214110 (2016)

    Deriv               =              1
    GGA                 =           TRUE
    Meta                =           TRUE

    Exchange Hybrid     =           TRUE
    MP2 Hybrid          =          FALSE

   => Exchange-Correlation Functionals <=

    1.0000   wB97M-V exchange-correlation functional

   => Exact (HF) Exchange <=

    0.8500            HF,LR [omega = 0.3000]
    0.1500               HF 

   => VV10 Non-Local Parameters <=

    VV10 B              =     6.0000E+00
    VV10 C              =     1.0000E-02

   => Molecular Quadrature <=

    Radial Scheme          =       TREUTLER
    Pruning Scheme         =           FLAT
    Nuclear Scheme         =       TREUTLER

    BS radius alpha        =              1
    Pruning alpha          =              1
    Radial Points          =             75
    Spherical Points       =            302
    Total Points           =          66216
    Total Blocks           =            548
    Max Points             =            256
    Max Functions          =             74

   => Loading Basis Set <=

    Name: (CC-PV(T+D)Z AUX)
    Role: JKFIT
    Keyword: DF_BASIS_SCF
    atoms 1 entry N          line   177 file /work/zw18965/.conda/envs/p4env/share/psi4/basis/cc-pvtz-jkfit.gbs 
    atoms 2 entry H          line    51 file /work/zw18965/.conda/envs/p4env/share/psi4/basis/cc-pvtz-jkfit.gbs 
    atoms 3 entry O          line   229 file /work/zw18965/.conda/envs/p4env/share/psi4/basis/cc-pvtz-jkfit.gbs 

  ==> Pre-Iterations <==

   -------------------------------------------------------
    Irrep   Nso     Nmo     Nalpha   Nbeta   Ndocc  Nsocc
   -------------------------------------------------------
     A'        50      50       0       0       0       0
     A"        24      24       0       0       0       0
   -------------------------------------------------------
    Total      74      74       8       8       8       0
   -------------------------------------------------------

  ==> Integral Setup <==

  ==> DiskDFJK: Density-Fitted J/K Matrices <==

    J tasked:                  Yes
    K tasked:                  Yes
    wK tasked:                 Yes
    Omega:               3.000E-01
    OpenMP threads:             24
    Integrals threads:          24
    Memory [MiB]:           102664
    Algorithm:                Core
    Integral Cache:           NONE
    Schwarz Cutoff:          1E-12
    Fitting Condition:       1E-10

   => Auxiliary Basis Set <=

  Basis Set: (CC-PV(T+D)Z AUX)
    Blend: CC-PVTZ-JKFIT
    Number of shells: 60
    Number of basis function: 188
    Number of Cartesian functions: 227
    Spherical Harmonics?: true
    Max angular momentum: 4

  Cached 100.0% of DFT collocation blocks in 0.324 [GiB].

  Minimum eigenvalue in the overlap matrix is 2.5810670591E-03.
  Using Symmetric Orthogonalization.

  SCF Guess: Superposition of Atomic Densities via on-the-fly atomic UHF.

  ==> Iterations <==

                           Total Energy        Delta E     RMS |[F,P]|

   @DF-RKS iter SAD:  -129.93938009575433   -1.29939e+02   0.00000e+00 
   @DF-RKS iter   1:  -130.44948820505155   -5.10108e-01   5.29231e-03 DIIS
   @DF-RKS iter   2:  -130.46433675634486   -1.48486e-02   4.66457e-03 DIIS
   @DF-RKS iter   3:  -130.48328132864256   -1.89446e-02   1.44511e-03 DIIS
   @DF-RKS iter   4:  -130.48536815879146   -2.08683e-03   2.85058e-04 DIIS
   @DF-RKS iter   5:  -130.48547607334410   -1.07915e-04   6.53757e-05 DIIS
   @DF-RKS iter   6:  -130.48548440318922   -8.32985e-06   9.67976e-06 DIIS
   @DF-RKS iter   7:  -130.48548506649107   -6.63302e-07   2.36239e-06 DIIS
   @DF-RKS iter   8:  -130.48548511013615   -4.36451e-08   4.58152e-07 DIIS
   @DF-RKS iter   9:  -130.48548511160740   -1.47125e-09   9.44846e-08 DIIS
   @DF-RKS iter  10:  -130.48548511166317   -5.57634e-11   2.49629e-08 DIIS
   @DF-RKS iter  11:  -130.48548511166535   -2.18847e-12   6.63770e-09 DIIS
  Energy and wave function converged.


  ==> Post-Iterations <==

    Orbital Energies [Eh]
    ---------------------

    Doubly Occupied:                                                      

       1Ap   -19.414429     2Ap   -14.630444     3Ap    -1.300166  
       4Ap    -0.848268     5Ap    -0.642814     1App   -0.564998  
       6Ap    -0.562231     7Ap    -0.350642  

    Virtual:                                                              

       2App   -0.003950     8Ap     0.104140     9Ap     0.305342  
      10Ap     0.443615    11Ap     0.516646     3App    0.518084  
      12Ap     0.586398    13Ap     0.623306    14Ap     0.677871  
      15Ap     0.701759     4App    0.719552     5App    0.742731  
      16Ap     0.873514    17Ap     1.189650     6App    1.192215  
       7App    1.311366    18Ap     1.325243    19Ap     1.439529  
      20Ap     1.544885    21Ap     1.676763    22Ap     1.697843  
       8App    1.704113     9App    2.081784    23Ap     2.161414  
      24Ap     2.300727    25Ap     2.402306    10App    2.924036  
      26Ap     3.073054    11App    3.189527    27Ap     3.234939  
      12App    3.352503    28Ap     3.428187    29Ap     3.545211  
      30Ap     3.666531    13App    3.699586    31Ap     3.863654  
      14App    3.871217    32Ap     3.928114    33Ap     4.022034  
      15App    4.114029    34Ap     4.198838    16App    4.214453  
      35Ap     4.322964    17App    4.631044    36Ap     4.660809  
      37Ap     4.692457    18App    4.813459    38Ap     4.896888  
      39Ap     5.148173    19App    5.166771    40Ap     5.237265  
      20App    5.479199    41Ap     5.509159    42Ap     5.644901  
      21App    5.671210    43Ap     5.954408    22App    6.340335  
      44Ap     6.351522    23App    6.412954    45Ap     6.614881  
      46Ap     6.619648    24App    6.935471    47Ap     6.986595  
      48Ap     7.216409    49Ap     8.842284    50Ap    12.805145  

    Final Occupation by Irrep:
             Ap   App 
    DOCC [     7,    1 ]

  @DF-RKS Final Energy:  -130.48548511166535

   => Energetics <=

    Nuclear Repulsion Energy =             30.3197364490524635
    One-Electron Energy =                -237.8628633088195556
    Two-Electron Energy =                  88.3572539964107477
    DFT Exchange-Correlation Energy =     -11.3665820199041274
    Empirical Dispersion Energy =           0.0000000000000000
    VV10 Nonlocal Energy =                  0.0669697715951085
    Total Energy =                       -130.4854851116653549

Computation Completed


Properties will be evaluated at   0.000000,   0.000000,   0.000000 [a0]

Properties computed using the SCF density matrix

  Nuclear Dipole Moment: [e a0]
     X:     0.5530      Y:     1.1350      Z:     0.0000

  Electronic Dipole Moment: [e a0]
     X:    -0.3666      Y:    -0.4772      Z:     0.0000

  Dipole Moment: [e a0]
     X:     0.1864      Y:     0.6578      Z:     0.0000     Total:     0.6837

  Dipole Moment: [D]
     X:     0.4738      Y:     1.6720      Z:     0.0000     Total:     1.7378


*** tstop() called on bp1-compute00139.data.bp.acrc.priv at Tue Apr 27 17:45:21 2021
Module time:
	user time   =      77.02 seconds =       1.28 minutes
	system time =       2.78 seconds =       0.05 minutes
	total time  =          3 seconds =       0.05 minutes
Total time:
	user time   =     150.78 seconds =       2.51 minutes
	system time =       6.70 seconds =       0.11 minutes
	total time  =          6 seconds =       0.10 minutes

  //>>>>>>>>>>>>>>>>>>>>>>>>>>>>>>>>>>>//
  //    Loading displacement 3 of 7    //
  //<<<<<<<<<<<<<<<<<<<<<<<<<<<<<<<<<<<//

*** tstart() called on bp1-compute00139.data.bp.acrc.priv
*** at Tue Apr 27 17:45:21 2021

   => Loading Basis Set <=

    Name: CC-PV(T+D)Z
    Role: ORBITAL
    Keyword: BASIS
    atoms 1 entry N          line   233 file /work/zw18965/.conda/envs/p4env/share/psi4/basis/cc-pv_tpd_z.gbs 
    atoms 2 entry H          line    32 file /work/zw18965/.conda/envs/p4env/share/psi4/basis/cc-pv_tpd_z.gbs 
    atoms 3 entry O          line   271 file /work/zw18965/.conda/envs/p4env/share/psi4/basis/cc-pv_tpd_z.gbs 


         ---------------------------------------------------------
                                   SCF
               by Justin Turney, Rob Parrish, Andy Simmonett
                          and Daniel G. A. Smith
                              RKS Reference
                       24 Threads, 137329 MiB Core
         ---------------------------------------------------------

  ==> Geometry <==

    Molecular point group: cs
    Full point group: Cs

    Geometry (in Angstrom), charge = 0, multiplicity = 1:

       Center              X                  Y                   Z               Mass       
    ------------   -----------------  -----------------  -----------------  -----------------
         N            0.594466437947     0.158957749209     0.000000000000    14.003074004430
         H            0.593307942393     1.212486159209     0.000000000000     1.007825032230
         O           -0.557821553419    -0.215560452197     0.000000000000    15.994914619570

  Running in cs symmetry.

  Rotational constants: A =     18.78052  B =      1.40933  C =      1.31095 [cm^-1]
  Rotational constants: A = 563025.82596  B =  42250.69008  C =  39301.42513 [MHz]
  Nuclear repulsion =   30.282063088167718

  Charge       = 0
  Multiplicity = 1
  Electrons    = 16
  Nalpha       = 8
  Nbeta        = 8

  ==> Algorithm <==

  SCF Algorithm Type is DF.
  DIIS enabled.
  MOM disabled.
  Fractional occupation disabled.
  Guess Type is SAD.
  Energy threshold   = 1.00e-08
  Density threshold  = 1.00e-08
  Integral threshold = 0.00e+00

  ==> Primary Basis <==

  Basis Set: CC-PV(T+D)Z
    Blend: CC-PV(T+D)Z
    Number of shells: 26
    Number of basis function: 74
    Number of Cartesian functions: 85
    Spherical Harmonics?: true
    Max angular momentum: 3

  ==> DFT Potential <==

   => Composite Functional: WB97M-V <= 

    wB97M-V Hyb-GGA Exchange-Correlation Functional

    N. Mardirossian and M. Head-Gordon, J. Chem. Phys. 144, 214110 (2016)

    Deriv               =              1
    GGA                 =           TRUE
    Meta                =           TRUE

    Exchange Hybrid     =           TRUE
    MP2 Hybrid          =          FALSE

   => Exchange-Correlation Functionals <=

    1.0000   wB97M-V exchange-correlation functional

   => Exact (HF) Exchange <=

    0.8500            HF,LR [omega = 0.3000]
    0.1500               HF 

   => VV10 Non-Local Parameters <=

    VV10 B              =     6.0000E+00
    VV10 C              =     1.0000E-02

   => Molecular Quadrature <=

    Radial Scheme          =       TREUTLER
    Pruning Scheme         =           FLAT
    Nuclear Scheme         =       TREUTLER

    BS radius alpha        =              1
    Pruning alpha          =              1
    Radial Points          =             75
    Spherical Points       =            302
    Total Points           =          66216
    Total Blocks           =            549
    Max Points             =            253
    Max Functions          =             74

   => Loading Basis Set <=

    Name: (CC-PV(T+D)Z AUX)
    Role: JKFIT
    Keyword: DF_BASIS_SCF
    atoms 1 entry N          line   177 file /work/zw18965/.conda/envs/p4env/share/psi4/basis/cc-pvtz-jkfit.gbs 
    atoms 2 entry H          line    51 file /work/zw18965/.conda/envs/p4env/share/psi4/basis/cc-pvtz-jkfit.gbs 
    atoms 3 entry O          line   229 file /work/zw18965/.conda/envs/p4env/share/psi4/basis/cc-pvtz-jkfit.gbs 

  ==> Pre-Iterations <==

   -------------------------------------------------------
    Irrep   Nso     Nmo     Nalpha   Nbeta   Ndocc  Nsocc
   -------------------------------------------------------
     A'        50      50       0       0       0       0
     A"        24      24       0       0       0       0
   -------------------------------------------------------
    Total      74      74       8       8       8       0
   -------------------------------------------------------

  ==> Integral Setup <==

  ==> DiskDFJK: Density-Fitted J/K Matrices <==

    J tasked:                  Yes
    K tasked:                  Yes
    wK tasked:                 Yes
    Omega:               3.000E-01
    OpenMP threads:             24
    Integrals threads:          24
    Memory [MiB]:           102664
    Algorithm:                Core
    Integral Cache:           NONE
    Schwarz Cutoff:          1E-12
    Fitting Condition:       1E-10

   => Auxiliary Basis Set <=

  Basis Set: (CC-PV(T+D)Z AUX)
    Blend: CC-PVTZ-JKFIT
    Number of shells: 60
    Number of basis function: 188
    Number of Cartesian functions: 227
    Spherical Harmonics?: true
    Max angular momentum: 4

  Cached 100.0% of DFT collocation blocks in 0.324 [GiB].

  Minimum eigenvalue in the overlap matrix is 2.5895177657E-03.
  Using Symmetric Orthogonalization.

  SCF Guess: Superposition of Atomic Densities via on-the-fly atomic UHF.

  ==> Iterations <==

                           Total Energy        Delta E     RMS |[F,P]|

   @DF-RKS iter SAD:  -129.93529439542064   -1.29935e+02   0.00000e+00 
   @DF-RKS iter   1:  -130.44945288726674   -5.14158e-01   5.28870e-03 DIIS
   @DF-RKS iter   2:  -130.46414092921000   -1.46880e-02   4.67655e-03 DIIS
   @DF-RKS iter   3:  -130.48318286505028   -1.90419e-02   1.45143e-03 DIIS
   @DF-RKS iter   4:  -130.48529085494891   -2.10799e-03   2.84610e-04 DIIS
   @DF-RKS iter   5:  -130.48539843932426   -1.07584e-04   6.53357e-05 DIIS
   @DF-RKS iter   6:  -130.48540674362448   -8.30430e-06   9.64810e-06 DIIS
   @DF-RKS iter   7:  -130.48540740114947   -6.57525e-07   2.35660e-06 DIIS
   @DF-RKS iter   8:  -130.48540744448917   -4.33397e-08   4.56343e-07 DIIS
   @DF-RKS iter   9:  -130.48540744594348   -1.45431e-09   9.33755e-08 DIIS
   @DF-RKS iter  10:  -130.48540744599774   -5.42570e-11   2.47293e-08 DIIS
   @DF-RKS iter  11:  -130.48540744600004   -2.30216e-12   6.62986e-09 DIIS
  Energy and wave function converged.


  ==> Post-Iterations <==

    Orbital Energies [Eh]
    ---------------------

    Doubly Occupied:                                                      

       1Ap   -19.414510     2Ap   -14.630689     3Ap    -1.298887  
       4Ap    -0.848546     5Ap    -0.642391     1App   -0.564301  
       6Ap    -0.561814     7Ap    -0.351144  

    Virtual:                                                              

       2App   -0.004528     8Ap     0.104045     9Ap     0.304828  
      10Ap     0.443462    11Ap     0.516503     3App    0.518244  
      12Ap     0.584867    13Ap     0.623474    14Ap     0.678053  
      15Ap     0.701585     4App    0.719609     5App    0.742479  
      16Ap     0.873193    17Ap     1.189438     6App    1.191693  
       7App    1.311593    18Ap     1.325986    19Ap     1.439548  
      20Ap     1.544374    21Ap     1.675930    22Ap     1.696561  
       8App    1.703266     9App    2.080874    23Ap     2.160351  
      24Ap     2.299641    25Ap     2.401929    10App    2.923874  
      26Ap     3.073116    11App    3.188886    27Ap     3.234993  
      12App    3.352073    28Ap     3.427520    29Ap     3.544716  
      30Ap     3.665623    13App    3.698448    31Ap     3.863971  
      14App    3.871004    32Ap     3.927487    33Ap     4.022290  
      15App    4.114252    34Ap     4.197356    16App    4.214076  
      35Ap     4.321868    17App    4.631302    36Ap     4.662453  
      37Ap     4.691578    18App    4.812504    38Ap     4.895409  
      39Ap     5.148350    19App    5.167578    40Ap     5.237161  
      20App    5.479403    41Ap     5.507946    42Ap     5.640387  
      21App    5.667166    43Ap     5.950915    22App    6.339991  
      44Ap     6.350940    23App    6.408005    45Ap     6.611069  
      46Ap     6.617169    24App    6.932612    47Ap     6.983065  
      48Ap     7.215074    49Ap     8.839033    50Ap    12.765427  

    Final Occupation by Irrep:
             Ap   App 
    DOCC [     7,    1 ]

  @DF-RKS Final Energy:  -130.48540744600004

   => Energetics <=

    Nuclear Repulsion Energy =             30.2820630881677175
    One-Electron Energy =                -237.7915154689517578
    Two-Electron Energy =                  88.3223910483520029
    DFT Exchange-Correlation Energy =     -11.3653161800439371
    Empirical Dispersion Energy =           0.0000000000000000
    VV10 Nonlocal Energy =                  0.0669700664759340
    Total Energy =                       -130.4854074460000390

Computation Completed


Properties will be evaluated at   0.000000,   0.000000,   0.000000 [a0]

Properties computed using the SCF density matrix

  Nuclear Dipole Moment: [e a0]
     X:     0.5518      Y:     1.1352      Z:     0.0000

  Electronic Dipole Moment: [e a0]
     X:    -0.3645      Y:    -0.4761      Z:     0.0000

  Dipole Moment: [e a0]
     X:     0.1873      Y:     0.6591      Z:     0.0000     Total:     0.6852

  Dipole Moment: [D]
     X:     0.4760      Y:     1.6753      Z:     0.0000     Total:     1.7416


*** tstop() called on bp1-compute00139.data.bp.acrc.priv at Tue Apr 27 17:45:24 2021
Module time:
	user time   =      71.26 seconds =       1.19 minutes
	system time =       2.56 seconds =       0.04 minutes
	total time  =          3 seconds =       0.05 minutes
Total time:
	user time   =     222.17 seconds =       3.70 minutes
	system time =       9.27 seconds =       0.15 minutes
	total time  =          9 seconds =       0.15 minutes

  //>>>>>>>>>>>>>>>>>>>>>>>>>>>>>>>>>>>//
  //    Loading displacement 4 of 7    //
  //<<<<<<<<<<<<<<<<<<<<<<<<<<<<<<<<<<<//

*** tstart() called on bp1-compute00139.data.bp.acrc.priv
*** at Tue Apr 27 17:45:24 2021

   => Loading Basis Set <=

    Name: CC-PV(T+D)Z
    Role: ORBITAL
    Keyword: BASIS
    atoms 1 entry N          line   233 file /work/zw18965/.conda/envs/p4env/share/psi4/basis/cc-pv_tpd_z.gbs 
    atoms 2 entry H          line    32 file /work/zw18965/.conda/envs/p4env/share/psi4/basis/cc-pv_tpd_z.gbs 
    atoms 3 entry O          line   271 file /work/zw18965/.conda/envs/p4env/share/psi4/basis/cc-pv_tpd_z.gbs 


         ---------------------------------------------------------
                                   SCF
               by Justin Turney, Rob Parrish, Andy Simmonett
                          and Daniel G. A. Smith
                              RKS Reference
                       24 Threads, 137329 MiB Core
         ---------------------------------------------------------

  ==> Geometry <==

    Molecular point group: cs
    Full point group: Cs

    Geometry (in Angstrom), charge = 0, multiplicity = 1:

       Center              X                  Y                   Z               Mass       
    ------------   -----------------  -----------------  -----------------  -----------------
         N            0.593956145973     0.158589209370     0.000000000000    14.003074004430
         H            0.592246067627     1.213984828598     0.000000000000     1.007825032230
         O           -0.557307900145    -0.215332236279     0.000000000000    15.994914619570

  Running in cs symmetry.

  Rotational constants: A =     18.70661  B =      1.41193  C =      1.31284 [cm^-1]
  Rotational constants: A = 560809.98869  B =  42328.59878  C =  39357.95437 [MHz]
  Nuclear repulsion =   30.299240876069575

  Charge       = 0
  Multiplicity = 1
  Electrons    = 16
  Nalpha       = 8
  Nbeta        = 8

  ==> Algorithm <==

  SCF Algorithm Type is DF.
  DIIS enabled.
  MOM disabled.
  Fractional occupation disabled.
  Guess Type is SAD.
  Energy threshold   = 1.00e-08
  Density threshold  = 1.00e-08
  Integral threshold = 0.00e+00

  ==> Primary Basis <==

  Basis Set: CC-PV(T+D)Z
    Blend: CC-PV(T+D)Z
    Number of shells: 26
    Number of basis function: 74
    Number of Cartesian functions: 85
    Spherical Harmonics?: true
    Max angular momentum: 3

  ==> DFT Potential <==

   => Composite Functional: WB97M-V <= 

    wB97M-V Hyb-GGA Exchange-Correlation Functional

    N. Mardirossian and M. Head-Gordon, J. Chem. Phys. 144, 214110 (2016)

    Deriv               =              1
    GGA                 =           TRUE
    Meta                =           TRUE

    Exchange Hybrid     =           TRUE
    MP2 Hybrid          =          FALSE

   => Exchange-Correlation Functionals <=

    1.0000   wB97M-V exchange-correlation functional

   => Exact (HF) Exchange <=

    0.8500            HF,LR [omega = 0.3000]
    0.1500               HF 

   => VV10 Non-Local Parameters <=

    VV10 B              =     6.0000E+00
    VV10 C              =     1.0000E-02

   => Molecular Quadrature <=

    Radial Scheme          =       TREUTLER
    Pruning Scheme         =           FLAT
    Nuclear Scheme         =       TREUTLER

    BS radius alpha        =              1
    Pruning alpha          =              1
    Radial Points          =             75
    Spherical Points       =            302
    Total Points           =          66216
    Total Blocks           =            549
    Max Points             =            256
    Max Functions          =             74

   => Loading Basis Set <=

    Name: (CC-PV(T+D)Z AUX)
    Role: JKFIT
    Keyword: DF_BASIS_SCF
    atoms 1 entry N          line   177 file /work/zw18965/.conda/envs/p4env/share/psi4/basis/cc-pvtz-jkfit.gbs 
    atoms 2 entry H          line    51 file /work/zw18965/.conda/envs/p4env/share/psi4/basis/cc-pvtz-jkfit.gbs 
    atoms 3 entry O          line   229 file /work/zw18965/.conda/envs/p4env/share/psi4/basis/cc-pvtz-jkfit.gbs 

  ==> Pre-Iterations <==

   -------------------------------------------------------
    Irrep   Nso     Nmo     Nalpha   Nbeta   Ndocc  Nsocc
   -------------------------------------------------------
     A'        50      50       0       0       0       0
     A"        24      24       0       0       0       0
   -------------------------------------------------------
    Total      74      74       8       8       8       0
   -------------------------------------------------------

  ==> Integral Setup <==

  ==> DiskDFJK: Density-Fitted J/K Matrices <==

    J tasked:                  Yes
    K tasked:                  Yes
    wK tasked:                 Yes
    Omega:               3.000E-01
    OpenMP threads:             24
    Integrals threads:          24
    Memory [MiB]:           102664
    Algorithm:                Core
    Integral Cache:           NONE
    Schwarz Cutoff:          1E-12
    Fitting Condition:       1E-10

   => Auxiliary Basis Set <=

  Basis Set: (CC-PV(T+D)Z AUX)
    Blend: CC-PVTZ-JKFIT
    Number of shells: 60
    Number of basis function: 188
    Number of Cartesian functions: 227
    Spherical Harmonics?: true
    Max angular momentum: 4

  Cached 100.0% of DFT collocation blocks in 0.324 [GiB].

  Minimum eigenvalue in the overlap matrix is 2.5927605055E-03.
  Using Symmetric Orthogonalization.

  SCF Guess: Superposition of Atomic Densities via on-the-fly atomic UHF.

  ==> Iterations <==

                           Total Energy        Delta E     RMS |[F,P]|

   @DF-RKS iter SAD:  -129.93726219178146   -1.29937e+02   0.00000e+00 
   @DF-RKS iter   1:  -130.44940473910427   -5.12143e-01   5.29589e-03 DIIS
   @DF-RKS iter   2:  -130.46407654059928   -1.46718e-02   4.68929e-03 DIIS
   @DF-RKS iter   3:  -130.48324696176181   -1.91704e-02   1.44733e-03 DIIS
   @DF-RKS iter   4:  -130.48534240131636   -2.09544e-03   2.84776e-04 DIIS
   @DF-RKS iter   5:  -130.48545020742060   -1.07806e-04   6.54449e-05 DIIS
   @DF-RKS iter   6:  -130.48545856044979   -8.35303e-06   9.70139e-06 DIIS
   @DF-RKS iter   7:  -130.48545922678977   -6.66340e-07   2.36869e-06 DIIS
   @DF-RKS iter   8:  -130.48545927063080   -4.38410e-08   4.59808e-07 DIIS
   @DF-RKS iter   9:  -130.48545927210668   -1.47588e-09   9.45313e-08 DIIS
   @DF-RKS iter  10:  -130.48545927216202   -5.53371e-11   2.51161e-08 DIIS
   @DF-RKS iter  11:  -130.48545927216443   -2.41585e-12   6.68466e-09 DIIS
  Energy and wave function converged.


  ==> Post-Iterations <==

    Orbital Energies [Eh]
    ---------------------

    Doubly Occupied:                                                      

       1Ap   -19.414482     2Ap   -14.630803     3Ap    -1.299736  
       4Ap    -0.847891     5Ap    -0.642536     1App   -0.564780  
       6Ap    -0.562117     7Ap    -0.350890  

    Virtual:                                                              

       2App   -0.004169     8Ap     0.103971     9Ap     0.305146  
      10Ap     0.442652    11Ap     0.516516     3App    0.518115  
      12Ap     0.585780    13Ap     0.623410    14Ap     0.678391  
      15Ap     0.701625     4App    0.719557     5App    0.742205  
      16Ap     0.873064    17Ap     1.188666     6App    1.192222  
       7App    1.311062    18Ap     1.325433    19Ap     1.439655  
      20Ap     1.543490    21Ap     1.676339    22Ap     1.697357  
       8App    1.703320     9App    2.081504    23Ap     2.160789  
      24Ap     2.300296    25Ap     2.402279    10App    2.923390  
      26Ap     3.072605    11App    3.188728    27Ap     3.234775  
      12App    3.351806    28Ap     3.426311    29Ap     3.544443  
      30Ap     3.665001    13App    3.698957    31Ap     3.864212  
      14App    3.870183    32Ap     3.926981    33Ap     4.019858  
      15App    4.113435    34Ap     4.198804    16App    4.213381  
      35Ap     4.320821    17App    4.631400    36Ap     4.658652  
      37Ap     4.691789    18App    4.813009    38Ap     4.896478  
      39Ap     5.146349    19App    5.166273    40Ap     5.236148  
      20App    5.475980    41Ap     5.504995    42Ap     5.641218  
      21App    5.667369    43Ap     5.950602    22App    6.340112  
      44Ap     6.351255    23App    6.410940    45Ap     6.611828  
      46Ap     6.618160    24App    6.934394    47Ap     6.984704  
      48Ap     7.215730    49Ap     8.831894    50Ap    12.784297  

    Final Occupation by Irrep:
             Ap   App 
    DOCC [     7,    1 ]

  @DF-RKS Final Energy:  -130.48545927216443

   => Energetics <=

    Nuclear Repulsion Energy =             30.2992408760695753
    One-Electron Energy =                -237.8239510746745680
    Two-Electron Energy =                  88.3378140851933438
    DFT Exchange-Correlation Energy =     -11.3655319832240771
    Empirical Dispersion Energy =           0.0000000000000000
    VV10 Nonlocal Energy =                  0.0669688244712789
    Total Energy =                       -130.4854592721644622

Computation Completed


Properties will be evaluated at   0.000000,   0.000000,   0.000000 [a0]

Properties computed using the SCF density matrix

  Nuclear Dipole Moment: [e a0]
     X:     0.5508      Y:     1.1366      Z:     0.0000

  Electronic Dipole Moment: [e a0]
     X:    -0.3650      Y:    -0.4797      Z:     0.0000

  Dipole Moment: [e a0]
     X:     0.1858      Y:     0.6569      Z:     0.0000     Total:     0.6827

  Dipole Moment: [D]
     X:     0.4724      Y:     1.6697      Z:     0.0000     Total:     1.7353


*** tstop() called on bp1-compute00139.data.bp.acrc.priv at Tue Apr 27 17:45:28 2021
Module time:
	user time   =      71.13 seconds =       1.19 minutes
	system time =       2.37 seconds =       0.04 minutes
	total time  =          4 seconds =       0.07 minutes
Total time:
	user time   =     293.43 seconds =       4.89 minutes
	system time =      11.64 seconds =       0.19 minutes
	total time  =         13 seconds =       0.22 minutes

  //>>>>>>>>>>>>>>>>>>>>>>>>>>>>>>>>>>>//
  //    Loading displacement 5 of 7    //
  //<<<<<<<<<<<<<<<<<<<<<<<<<<<<<<<<<<<//

*** tstart() called on bp1-compute00139.data.bp.acrc.priv
*** at Tue Apr 27 17:45:28 2021

   => Loading Basis Set <=

    Name: CC-PV(T+D)Z
    Role: ORBITAL
    Keyword: BASIS
    atoms 1 entry N          line   233 file /work/zw18965/.conda/envs/p4env/share/psi4/basis/cc-pv_tpd_z.gbs 
    atoms 2 entry H          line    32 file /work/zw18965/.conda/envs/p4env/share/psi4/basis/cc-pv_tpd_z.gbs 
    atoms 3 entry O          line   271 file /work/zw18965/.conda/envs/p4env/share/psi4/basis/cc-pv_tpd_z.gbs 


         ---------------------------------------------------------
                                   SCF
               by Justin Turney, Rob Parrish, Andy Simmonett
                          and Daniel G. A. Smith
                              RKS Reference
                       24 Threads, 137329 MiB Core
         ---------------------------------------------------------

  ==> Geometry <==

    Molecular point group: cs
    Full point group: Cs

    Geometry (in Angstrom), charge = 0, multiplicity = 1:

       Center              X                  Y                   Z               Mass       
    ------------   -----------------  -----------------  -----------------  -----------------
         N            0.593956145973     0.159124704963     0.000000000000    14.003074004430
         H            0.595666224318     1.210785905735     0.000000000000     1.007825032230
         O           -0.557523401110    -0.215599485588     0.000000000000    15.994914619570

  Running in cs symmetry.

  Rotational constants: A =     18.89339  B =      1.41036  C =      1.31240 [cm^-1]
  Rotational constants: A = 566409.60290  B =  42281.66351  C =  39344.64245 [MHz]
  Nuclear repulsion =   30.302542917181704

  Charge       = 0
  Multiplicity = 1
  Electrons    = 16
  Nalpha       = 8
  Nbeta        = 8

  ==> Algorithm <==

  SCF Algorithm Type is DF.
  DIIS enabled.
  MOM disabled.
  Fractional occupation disabled.
  Guess Type is SAD.
  Energy threshold   = 1.00e-08
  Density threshold  = 1.00e-08
  Integral threshold = 0.00e+00

  ==> Primary Basis <==

  Basis Set: CC-PV(T+D)Z
    Blend: CC-PV(T+D)Z
    Number of shells: 26
    Number of basis function: 74
    Number of Cartesian functions: 85
    Spherical Harmonics?: true
    Max angular momentum: 3

  ==> DFT Potential <==

   => Composite Functional: WB97M-V <= 

    wB97M-V Hyb-GGA Exchange-Correlation Functional

    N. Mardirossian and M. Head-Gordon, J. Chem. Phys. 144, 214110 (2016)

    Deriv               =              1
    GGA                 =           TRUE
    Meta                =           TRUE

    Exchange Hybrid     =           TRUE
    MP2 Hybrid          =          FALSE

   => Exchange-Correlation Functionals <=

    1.0000   wB97M-V exchange-correlation functional

   => Exact (HF) Exchange <=

    0.8500            HF,LR [omega = 0.3000]
    0.1500               HF 

   => VV10 Non-Local Parameters <=

    VV10 B              =     6.0000E+00
    VV10 C              =     1.0000E-02

   => Molecular Quadrature <=

    Radial Scheme          =       TREUTLER
    Pruning Scheme         =           FLAT
    Nuclear Scheme         =       TREUTLER

    BS radius alpha        =              1
    Pruning alpha          =              1
    Radial Points          =             75
    Spherical Points       =            302
    Total Points           =          66216
    Total Blocks           =            549
    Max Points             =            256
    Max Functions          =             74

   => Loading Basis Set <=

    Name: (CC-PV(T+D)Z AUX)
    Role: JKFIT
    Keyword: DF_BASIS_SCF
    atoms 1 entry N          line   177 file /work/zw18965/.conda/envs/p4env/share/psi4/basis/cc-pvtz-jkfit.gbs 
    atoms 2 entry H          line    51 file /work/zw18965/.conda/envs/p4env/share/psi4/basis/cc-pvtz-jkfit.gbs 
    atoms 3 entry O          line   229 file /work/zw18965/.conda/envs/p4env/share/psi4/basis/cc-pvtz-jkfit.gbs 

  ==> Pre-Iterations <==

   -------------------------------------------------------
    Irrep   Nso     Nmo     Nalpha   Nbeta   Ndocc  Nsocc
   -------------------------------------------------------
     A'        50      50       0       0       0       0
     A"        24      24       0       0       0       0
   -------------------------------------------------------
    Total      74      74       8       8       8       0
   -------------------------------------------------------

  ==> Integral Setup <==

  ==> DiskDFJK: Density-Fitted J/K Matrices <==

    J tasked:                  Yes
    K tasked:                  Yes
    wK tasked:                 Yes
    Omega:               3.000E-01
    OpenMP threads:             24
    Integrals threads:          24
    Memory [MiB]:           102664
    Algorithm:                Core
    Integral Cache:           NONE
    Schwarz Cutoff:          1E-12
    Fitting Condition:       1E-10

   => Auxiliary Basis Set <=

  Basis Set: (CC-PV(T+D)Z AUX)
    Blend: CC-PVTZ-JKFIT
    Number of shells: 60
    Number of basis function: 188
    Number of Cartesian functions: 227
    Spherical Harmonics?: true
    Max angular momentum: 4

  Cached 100.0% of DFT collocation blocks in 0.324 [GiB].

  Minimum eigenvalue in the overlap matrix is 2.5777833254E-03.
  Using Symmetric Orthogonalization.

  SCF Guess: Superposition of Atomic Densities via on-the-fly atomic UHF.

  ==> Iterations <==

                           Total Energy        Delta E     RMS |[F,P]|

   @DF-RKS iter SAD:  -129.93740497898401   -1.29937e+02   0.00000e+00 
   @DF-RKS iter   1:  -130.44953364145775   -5.12129e-01   5.28509e-03 DIIS
   @DF-RKS iter   2:  -130.46439932598636   -1.48657e-02   4.65167e-03 DIIS
   @DF-RKS iter   3:  -130.48321452109874   -1.88152e-02   1.44919e-03 DIIS
   @DF-RKS iter   4:  -130.48531378616946   -2.09927e-03   2.84902e-04 DIIS
   @DF-RKS iter   5:  -130.48542148590468   -1.07700e-04   6.52683e-05 DIIS
   @DF-RKS iter   6:  -130.48542976746504   -8.28156e-06   9.62670e-06 DIIS
   @DF-RKS iter   7:  -130.48543042197980   -6.54515e-07   2.35025e-06 DIIS
   @DF-RKS iter   8:  -130.48543046512307   -4.31433e-08   4.54682e-07 DIIS
   @DF-RKS iter   9:  -130.48543046657269   -1.44962e-09   9.33447e-08 DIIS
   @DF-RKS iter  10:  -130.48543046662738   -5.46834e-11   2.45853e-08 DIIS
   @DF-RKS iter  11:  -130.48543046662977   -2.38742e-12   6.58407e-09 DIIS
  Energy and wave function converged.


  ==> Post-Iterations <==

    Orbital Energies [Eh]
    ---------------------

    Doubly Occupied:                                                      

       1Ap   -19.414458     2Ap   -14.630330     3Ap    -1.299316  
       4Ap    -0.848927     5Ap    -0.642669     1App   -0.564519  
       6Ap    -0.561929     7Ap    -0.350896  

    Virtual:                                                              

       2App   -0.004311     8Ap     0.104213     9Ap     0.305026  
      10Ap     0.444427    11Ap     0.516634     3App    0.518214  
      12Ap     0.585484    13Ap     0.623367    14Ap     0.677528  
      15Ap     0.701725     4App    0.719604     5App    0.743007  
      16Ap     0.873643    17Ap     1.190415     6App    1.191687  
       7App    1.311892    18Ap     1.325797    19Ap     1.439412  
      20Ap     1.545787    21Ap     1.676352    22Ap     1.697055  
       8App    1.704058     9App    2.081155    23Ap     2.160964  
      24Ap     2.300073    25Ap     2.401976    10App    2.924521  
      26Ap     3.073562    11App    3.189693    27Ap     3.235156  
      12App    3.352769    28Ap     3.429379    29Ap     3.545487  
      30Ap     3.667155    13App    3.699074    31Ap     3.863402  
      14App    3.872034    32Ap     3.928638    33Ap     4.024493  
      15App    4.114832    34Ap     4.197402    16App    4.215159  
      35Ap     4.324010    17App    4.630936    36Ap     4.664560  
      37Ap     4.692267    18App    4.812952    38Ap     4.895801  
      39Ap     5.150145    19App    5.168061    40Ap     5.238310  
      20App    5.482569    41Ap     5.512099    42Ap     5.644129  
      21App    5.671092    43Ap     5.954728    22App    6.340215  
      44Ap     6.351211    23App    6.410021    45Ap     6.614536  
      46Ap     6.618262    24App    6.933679    47Ap     6.984956  
      48Ap     7.215741    49Ap     8.849389    50Ap    12.786263  

    Final Occupation by Irrep:
             Ap   App 
    DOCC [     7,    1 ]

  @DF-RKS Final Energy:  -130.48543046662977

   => Energetics <=

    Nuclear Repulsion Energy =             30.3025429171817038
    One-Electron Energy =                -237.8303859591498792
    Two-Electron Energy =                  88.3418074160224762
    DFT Exchange-Correlation Energy =     -11.3663658557820710
    Empirical Dispersion Energy =           0.0000000000000000
    VV10 Nonlocal Energy =                  0.0669710150979944
    Total Energy =                       -130.4854304666297651

Computation Completed


Properties will be evaluated at   0.000000,   0.000000,   0.000000 [a0]

Properties computed using the SCF density matrix

  Nuclear Dipole Moment: [e a0]
     X:     0.5540      Y:     1.1336      Z:     0.0000

  Electronic Dipole Moment: [e a0]
     X:    -0.3662      Y:    -0.4736      Z:     0.0000

  Dipole Moment: [e a0]
     X:     0.1878      Y:     0.6600      Z:     0.0000     Total:     0.6862

  Dipole Moment: [D]
     X:     0.4774      Y:     1.6775      Z:     0.0000     Total:     1.7441


*** tstop() called on bp1-compute00139.data.bp.acrc.priv at Tue Apr 27 17:45:31 2021
Module time:
	user time   =      72.15 seconds =       1.20 minutes
	system time =       2.33 seconds =       0.04 minutes
	total time  =          3 seconds =       0.05 minutes
Total time:
	user time   =     365.71 seconds =       6.10 minutes
	system time =      13.98 seconds =       0.23 minutes
	total time  =         16 seconds =       0.27 minutes

  //>>>>>>>>>>>>>>>>>>>>>>>>>>>>>>>>>>>//
  //    Loading displacement 6 of 7    //
  //<<<<<<<<<<<<<<<<<<<<<<<<<<<<<<<<<<<//

*** tstart() called on bp1-compute00139.data.bp.acrc.priv
*** at Tue Apr 27 17:45:31 2021

   => Loading Basis Set <=

    Name: CC-PV(T+D)Z
    Role: ORBITAL
    Keyword: BASIS
    atoms 1 entry N          line   233 file /work/zw18965/.conda/envs/p4env/share/psi4/basis/cc-pv_tpd_z.gbs 
    atoms 2 entry H          line    32 file /work/zw18965/.conda/envs/p4env/share/psi4/basis/cc-pv_tpd_z.gbs 
    atoms 3 entry O          line   271 file /work/zw18965/.conda/envs/p4env/share/psi4/basis/cc-pv_tpd_z.gbs 


         ---------------------------------------------------------
                                   SCF
               by Justin Turney, Rob Parrish, Andy Simmonett
                          and Daniel G. A. Smith
                              RKS Reference
                       24 Threads, 137329 MiB Core
         ---------------------------------------------------------

  ==> Geometry <==

    Molecular point group: cs
    Full point group: Cs

    Geometry (in Angstrom), charge = 0, multiplicity = 1:

       Center              X                  Y                   Z               Mass       
    ------------   -----------------  -----------------  -----------------  -----------------
         N            0.593956145973     0.158856957167     0.000000000000    14.003074004430
         H            0.592351531111     1.210395435411     0.000000000000     1.007825032230
         O           -0.557314545303    -0.215340477142     0.000000000000    15.994914619570

  Running in cs symmetry.

  Rotational constants: A =     18.84389  B =      1.41201  C =      1.31358 [cm^-1]
  Rotational constants: A = 564925.65097  B =  42331.12874  C =  39380.27744 [MHz]
  Nuclear repulsion =   30.313689360107158

  Charge       = 0
  Multiplicity = 1
  Electrons    = 16
  Nalpha       = 8
  Nbeta        = 8

  ==> Algorithm <==

  SCF Algorithm Type is DF.
  DIIS enabled.
  MOM disabled.
  Fractional occupation disabled.
  Guess Type is SAD.
  Energy threshold   = 1.00e-08
  Density threshold  = 1.00e-08
  Integral threshold = 0.00e+00

  ==> Primary Basis <==

  Basis Set: CC-PV(T+D)Z
    Blend: CC-PV(T+D)Z
    Number of shells: 26
    Number of basis function: 74
    Number of Cartesian functions: 85
    Spherical Harmonics?: true
    Max angular momentum: 3

  ==> DFT Potential <==

   => Composite Functional: WB97M-V <= 

    wB97M-V Hyb-GGA Exchange-Correlation Functional

    N. Mardirossian and M. Head-Gordon, J. Chem. Phys. 144, 214110 (2016)

    Deriv               =              1
    GGA                 =           TRUE
    Meta                =           TRUE

    Exchange Hybrid     =           TRUE
    MP2 Hybrid          =          FALSE

   => Exchange-Correlation Functionals <=

    1.0000   wB97M-V exchange-correlation functional

   => Exact (HF) Exchange <=

    0.8500            HF,LR [omega = 0.3000]
    0.1500               HF 

   => VV10 Non-Local Parameters <=

    VV10 B              =     6.0000E+00
    VV10 C              =     1.0000E-02

   => Molecular Quadrature <=

    Radial Scheme          =       TREUTLER
    Pruning Scheme         =           FLAT
    Nuclear Scheme         =       TREUTLER

    BS radius alpha        =              1
    Pruning alpha          =              1
    Radial Points          =             75
    Spherical Points       =            302
    Total Points           =          66216
    Total Blocks           =            550
    Max Points             =            253
    Max Functions          =             74

   => Loading Basis Set <=

    Name: (CC-PV(T+D)Z AUX)
    Role: JKFIT
    Keyword: DF_BASIS_SCF
    atoms 1 entry N          line   177 file /work/zw18965/.conda/envs/p4env/share/psi4/basis/cc-pvtz-jkfit.gbs 
    atoms 2 entry H          line    51 file /work/zw18965/.conda/envs/p4env/share/psi4/basis/cc-pvtz-jkfit.gbs 
    atoms 3 entry O          line   229 file /work/zw18965/.conda/envs/p4env/share/psi4/basis/cc-pvtz-jkfit.gbs 

  ==> Pre-Iterations <==

   -------------------------------------------------------
    Irrep   Nso     Nmo     Nalpha   Nbeta   Ndocc  Nsocc
   -------------------------------------------------------
     A'        50      50       0       0       0       0
     A"        24      24       0       0       0       0
   -------------------------------------------------------
    Total      74      74       8       8       8       0
   -------------------------------------------------------

  ==> Integral Setup <==

  ==> DiskDFJK: Density-Fitted J/K Matrices <==

    J tasked:                  Yes
    K tasked:                  Yes
    wK tasked:                 Yes
    Omega:               3.000E-01
    OpenMP threads:             24
    Integrals threads:          24
    Memory [MiB]:           102664
    Algorithm:                Core
    Integral Cache:           NONE
    Schwarz Cutoff:          1E-12
    Fitting Condition:       1E-10

   => Auxiliary Basis Set <=

  Basis Set: (CC-PV(T+D)Z AUX)
    Blend: CC-PVTZ-JKFIT
    Number of shells: 60
    Number of basis function: 188
    Number of Cartesian functions: 227
    Spherical Harmonics?: true
    Max angular momentum: 4

  Cached 100.0% of DFT collocation blocks in 0.324 [GiB].

  Minimum eigenvalue in the overlap matrix is 2.5764415987E-03.
  Using Symmetric Orthogonalization.

  SCF Guess: Superposition of Atomic Densities via on-the-fly atomic UHF.

  ==> Iterations <==

                           Total Energy        Delta E     RMS |[F,P]|

   @DF-RKS iter SAD:  -129.93860747718432   -1.29939e+02   0.00000e+00 
   @DF-RKS iter   1:  -130.44954505111190   -5.10938e-01   5.28654e-03 DIIS
   @DF-RKS iter   2:  -130.46443763031243   -1.48926e-02   4.65058e-03 DIIS
   @DF-RKS iter   3:  -130.48324050974631   -1.88029e-02   1.44721e-03 DIIS
   @DF-RKS iter   4:  -130.48533369902313   -2.09319e-03   2.85056e-04 DIIS
   @DF-RKS iter   5:  -130.48544135550316   -1.07656e-04   6.51656e-05 DIIS
   @DF-RKS iter   6:  -130.48544959915006   -8.24365e-06   9.60472e-06 DIIS
   @DF-RKS iter   7:  -130.48545025076120   -6.51611e-07   2.34767e-06 DIIS
   @DF-RKS iter   8:  -130.48545029388495   -4.31237e-08   4.55051e-07 DIIS
   @DF-RKS iter   9:  -130.48545029533588   -1.45093e-09   9.34697e-08 DIIS
   @DF-RKS iter  10:  -130.48545029539042   -5.45413e-11   2.46567e-08 DIIS
   @DF-RKS iter  11:  -130.48545029539295   -2.52953e-12   6.58889e-09 DIIS
  Energy and wave function converged.


  ==> Post-Iterations <==

    Orbital Energies [Eh]
    ---------------------

    Doubly Occupied:                                                      

       1Ap   -19.414363     2Ap   -14.630316     3Ap    -1.299660  
       4Ap    -0.848749     5Ap    -0.642740     1App   -0.564678  
       6Ap    -0.562025     7Ap    -0.350916  

    Virtual:                                                              

       2App   -0.004175     8Ap     0.104263     9Ap     0.305132  
      10Ap     0.444510    11Ap     0.516196     3App    0.518179  
      12Ap     0.585780    13Ap     0.623712    14Ap     0.677772  
      15Ap     0.701459     4App    0.719714     5App    0.742630  
      16Ap     0.873535    17Ap     1.190364     6App    1.192183  
       7App    1.312059    18Ap     1.326251    19Ap     1.440466  
      20Ap     1.545418    21Ap     1.676160    22Ap     1.696676  
       8App    1.703686     9App    2.081497    23Ap     2.160694  
      24Ap     2.300407    25Ap     2.401922    10App    2.924583  
      26Ap     3.073677    11App    3.189323    27Ap     3.235512  
      12App    3.352719    28Ap     3.429337    29Ap     3.545604  
      30Ap     3.666698    13App    3.698974    31Ap     3.865374  
      14App    3.872014    32Ap     3.927878    33Ap     4.025254  
      15App    4.115654    34Ap     4.198435    16App    4.214844  
      35Ap     4.323096    17App    4.631420    36Ap     4.663495  
      37Ap     4.693289    18App    4.813105    38Ap     4.897203  
      39Ap     5.150371    19App    5.168444    40Ap     5.239611  
      20App    5.484683    41Ap     5.512350    42Ap     5.644420  
      21App    5.670017    43Ap     5.955763    22App    6.340222  
      44Ap     6.351539    23App    6.410968    45Ap     6.614588  
      46Ap     6.619723    24App    6.934336    47Ap     6.985016  
      48Ap     7.215967    49Ap     8.850919    50Ap    12.793927  

    Final Occupation by Irrep:
             Ap   App 
    DOCC [     7,    1 ]

  @DF-RKS Final Energy:  -130.48545029539295

   => Energetics <=

    Nuclear Repulsion Energy =             30.3136893601071584
    One-Electron Energy =                -237.8516772439382407
    Two-Electron Energy =                  88.3523272468229379
    DFT Exchange-Correlation Energy =     -11.3667601102040905
    Empirical Dispersion Energy =           0.0000000000000000
    VV10 Nonlocal Energy =                  0.0669704518192634
    Total Energy =                       -130.4854502953929796

Computation Completed


Properties will be evaluated at   0.000000,   0.000000,   0.000000 [a0]

Properties computed using the SCF density matrix

  Nuclear Dipole Moment: [e a0]
     X:     0.5509      Y:     1.1332      Z:     0.0000

  Electronic Dipole Moment: [e a0]
     X:    -0.3644      Y:    -0.4739      Z:     0.0000

  Dipole Moment: [e a0]
     X:     0.1865      Y:     0.6593      Z:     0.0000     Total:     0.6851

  Dipole Moment: [D]
     X:     0.4740      Y:     1.6757      Z:     0.0000     Total:     1.7415


*** tstop() called on bp1-compute00139.data.bp.acrc.priv at Tue Apr 27 17:45:34 2021
Module time:
	user time   =      72.27 seconds =       1.20 minutes
	system time =       2.19 seconds =       0.04 minutes
	total time  =          3 seconds =       0.05 minutes
Total time:
	user time   =     438.12 seconds =       7.30 minutes
	system time =      16.18 seconds =       0.27 minutes
	total time  =         19 seconds =       0.32 minutes

  //>>>>>>>>>>>>>>>>>>>>>>>>>>>>>>>>>>>//
  //    Loading displacement 7 of 7    //
  //<<<<<<<<<<<<<<<<<<<<<<<<<<<<<<<<<<<//

*** tstart() called on bp1-compute00139.data.bp.acrc.priv
*** at Tue Apr 27 17:45:34 2021

   => Loading Basis Set <=

    Name: CC-PV(T+D)Z
    Role: ORBITAL
    Keyword: BASIS
    atoms 1 entry N          line   233 file /work/zw18965/.conda/envs/p4env/share/psi4/basis/cc-pv_tpd_z.gbs 
    atoms 2 entry H          line    32 file /work/zw18965/.conda/envs/p4env/share/psi4/basis/cc-pv_tpd_z.gbs 
    atoms 3 entry O          line   271 file /work/zw18965/.conda/envs/p4env/share/psi4/basis/cc-pv_tpd_z.gbs 


         ---------------------------------------------------------
                                   SCF
               by Justin Turney, Rob Parrish, Andy Simmonett
                          and Daniel G. A. Smith
                              RKS Reference
                       24 Threads, 137329 MiB Core
         ---------------------------------------------------------

  ==> Geometry <==

    Molecular point group: cs
    Full point group: Cs

    Geometry (in Angstrom), charge = 0, multiplicity = 1:

       Center              X                  Y                   Z               Mass       
    ------------   -----------------  -----------------  -----------------  -----------------
         N            0.593956145973     0.158856957167     0.000000000000    14.003074004430
         H            0.595560760834     1.214375298922     0.000000000000     1.007825032230
         O           -0.557516755951    -0.215591244725     0.000000000000    15.994914619570

  Running in cs symmetry.

  Rotational constants: A =     18.75561  B =      1.41028  C =      1.31165 [cm^-1]
  Rotational constants: A = 562278.93115  B =  42279.10236  C =  39322.35975 [MHz]
  Nuclear repulsion =   30.288113202601853

  Charge       = 0
  Multiplicity = 1
  Electrons    = 16
  Nalpha       = 8
  Nbeta        = 8

  ==> Algorithm <==

  SCF Algorithm Type is DF.
  DIIS enabled.
  MOM disabled.
  Fractional occupation disabled.
  Guess Type is SAD.
  Energy threshold   = 1.00e-08
  Density threshold  = 1.00e-08
  Integral threshold = 0.00e+00

  ==> Primary Basis <==

  Basis Set: CC-PV(T+D)Z
    Blend: CC-PV(T+D)Z
    Number of shells: 26
    Number of basis function: 74
    Number of Cartesian functions: 85
    Spherical Harmonics?: true
    Max angular momentum: 3

  ==> DFT Potential <==

   => Composite Functional: WB97M-V <= 

    wB97M-V Hyb-GGA Exchange-Correlation Functional

    N. Mardirossian and M. Head-Gordon, J. Chem. Phys. 144, 214110 (2016)

    Deriv               =              1
    GGA                 =           TRUE
    Meta                =           TRUE

    Exchange Hybrid     =           TRUE
    MP2 Hybrid          =          FALSE

   => Exchange-Correlation Functionals <=

    1.0000   wB97M-V exchange-correlation functional

   => Exact (HF) Exchange <=

    0.8500            HF,LR [omega = 0.3000]
    0.1500               HF 

   => VV10 Non-Local Parameters <=

    VV10 B              =     6.0000E+00
    VV10 C              =     1.0000E-02

   => Molecular Quadrature <=

    Radial Scheme          =       TREUTLER
    Pruning Scheme         =           FLAT
    Nuclear Scheme         =       TREUTLER

    BS radius alpha        =              1
    Pruning alpha          =              1
    Radial Points          =             75
    Spherical Points       =            302
    Total Points           =          66216
    Total Blocks           =            548
    Max Points             =            256
    Max Functions          =             74

   => Loading Basis Set <=

    Name: (CC-PV(T+D)Z AUX)
    Role: JKFIT
    Keyword: DF_BASIS_SCF
    atoms 1 entry N          line   177 file /work/zw18965/.conda/envs/p4env/share/psi4/basis/cc-pvtz-jkfit.gbs 
    atoms 2 entry H          line    51 file /work/zw18965/.conda/envs/p4env/share/psi4/basis/cc-pvtz-jkfit.gbs 
    atoms 3 entry O          line   229 file /work/zw18965/.conda/envs/p4env/share/psi4/basis/cc-pvtz-jkfit.gbs 

  ==> Pre-Iterations <==

   -------------------------------------------------------
    Irrep   Nso     Nmo     Nalpha   Nbeta   Ndocc  Nsocc
   -------------------------------------------------------
     A'        50      50       0       0       0       0
     A"        24      24       0       0       0       0
   -------------------------------------------------------
    Total      74      74       8       8       8       0
   -------------------------------------------------------

  ==> Integral Setup <==

  ==> DiskDFJK: Density-Fitted J/K Matrices <==

    J tasked:                  Yes
    K tasked:                  Yes
    wK tasked:                 Yes
    Omega:               3.000E-01
    OpenMP threads:             24
    Integrals threads:          24
    Memory [MiB]:           102664
    Algorithm:                Core
    Integral Cache:           NONE
    Schwarz Cutoff:          1E-12
    Fitting Condition:       1E-10

   => Auxiliary Basis Set <=

  Basis Set: (CC-PV(T+D)Z AUX)
    Blend: CC-PVTZ-JKFIT
    Number of shells: 60
    Number of basis function: 188
    Number of Cartesian functions: 227
    Spherical Harmonics?: true
    Max angular momentum: 4

  Cached 100.0% of DFT collocation blocks in 0.324 [GiB].

  Minimum eigenvalue in the overlap matrix is 2.5941437054E-03.
  Using Symmetric Orthogonalization.

  SCF Guess: Superposition of Atomic Densities via on-the-fly atomic UHF.

  ==> Iterations <==

                           Total Energy        Delta E     RMS |[F,P]|

   @DF-RKS iter SAD:  -129.93606199899131   -1.29936e+02   0.00000e+00 
   @DF-RKS iter   1:  -130.44939309754878   -5.13331e-01   5.29444e-03 DIIS
   @DF-RKS iter   2:  -130.46403729018166   -1.46442e-02   4.69043e-03 DIIS
   @DF-RKS iter   3:  -130.48322082535466   -1.91835e-02   1.44929e-03 DIIS
   @DF-RKS iter   4:  -130.48532230807209   -2.10148e-03   2.84623e-04 DIIS
   @DF-RKS iter   5:  -130.48543015773635   -1.07850e-04   6.55471e-05 DIIS
   @DF-RKS iter   6:  -130.48543854882709   -8.39109e-06   9.72297e-06 DIIS
   @DF-RKS iter   7:  -130.48543921806618   -6.69239e-07   2.37120e-06 DIIS
   @DF-RKS iter   8:  -130.48543926192414   -4.38580e-08   4.59419e-07 DIIS
   @DF-RKS iter   9:  -130.48543926339860   -1.47446e-09   9.43956e-08 DIIS
   @DF-RKS iter  10:  -130.48543926345388   -5.52802e-11   2.50409e-08 DIIS
   @DF-RKS iter  11:  -130.48543926345627   -2.38742e-12   6.68020e-09 DIIS
  Energy and wave function converged.


  ==> Post-Iterations <==

    Orbital Energies [Eh]
    ---------------------

    Doubly Occupied:                                                      

       1Ap   -19.414576     2Ap   -14.630816     3Ap    -1.299393  
       4Ap    -0.848067     5Ap    -0.642465     1App   -0.564622  
       6Ap    -0.562021     7Ap    -0.350871  

    Virtual:                                                              

       2App   -0.004304     8Ap     0.103921     9Ap     0.305041  
      10Ap     0.442568    11Ap     0.516954     3App    0.518149  
      12Ap     0.585485    13Ap     0.623065    14Ap     0.678148  
      15Ap     0.701893     4App    0.719444     5App    0.742584  
      16Ap     0.873170    17Ap     1.188718     6App    1.191725  
       7App    1.310899    18Ap     1.324978    19Ap     1.438616  
      20Ap     1.543848    21Ap     1.676499    22Ap     1.697765  
       8App    1.703688     9App    2.081162    23Ap     2.161070  
      24Ap     2.299961    25Ap     2.402319    10App    2.923330  
      26Ap     3.072494    11App    3.189094    27Ap     3.234418  
      12App    3.351853    28Ap     3.426351    29Ap     3.544313  
      30Ap     3.665466    13App    3.699055    31Ap     3.862252  
      14App    3.870200    32Ap     3.927739    33Ap     4.019106  
      15App    4.112618    34Ap     4.197764    16App    4.213698  
      35Ap     4.321734    17App    4.630921    36Ap     4.659734  
      37Ap     4.690765    18App    4.812858    38Ap     4.895076  
      39Ap     5.146082    19App    5.165877    40Ap     5.234898  
      20App    5.473961    41Ap     5.504785    42Ap     5.640881  
      21App    5.668362    43Ap     5.949571    22App    6.340104  
      44Ap     6.350928    23App    6.409993    45Ap     6.611768  
      46Ap     6.616701    24App    6.933737    47Ap     6.984629  
      48Ap     7.215507    49Ap     8.830401    50Ap    12.776602  

    Final Occupation by Irrep:
             Ap   App 
    DOCC [     7,    1 ]

  @DF-RKS Final Energy:  -130.48543926345627

   => Energetics <=

    Nuclear Repulsion Energy =             30.2881132026018527
    One-Electron Energy =                -237.8026941314127214
    Two-Electron Energy =                  88.3273108710783532
    DFT Exchange-Correlation Energy =     -11.3651385943190526
    Empirical Dispersion Energy =           0.0000000000000000
    VV10 Nonlocal Energy =                  0.0669693885952801
    Total Energy =                       -130.4854392634562714

Computation Completed


Properties will be evaluated at   0.000000,   0.000000,   0.000000 [a0]

Properties computed using the SCF density matrix

  Nuclear Dipole Moment: [e a0]
     X:     0.5539      Y:     1.1369      Z:     0.0000

  Electronic Dipole Moment: [e a0]
     X:    -0.3667      Y:    -0.4793      Z:     0.0000

  Dipole Moment: [e a0]
     X:     0.1872      Y:     0.6576      Z:     0.0000     Total:     0.6837

  Dipole Moment: [D]
     X:     0.4757      Y:     1.6715      Z:     0.0000     Total:     1.7379


*** tstop() called on bp1-compute00139.data.bp.acrc.priv at Tue Apr 27 17:45:37 2021
Module time:
	user time   =      70.72 seconds =       1.18 minutes
	system time =       2.12 seconds =       0.04 minutes
	total time  =          3 seconds =       0.05 minutes
Total time:
	user time   =     508.97 seconds =       8.48 minutes
	system time =      18.31 seconds =       0.31 minutes
	total time  =         22 seconds =       0.37 minutes

         ----------------------------------------------------------
                                   FINDIF
                     R. A. King and Jonathon Misiewicz
         ---------------------------------------------------------

  Computing gradient from energies.
    Using 3-point formula.
    Energy without displacement: -130.4854475206
    Check energies below for precision!
    Forces are for mass-weighted, symmetry-adapted cartesians (in au).

     Coord      Energy(-1)        Energy(+1)            Force
        0   -130.4854851117   -130.4854074460      0.0077665665
        1   -130.4854592722   -130.4854304666      0.0028805535
        2   -130.4854502954   -130.4854392635      0.0011031937


-------------------------------------------------------------
  ## New Matrix (Symmetry 0) ##
  Irrep: 1 Size: 3 x 3

                 1                   2                   3

    1     0.02097490740523     0.00822475196291     0.00000000000000
    2     0.00063300568647    -0.00062058411549     0.00000000000000
    3    -0.02160791309170    -0.00760416784742     0.00000000000000




			-----------------------------------------
			 OPTKING 2.0: for geometry optimizations 
			  - R.A. King,  Bethel University        
			-----------------------------------------
	At level 1: Red. Int., RFO, no backsteps, dynamic trust

	Internal coordinates to be generated automatically.
	Detected frag 1 with atoms:  1 2 3
	---Fragment 1 Bond Connectivity---
	 1 : 2 3
	 2 : 1
	 3 : 1

	---Fragment 1 Geometry and Gradient---
	 N           1.1224144464        0.3001961422        0.0000000000
	 H           1.1224144464        2.2910763025        0.0000000000
	 O          -1.0533629177       -0.4071714666        0.0000000000
	             0.0209749074        0.0082247520        0.0000000000
	             0.0006330057       -0.0006205841        0.0000000000
	            -0.0216079131       -0.0076041678        0.0000000000

	Previous optimization step data not found.  Starting new optimization.

	---Fragment 1 Intrafragment Coordinates---
	 - Coordinate -           - BOHR/RAD -       - ANG/DEG -
	 R(1,2)           =         1.990880	       1.053528
	 R(1,3)           =         2.287876	       1.210692
	 B(2,1,3)         =         1.885128	     108.009877

	Current energy   :      -130.4854475206

	Generating empirical Hessian (Schlegel '84) for each fragment.
	Taking RFO optimization step.
	Going to follow RFO solution 1.
	Using RFO vector 1.
	Norm of target step-size    0.02433
	Projected energy change by RFO approximation:        -0.0004707563

	Back-transformation to cartesian coordinates...
	Successfully converged to displaced geometry.

	--- Internal Coordinate Step in ANG or DEG, aJ/ANG or AJ/DEG ---
	 ---------------------------------------------------------------------------
	   Coordinate                Previous        Force       Change         New 
	   ----------                --------       ------       ------       ------
	    1 R(1,2)          =      1.053528     0.005113     0.000833     1.054361
	    2 R(1,3)          =      1.210692    -0.188669    -0.012157     1.198535
	    3 B(2,1,3)        =    108.009877    -0.000096    -0.449780   107.560097
	 ---------------------------------------------------------------------------
	Successfully symmetrized geometry.

  ==> Convergence Check <==

  Measures of convergence in internal coordinates in au.
  Criteria marked as inactive (o), active & met (*), and active & unmet ( ).
  --------------------------------------------------------------------------------------------- ~
   Step     Total Energy     Delta E     MAX Force     RMS Force      MAX Disp      RMS Disp    ~
  --------------------------------------------------------------------------------------------- ~
    Convergence Criteria    1.00e-06 *    3.00e-04 *             o    1.20e-03 *             o  ~
  --------------------------------------------------------------------------------------------- ~
      1    -130.48544752   -1.30e+02      2.29e-02      1.32e-02 o    2.30e-02      1.40e-02 o  ~
  ---------------------------------------------------------------------------------------------

	Writing optimization data to binary file.
	Structure for next step:
	Cartesian Geometry (in Angstrom)
	    N     0.5915554809   0.1551589026   0.0000000000
	    H     0.5892907516   1.2095174116   0.0000000000
	    O    -0.5503495937  -0.2088998553   0.0000000000
			--------------------------
			 OPTKING Finished Execution 
			--------------------------

    Structure for next step:
    Molecular point group: cs
    Full point group: Cs

    Geometry (in Angstrom), charge = 0, multiplicity = 1:

    N            0.589146180702     0.153535073220     0.000000000000
    H            0.586881451316     1.207893586314     0.000000000000
    O           -0.552758898417    -0.210523686136     0.000000000000

gradient() will perform gradient computation by finite difference of analytic energies.

         ----------------------------------------------------------
                                   FINDIF
                     R. A. King and Jonathon Misiewicz
         ---------------------------------------------------------

  Using finite-differences of energies to determine gradients.
    Generating geometries for use with 3-point formula.
    Displacement size will be 5.00e-03.
    Number of atoms is 3.
    Number of symmetric SALCs is 3.
    Translations projected? 1. Rotations projected? 1.
    Number of geometries (including reference) is 7.

  //>>>>>>>>>>>>>>>>>>>>>>>>>>>>>>>>>>>//
  //    Loading displacement 1 of 7    //
  //<<<<<<<<<<<<<<<<<<<<<<<<<<<<<<<<<<<//

*** tstart() called on bp1-compute00139.data.bp.acrc.priv
*** at Tue Apr 27 17:45:37 2021

   => Loading Basis Set <=

    Name: CC-PV(T+D)Z
    Role: ORBITAL
    Keyword: BASIS
    atoms 1 entry N          line   233 file /work/zw18965/.conda/envs/p4env/share/psi4/basis/cc-pv_tpd_z.gbs 
    atoms 2 entry H          line    32 file /work/zw18965/.conda/envs/p4env/share/psi4/basis/cc-pv_tpd_z.gbs 
    atoms 3 entry O          line   271 file /work/zw18965/.conda/envs/p4env/share/psi4/basis/cc-pv_tpd_z.gbs 


         ---------------------------------------------------------
                                   SCF
               by Justin Turney, Rob Parrish, Andy Simmonett
                          and Daniel G. A. Smith
                              RKS Reference
                       24 Threads, 137329 MiB Core
         ---------------------------------------------------------

  ==> Geometry <==

    Molecular point group: cs
    Full point group: Cs

    Geometry (in Angstrom), charge = 0, multiplicity = 1:

       Center              X                  Y                   Z               Mass       
    ------------   -----------------  -----------------  -----------------  -----------------
         N            0.589146180702     0.153535073220     0.000000000000    14.003074004430
         H            0.586881451316     1.207893586314     0.000000000000     1.007825032230
         O           -0.552758898417    -0.210523686136     0.000000000000    15.994914619570

  Running in cs symmetry.

[...]

    Final Occupation by Irrep:
             Ap   App 
    DOCC [     7,    1 ]

  @DF-RKS Final Energy:  -130.48578029555861

   => Energetics <=

    Nuclear Repulsion Energy =             30.5957189328477774
    One-Electron Energy =                -238.3844104098965886
    Two-Electron Energy =                  88.6110719378874876
    DFT Exchange-Correlation Energy =     -11.3751255399867102
    Empirical Dispersion Energy =           0.0000000000000000
    VV10 Nonlocal Energy =                  0.0669647835894350
    Total Energy =                       -130.4857802955585839

Computation Completed


Properties will be evaluated at   0.000000,   0.000000,   0.000000 [a0]

Properties computed using the SCF density matrix

  Nuclear Dipole Moment: [e a0]
     X:     0.5544      Y:     1.1360      Z:     0.0000

  Electronic Dipole Moment: [e a0]
     X:    -0.3779      Y:    -0.4924      Z:     0.0000

  Dipole Moment: [e a0]
     X:     0.1765      Y:     0.6437      Z:     0.0000     Total:     0.6674

  Dipole Moment: [D]
     X:     0.4487      Y:     1.6360      Z:     0.0000     Total:     1.6964


*** tstop() called on bp1-compute00139.data.bp.acrc.priv at Tue Apr 27 17:47:25 2021
Module time:
	user time   =      79.21 seconds =       1.32 minutes
	system time =       2.10 seconds =       0.04 minutes
	total time  =          4 seconds =       0.07 minutes
Total time:
	user time   =    3000.99 seconds =      50.02 minutes
	system time =      91.08 seconds =       1.52 minutes
	total time  =        130 seconds =       2.17 minutes

  //>>>>>>>>>>>>>>>>>>>>>>>>>>>>>>>>>>>//
  //   Loading displacement 13 of 13   //
  //<<<<<<<<<<<<<<<<<<<<<<<<<<<<<<<<<<<//

*** tstart() called on bp1-compute00139.data.bp.acrc.priv
*** at Tue Apr 27 17:47:25 2021

   => Loading Basis Set <=

    Name: CC-PV(T+D)Z
    Role: ORBITAL
    Keyword: BASIS
    atoms 1 entry N          line   233 file /work/zw18965/.conda/envs/p4env/share/psi4/basis/cc-pv_tpd_z.gbs 
    atoms 2 entry H          line    32 file /work/zw18965/.conda/envs/p4env/share/psi4/basis/cc-pv_tpd_z.gbs 
    atoms 3 entry O          line   271 file /work/zw18965/.conda/envs/p4env/share/psi4/basis/cc-pv_tpd_z.gbs 


         ---------------------------------------------------------
                                   SCF
               by Justin Turney, Rob Parrish, Andy Simmonett
                          and Daniel G. A. Smith
                              RKS Reference
                       24 Threads, 137329 MiB Core
         ---------------------------------------------------------

  ==> Geometry <==

    Molecular point group: cs
    Full point group: Cs

    Geometry (in Angstrom), charge = 0, multiplicity = 1:

       Center              X                  Y                   Z               Mass       
    ------------   -----------------  -----------------  -----------------  -----------------
         N            0.586547290242     0.155295281064     0.000000000000    14.003074004430
         H            0.589443382802     1.212566870444     0.000000000000     1.007825032230
         O           -0.550645071768    -0.212359155354     0.000000000000    15.994914619570

  Running in cs symmetry.

  Rotational constants: A =     18.70562  B =      1.44611  C =      1.34234 [cm^-1]
  Rotational constants: A = 560780.37174  B =  43353.36739  C =  40242.27734 [MHz]
  Nuclear repulsion =   30.618608210528397

  Charge       = 0
  Multiplicity = 1
  Electrons    = 16
  Nalpha       = 8
  Nbeta        = 8

  ==> Algorithm <==

  SCF Algorithm Type is DF.
  DIIS enabled.
  MOM disabled.
  Fractional occupation disabled.
  Guess Type is SAD.
  Energy threshold   = 1.00e-10
  Density threshold  = 1.00e-10
  Integral threshold = 0.00e+00

  ==> Primary Basis <==

  Basis Set: CC-PV(T+D)Z
    Blend: CC-PV(T+D)Z
    Number of shells: 26
    Number of basis function: 74
    Number of Cartesian functions: 85
    Spherical Harmonics?: true
    Max angular momentum: 3

  ==> DFT Potential <==

   => Composite Functional: WB97M-V <= 

    wB97M-V Hyb-GGA Exchange-Correlation Functional

    N. Mardirossian and M. Head-Gordon, J. Chem. Phys. 144, 214110 (2016)

    Deriv               =              1
    GGA                 =           TRUE
    Meta                =           TRUE

    Exchange Hybrid     =           TRUE
    MP2 Hybrid          =          FALSE

   => Exchange-Correlation Functionals <=

    1.0000   wB97M-V exchange-correlation functional

   => Exact (HF) Exchange <=

    0.8500            HF,LR [omega = 0.3000]
    0.1500               HF 

   => VV10 Non-Local Parameters <=

    VV10 B              =     6.0000E+00
    VV10 C              =     1.0000E-02

   => Molecular Quadrature <=

    Radial Scheme          =       TREUTLER
    Pruning Scheme         =           FLAT
    Nuclear Scheme         =       TREUTLER

    BS radius alpha        =              1
    Pruning alpha          =              1
    Radial Points          =             75
    Spherical Points       =            302
    Total Points           =          66210
    Total Blocks           =            551
    Max Points             =            252
    Max Functions          =             74

   => Loading Basis Set <=

    Name: (CC-PV(T+D)Z AUX)
    Role: JKFIT
    Keyword: DF_BASIS_SCF
    atoms 1 entry N          line   177 file /work/zw18965/.conda/envs/p4env/share/psi4/basis/cc-pvtz-jkfit.gbs 
    atoms 2 entry H          line    51 file /work/zw18965/.conda/envs/p4env/share/psi4/basis/cc-pvtz-jkfit.gbs 
    atoms 3 entry O          line   229 file /work/zw18965/.conda/envs/p4env/share/psi4/basis/cc-pvtz-jkfit.gbs 

  ==> Pre-Iterations <==

   -------------------------------------------------------
    Irrep   Nso     Nmo     Nalpha   Nbeta   Ndocc  Nsocc
   -------------------------------------------------------
     A'        50      50       0       0       0       0
     A"        24      24       0       0       0       0
   -------------------------------------------------------
    Total      74      74       8       8       8       0
   -------------------------------------------------------

  ==> Integral Setup <==

  ==> DiskDFJK: Density-Fitted J/K Matrices <==

    J tasked:                  Yes
    K tasked:                  Yes
    wK tasked:                 Yes
    Omega:               3.000E-01
    OpenMP threads:             24
    Integrals threads:          24
    Memory [MiB]:           102664
    Algorithm:                Core
    Integral Cache:           NONE
    Schwarz Cutoff:          1E-12
    Fitting Condition:       1E-10

   => Auxiliary Basis Set <=

  Basis Set: (CC-PV(T+D)Z AUX)
    Blend: CC-PVTZ-JKFIT
    Number of shells: 60
    Number of basis function: 188
    Number of Cartesian functions: 227
    Spherical Harmonics?: true
    Max angular momentum: 4

  Cached 100.0% of DFT collocation blocks in 0.324 [GiB].

  Minimum eigenvalue in the overlap matrix is 2.5310723559E-03.
  Using Symmetric Orthogonalization.

  SCF Guess: Superposition of Atomic Densities via on-the-fly atomic UHF.

  ==> Iterations <==

                           Total Energy        Delta E     RMS |[F,P]|

   @DF-RKS iter SAD:  -129.97203951038321   -1.29972e+02   0.00000e+00 
   @DF-RKS iter   1:  -130.44924825516696   -4.77209e-01   5.33721e-03 DIIS
   @DF-RKS iter   2:  -130.46504775478843   -1.57995e-02   4.62673e-03 DIIS
   @DF-RKS iter   3:  -130.48374022698724   -1.86925e-02   1.39267e-03 DIIS
   @DF-RKS iter   4:  -130.48566044837426   -1.92022e-03   2.88548e-04 DIIS
   @DF-RKS iter   5:  -130.48577066686923   -1.10218e-04   6.55148e-05 DIIS
   @DF-RKS iter   6:  -130.48577913582540   -8.46896e-06   9.94203e-06 DIIS
   @DF-RKS iter   7:  -130.48577984749295   -7.11668e-07   2.42641e-06 DIIS
   @DF-RKS iter   8:  -130.48577989428657   -4.67936e-08   4.80539e-07 DIIS
   @DF-RKS iter   9:  -130.48577989591604   -1.62947e-09   1.03442e-07 DIIS
   @DF-RKS iter  10:  -130.48577989597985   -6.38067e-11   2.68421e-08 DIIS
   @DF-RKS iter  11:  -130.48577989598257   -2.72848e-12   6.62910e-09 DIIS
   @DF-RKS iter  12:  -130.48577989598263   -5.68434e-14   1.13823e-09 DIIS
   @DF-RKS iter  13:  -130.48577989598260    2.84217e-14   2.23229e-10 DIIS
   @DF-RKS iter  14:  -130.48577989598286   -2.55795e-13   4.85013e-11 DIIS
  Energy and wave function converged.


  ==> Post-Iterations <==

    Orbital Energies [Eh]
    ---------------------

    Doubly Occupied:                                                      

       1Ap   -19.413590     2Ap   -14.629234     3Ap    -1.310838  
       4Ap    -0.844601     5Ap    -0.645902     1App   -0.570773  
       6Ap    -0.565718     7Ap    -0.347194  

    Virtual:                                                              

       2App    0.000719     8Ap     0.104727     9Ap     0.309027  
      10Ap     0.442998    11Ap     0.515936     3App    0.516706  
      12Ap     0.597532    13Ap     0.624606    14Ap     0.678435  
      15Ap     0.702175     4App    0.719474     5App    0.742284  
      16Ap     0.874772    17Ap     1.188958     6App    1.198117  
       7App    1.309538    18Ap     1.321008    19Ap     1.443463  
      20Ap     1.544564    21Ap     1.681820    22Ap     1.706406  
       8App    1.707880     9App    2.089527    23Ap     2.167479  
      24Ap     2.309398    25Ap     2.405234    10App    2.923966  
      26Ap     3.072105    11App    3.191654    27Ap     3.235233  
      12App    3.354259    28Ap     3.429107    29Ap     3.547803  
      30Ap     3.669126    13App    3.707253    31Ap     3.869009  
      14App    3.870574    32Ap     3.927951    33Ap     4.017510  
      15App    4.113667    34Ap     4.212689    16App    4.214237  
      35Ap     4.324605    17App    4.631355    36Ap     4.640845  
      37Ap     4.701786    18App    4.820498    38Ap     4.913012  
      39Ap     5.144193    19App    5.160264    40Ap     5.240254  
      20App    5.477615    41Ap     5.509870    42Ap     5.674664  
      21App    5.692207    43Ap     5.977798    22App    6.342319  
      44Ap     6.356454    23App    6.450930    45Ap     6.627165  
      46Ap     6.652252    24App    6.959617    47Ap     7.012404  
      48Ap     7.227602    49Ap     8.850685    50Ap    13.113009  

    Final Occupation by Irrep:
             Ap   App 
    DOCC [     7,    1 ]

  @DF-RKS Final Energy:  -130.48577989598286

   => Energetics <=

    Nuclear Repulsion Energy =             30.6186082105283965
    One-Electron Energy =                -238.4280352549687052
    Two-Electron Energy =                  88.6326357064121737
    DFT Exchange-Correlation Energy =     -11.3759522703655271
    Empirical Dispersion Energy =           0.0000000000000000
    VV10 Nonlocal Energy =                  0.0669637124107829
    Total Energy =                       -130.4857798959828585

Computation Completed


Properties will be evaluated at   0.000000,   0.000000,   0.000000 [a0]

Properties computed using the SCF density matrix

  Nuclear Dipole Moment: [e a0]
     X:     0.5482      Y:     1.1353      Z:     0.0000

  Electronic Dipole Moment: [e a0]
     X:    -0.3743      Y:    -0.4930      Z:     0.0000

  Dipole Moment: [e a0]
     X:     0.1739      Y:     0.6423      Z:     0.0000     Total:     0.6654

  Dipole Moment: [D]
     X:     0.4420      Y:     1.6325      Z:     0.0000     Total:     1.6913


*** tstop() called on bp1-compute00139.data.bp.acrc.priv at Tue Apr 27 17:47:28 2021
Module time:
	user time   =      79.52 seconds =       1.33 minutes
	system time =       2.36 seconds =       0.04 minutes
	total time  =          3 seconds =       0.05 minutes
Total time:
	user time   =    3080.65 seconds =      51.34 minutes
	system time =      93.44 seconds =       1.56 minutes
	total time  =        133 seconds =       2.22 minutes

         ----------------------------------------------------------
                                   FINDIF
                     R. A. King and Jonathon Misiewicz
         ---------------------------------------------------------

  Computing second-derivative from energies using projected, 
  symmetry-adapted, cartesian coordinates.

  13 energies passed in, including the reference geometry.
    Using 3-point formula.
    Energy without displacement: -130.4857825485
    Check energies below for precision!
    0: -1        :      -130.4857813752
    0: 1         :      -130.4857809829
    1: -1        :      -130.4857804234
    1: 1         :      -130.4857795397
    2: -1        :      -130.4857791947
    2: 1         :      -130.4857804770
    0: 1, 1: 1   :      -130.4857781834
    0: -1, 1: -1 :      -130.4857794624
    0: 1, 2: 1   :      -130.4857784449
    0: -1, 2: -1 :      -130.4857775486
    1: 1, 2: 1   :      -130.4857802956
    1: -1, 2: -1 :      -130.4857798960

-------------------------------------------------------------


  ==> Harmonic Vibrational Analysis <==

  non-mass-weighted Hessian:       Symmetric? True   Hermitian? True   Lin Dep Dim?  6 (0)
  projection of translations (True) and rotations (True) removed 6 degrees of freedom (6)
  total projector:                 Symmetric? True   Hermitian? True   Lin Dep Dim?  6 (6)
  mass-weighted Hessian:           Symmetric? True   Hermitian? True   Lin Dep Dim?  6 (0)
  pre-proj  low-frequency mode:    0.0000i [cm^-1]
  pre-proj  low-frequency mode:    0.0000i [cm^-1]
  pre-proj  low-frequency mode:    0.0000i [cm^-1]
  pre-proj  low-frequency mode:    0.0000  [cm^-1]
  pre-proj  low-frequency mode:    0.0000  [cm^-1]
  pre-proj  low-frequency mode:    0.0000  [cm^-1]
  pre-proj  all modes:['0.0000i' '0.0000i' '0.0000i' '0.0000' '0.0000' '0.0000' '1580.1431'
 '1714.7908' '2935.7198']
  projected mass-weighted Hessian: Symmetric? True   Hermitian? True   Lin Dep Dim?  6 (6)
  post-proj low-frequency mode:    0.0001i [cm^-1] (TR)
  post-proj low-frequency mode:    0.0000i [cm^-1] (TR)
  post-proj low-frequency mode:    0.0000  [cm^-1] (TR)
  post-proj low-frequency mode:    0.0000  [cm^-1] (TR)
  post-proj low-frequency mode:    0.0000  [cm^-1] (TR)
  post-proj low-frequency mode:    0.0000  [cm^-1] (TR)
  post-proj  all modes:['0.0001i' '0.0000i' '0.0000' '0.0000' '0.0000' '0.0000' '1580.1431'
 '1714.7908' '2935.7198']

  Vibration                       7                   8                   9           
  Freq [cm^-1]                1580.1431           1714.7908           2935.7198       
  Irrep                           Ap                  Ap                  Ap          
  Reduced mass [u]              1.2065             10.0969              1.0765        
  Force const [mDyne/A]         1.7749             17.4929              5.4664        
  Turning point v=0 [a0]        0.2513              0.0834              0.1952        
  RMS dev v=0 [a0 u^1/2]        0.1952              0.1874              0.1432        
  Char temp [K]               2273.4741           2467.2021           4223.8472       
  ----------------------------------------------------------------------------------
      1   N               -0.10  0.05 -0.00    0.54  0.23  0.00    0.02 -0.07 -0.00   
      2   H                0.99  0.10 -0.00    0.59 -0.02 -0.00   -0.03  1.00  0.00   
      3   O                0.02 -0.05 -0.00   -0.51 -0.20 -0.00   -0.01 -0.00  0.00   

  ==> Thermochemistry Components <==

  Entropy, S
    Electronic S            0.000 [cal/(mol K)]        0.000 [J/(mol K)]       0.00000000 [mEh/K] (multiplicity = 1)
    Translational S        36.227 [cal/(mol K)]      151.576 [J/(mol K)]       0.05773217 [mEh/K] (mol. weight = 31.0058 [u], P = 101325.00 [Pa])
    Rotational S           16.448 [cal/(mol K)]       68.817 [J/(mol K)]       0.02621094 [mEh/K] (symmetry no. = 1)
    Vibrational S           0.013 [cal/(mol K)]        0.055 [J/(mol K)]       0.00002085 [mEh/K]
  Total S                  52.688 [cal/(mol K)]      220.447 [J/(mol K)]       0.08396396 [mEh/K]
  Correction S              0.000 [cal/(mol K)]        0.000 [J/(mol K)]       0.00000000 [mEh/K]

  Constant volume heat capacity, Cv
    Electronic Cv           0.000 [cal/(mol K)]        0.000 [J/(mol K)]       0.00000000 [mEh/K]
    Translational Cv        2.981 [cal/(mol K)]       12.472 [J/(mol K)]       0.00475022 [mEh/K]
    Rotational Cv           2.981 [cal/(mol K)]       12.472 [J/(mol K)]       0.00475022 [mEh/K]
    Vibrational Cv          0.091 [cal/(mol K)]        0.382 [J/(mol K)]       0.00014567 [mEh/K]
  Total Cv                  6.053 [cal/(mol K)]       25.326 [J/(mol K)]       0.00964610 [mEh/K]
  Correction Cv             0.000 [cal/(mol K)]        0.000 [J/(mol K)]       0.00000000 [mEh/K]

  Constant pressure heat capacity, Cp
    Electronic Cp           0.000 [cal/(mol K)]        0.000 [J/(mol K)]       0.00000000 [mEh/K]
    Translational Cp        4.968 [cal/(mol K)]       20.786 [J/(mol K)]       0.00791703 [mEh/K]
    Rotational Cp           2.981 [cal/(mol K)]       12.472 [J/(mol K)]       0.00475022 [mEh/K]
    Vibrational Cp          0.091 [cal/(mol K)]        0.382 [J/(mol K)]       0.00014567 [mEh/K]
  Total Cp                  8.040 [cal/(mol K)]       33.640 [J/(mol K)]       0.01281291 [mEh/K]
  Correction Cp             0.000 [cal/(mol K)]        0.000 [J/(mol K)]       0.00000000 [mEh/K]

  ==> Thermochemistry Energy Analysis <==

  Raw electronic energy, E0
  Total E0, Electronic energy at well bottom at 0 [K]                 -130.48578255 [Eh]

  Zero-point energy, ZPE_vib = Sum_i nu_i / 2
    Electronic ZPE          0.000 [kcal/mol]        0.000 [kJ/mol]       0.00000000 [Eh]
    Translational ZPE       0.000 [kcal/mol]        0.000 [kJ/mol]       0.00000000 [Eh]
    Rotational ZPE          0.000 [kcal/mol]        0.000 [kJ/mol]       0.00000000 [Eh]
    Vibrational ZPE         8.907 [kcal/mol]       37.268 [kJ/mol]       0.01419447 [Eh]        3115.327 [cm^-1]
  Correction ZPE            8.907 [kcal/mol]       37.268 [kJ/mol]       0.01419447 [Eh]        3115.327 [cm^-1]
  Total ZPE, Electronic energy at 0 [K]                               -130.47158808 [Eh]

  Thermal Energy, E (includes ZPE)
    Electronic E            0.000 [kcal/mol]        0.000 [kJ/mol]       0.00000000 [Eh]
    Translational E         0.889 [kcal/mol]        3.718 [kJ/mol]       0.00141628 [Eh]
    Rotational E            0.889 [kcal/mol]        3.718 [kJ/mol]       0.00141628 [Eh]
    Vibrational E           8.911 [kcal/mol]       37.282 [kJ/mol]       0.01419999 [Eh]
  Correction E             10.688 [kcal/mol]       44.719 [kJ/mol]       0.01703254 [Eh]
  Total E, Electronic energy at  298.15 [K]                           -130.46875001 [Eh]

  Enthalpy, H_trans = E_trans + k_B * T
    Electronic H            0.000 [kcal/mol]        0.000 [kJ/mol]       0.00000000 [Eh]
    Translational H         1.481 [kcal/mol]        6.197 [kJ/mol]       0.00236046 [Eh]
    Rotational H            0.889 [kcal/mol]        3.718 [kJ/mol]       0.00141628 [Eh]
    Vibrational H           8.911 [kcal/mol]       37.282 [kJ/mol]       0.01419999 [Eh]
  Correction H             11.281 [kcal/mol]       47.198 [kJ/mol]       0.01797673 [Eh]
  Total H, Enthalpy at  298.15 [K]                                    -130.46780582 [Eh]

  Gibbs free energy, G = H - T * S
    Electronic G            0.000 [kcal/mol]        0.000 [kJ/mol]       0.00000000 [Eh]
    Translational G        -9.320 [kcal/mol]      -38.995 [kJ/mol]      -0.01485238 [Eh]
    Rotational G           -4.015 [kcal/mol]      -16.799 [kJ/mol]      -0.00639851 [Eh]
    Vibrational G           8.907 [kcal/mol]       37.266 [kJ/mol]       0.01419377 [Eh]
  Correction G             -4.428 [kcal/mol]      -18.528 [kJ/mol]      -0.00705713 [Eh]
  Total G, Free enthalpy at  298.15 [K]                               -130.49283968 [Eh]

    Psi4 stopped on: Tuesday, 27 April 2021 05:47PM
    Psi4 wall time for execution: 0:02:13.81

*** Psi4 exiting successfully. Buy a developer a beer!
