
    -----------------------------------------------------------------------
          Psi4: An Open-Source Ab Initio Electronic Structure Package
                               Psi4 1.3.2 release

                         Git: Rev {HEAD} ecbda83 


    R. M. Parrish, L. A. Burns, D. G. A. Smith, A. C. Simmonett,
    A. E. DePrince III, E. G. Hohenstein, U. Bozkaya, A. Yu. Sokolov,
    R. Di Remigio, R. M. Richard, J. F. Gonthier, A. M. James,
    H. R. McAlexander, A. Kumar, M. Saitow, X. Wang, B. P. Pritchard,
    P. Verma, H. F. Schaefer III, K. Patkowski, R. A. King, E. F. Valeev,
    F. A. Evangelista, J. M. Turney, T. D. Crawford, and C. D. Sherrill,
    J. Chem. Theory Comput. 13(7) pp 3185--3197 (2017).
    (doi: 10.1021/acs.jctc.7b00174)


                         Additional Contributions by
    P. Kraus, H. Kruse, M. H. Lechner, M. C. Schieber, R. A. Shaw,
    A. Alenaizan, R. Galvelis, Z. L. Glick, S. Lehtola, and J. P. Misiewicz

    -----------------------------------------------------------------------


    Psi4 started on: Tuesday, 27 April 2021 05:46PM

    Process ID: 142119
    Host:       bp1-compute00113.data.bp.acrc.priv
    PSIDATADIR: /work/zw18965/.conda/envs/p4env/share/psi4
    Memory:     500.0 MiB
    Threads:    24
    
  ==> Input File <==

--------------------------------------------------------------------------
memory 144 GB

molecule {
0 1
O 0.0000000000 0.0000000000 0.0000000000
H 0.0000000000 0.0000000000 0.9638997500
Cl 1.6530447720 0.0000000000 -0.3711121967
}

set dynamic_level 1
set basis cc-pV(T+d)Z
 
optimize("wB97M-V")
frequencies("wB97M-V")
--------------------------------------------------------------------------

  Memory set to 134.110 GiB by Python driver.
gradient() will perform gradient computation by finite difference of analytic energies.

         ----------------------------------------------------------
                                   FINDIF
                     R. A. King and Jonathon Misiewicz
         ---------------------------------------------------------

  Using finite-differences of energies to determine gradients.
    Generating geometries for use with 3-point formula.
    Displacement size will be 5.00e-03.
    Number of atoms is 3.
    Number of symmetric SALCs is 3.
    Translations projected? 1. Rotations projected? 1.
    Number of geometries (including reference) is 7.

  //>>>>>>>>>>>>>>>>>>>>>>>>>>>>>>>>>>>//
  //    Loading displacement 1 of 7    //
  //<<<<<<<<<<<<<<<<<<<<<<<<<<<<<<<<<<<//

*** tstart() called on bp1-compute00113.data.bp.acrc.priv
*** at Tue Apr 27 17:46:20 2021

   => Loading Basis Set <=

    Name: CC-PV(T+D)Z
    Role: ORBITAL
    Keyword: BASIS
    atoms 1 entry O          line   271 file /work/zw18965/.conda/envs/p4env/share/psi4/basis/cc-pv_tpd_z.gbs 
    atoms 2 entry H          line    32 file /work/zw18965/.conda/envs/p4env/share/psi4/basis/cc-pv_tpd_z.gbs 
    atoms 3 entry CL         line   864 file /work/zw18965/.conda/envs/p4env/share/psi4/basis/cc-pv_tpd_z.gbs 


         ---------------------------------------------------------
                                   SCF
               by Justin Turney, Rob Parrish, Andy Simmonett
                          and Daniel G. A. Smith
                              RKS Reference
                       24 Threads, 137329 MiB Core
         ---------------------------------------------------------

  ==> Geometry <==

    Molecular point group: cs
    Full point group: Cs

    Geometry (in Angstrom), charge = 0, multiplicity = 1:

       Center              X                  Y                   Z               Mass       
    ------------   -----------------  -----------------  -----------------  -----------------
         O            1.112243756888     0.231009382225     0.000000000000    15.994914619570
         H            1.112243756888     1.194909132225     0.000000000000     1.007825032230
         CL          -0.540801015112    -0.140102814475     0.000000000000    34.968852682000

  Running in cs symmetry.

  Rotational constants: A =     20.45666  B =      0.50448  C =      0.49234 [cm^-1]
  Rotational constants: A = 613275.14863  B =  15123.89441  C =  14759.90248 [MHz]
  Nuclear repulsion =   51.105111811406950

  Charge       = 0
  Multiplicity = 1
  Electrons    = 26
  Nalpha       = 13
  Nbeta        = 13

  ==> Algorithm <==

  SCF Algorithm Type is DF.
  DIIS enabled.
  MOM disabled.
  Fractional occupation disabled.
  Guess Type is SAD.
  Energy threshold   = 1.00e-08
  Density threshold  = 1.00e-08
  Integral threshold = 0.00e+00

  ==> Primary Basis <==

  Basis Set: CC-PV(T+D)Z
    Blend: CC-PV(T+D)Z
    Number of shells: 29
    Number of basis function: 83
    Number of Cartesian functions: 95
    Spherical Harmonics?: true
    Max angular momentum: 3

  ==> DFT Potential <==

   => Composite Functional: WB97M-V <= 

    wB97M-V Hyb-GGA Exchange-Correlation Functional

    N. Mardirossian and M. Head-Gordon, J. Chem. Phys. 144, 214110 (2016)

    Deriv               =              1
    GGA                 =           TRUE
    Meta                =           TRUE

    Exchange Hybrid     =           TRUE
    MP2 Hybrid          =          FALSE

   => Exchange-Correlation Functionals <=

    1.0000   wB97M-V exchange-correlation functional

   => Exact (HF) Exchange <=

    0.8500            HF,LR [omega = 0.3000]
    0.1500               HF 

   => VV10 Non-Local Parameters <=

    VV10 B              =     6.0000E+00
    VV10 C              =     1.0000E-02

   => Molecular Quadrature <=

    Radial Scheme          =       TREUTLER
    Pruning Scheme         =           FLAT
    Nuclear Scheme         =       TREUTLER

    BS radius alpha        =              1
    Pruning alpha          =              1
    Radial Points          =             75
    Spherical Points       =            302
    Total Points           =          65752
    Total Blocks           =            556
    Max Points             =            254
    Max Functions          =             83

   => Loading Basis Set <=

    Name: (CC-PV(T+D)Z AUX)
    Role: JKFIT
    Keyword: DF_BASIS_SCF
    atoms 1 entry O          line   229 file /work/zw18965/.conda/envs/p4env/share/psi4/basis/cc-pvtz-jkfit.gbs 
    atoms 2 entry H          line    51 file /work/zw18965/.conda/envs/p4env/share/psi4/basis/cc-pvtz-jkfit.gbs 
    atoms 3 entry CL         line   689 file /work/zw18965/.conda/envs/p4env/share/psi4/basis/cc-pvtz-jkfit.gbs 

  ==> Pre-Iterations <==

   -------------------------------------------------------
    Irrep   Nso     Nmo     Nalpha   Nbeta   Ndocc  Nsocc
   -------------------------------------------------------
     A'        56      56       0       0       0       0
     A"        27      27       0       0       0       0
   -------------------------------------------------------
    Total      83      83      13      13      13       0
   -------------------------------------------------------

  ==> Integral Setup <==

  ==> DiskDFJK: Density-Fitted J/K Matrices <==

    J tasked:                  Yes
    K tasked:                  Yes
    wK tasked:                 Yes
    Omega:               3.000E-01
    OpenMP threads:             24
    Integrals threads:          24
    Memory [MiB]:           102637
    Algorithm:                Core
    Integral Cache:           NONE
    Schwarz Cutoff:          1E-12
    Fitting Condition:       1E-10

   => Auxiliary Basis Set <=

  Basis Set: (CC-PV(T+D)Z AUX)
    Blend: CC-PVTZ-JKFIT
    Number of shells: 72
    Number of basis function: 230
    Number of Cartesian functions: 276
    Spherical Harmonics?: true
    Max angular momentum: 4

  Cached 100.0% of DFT collocation blocks in 0.351 [GiB].

  Minimum eigenvalue in the overlap matrix is 3.1375088145E-03.
  Using Symmetric Orthogonalization.

  SCF Guess: Superposition of Atomic Densities via on-the-fly atomic UHF.

  ==> Iterations <==

                           Total Energy        Delta E     RMS |[F,P]|

   @DF-RKS iter SAD:  -535.60066739501531   -5.35601e+02   0.00000e+00 
   @DF-RKS iter   1:  -535.90167952277091   -3.01012e-01   6.73806e-03 DIIS
   @DF-RKS iter   2:  -535.90553831196087   -3.85879e-03   6.86568e-03 DIIS
   @DF-RKS iter   3:  -535.96335494794403   -5.78166e-02   9.89709e-04 DIIS
   @DF-RKS iter   4:  -535.96465823712992   -1.30329e-03   1.55475e-04 DIIS
   @DF-RKS iter   5:  -535.96471586744849   -5.76303e-05   3.46750e-05 DIIS
   @DF-RKS iter   6:  -535.96471960979056   -3.74234e-06   8.90431e-06 DIIS
   @DF-RKS iter   7:  -535.96472020537124   -5.95581e-07   3.63073e-06 DIIS
   @DF-RKS iter   8:  -535.96472033397663   -1.28605e-07   1.47477e-06 DIIS
   @DF-RKS iter   9:  -535.96472035602380   -2.20472e-08   4.12407e-07 DIIS
   @DF-RKS iter  10:  -535.96472035722570   -1.20190e-09   9.68850e-08 DIIS
   @DF-RKS iter  11:  -535.96472035726583   -4.01315e-11   2.88495e-08 DIIS
   @DF-RKS iter  12:  -535.96472035727061   -4.77485e-12   4.89104e-09 DIIS
  Energy and wave function converged.


  ==> Post-Iterations <==

    Orbital Energies [Eh]
    ---------------------

    Doubly Occupied:                                                      

       1Ap  -101.933705     2Ap   -19.401956     3Ap    -9.687185  
       4Ap    -7.395757     5Ap    -7.382360     1App   -7.382042  
       6Ap    -1.198282     7Ap    -0.920079     8Ap    -0.638318  
       9Ap    -0.547343     2App   -0.521072    10Ap    -0.418409  
       3App   -0.385306  

    Virtual:                                                              

      11Ap     0.020101    12Ap     0.112734    13Ap     0.392260  
      14Ap     0.413730     4App    0.422223    15Ap     0.453343  
      16Ap     0.478905    17Ap     0.499117     5App    0.500962  
       6App    0.521496    18Ap     0.522509    19Ap     0.642838  
       7App    0.715139    20Ap     0.748923     8App    0.819176  
      21Ap     0.833364    22Ap     0.966107    23Ap     1.181921  
      24Ap     1.376551     9App    1.578353    25Ap     1.724004  
      10App    1.780975    26Ap     1.800882    11App    1.831999  
      12App    1.849953    27Ap     1.862608    28Ap     1.889943  
      29Ap     1.974702    30Ap     2.036440    13App    2.163758  
      31Ap     2.166627    14App    2.191504    32Ap     2.193262  
      15App    2.290610    33Ap     2.292946    34Ap     2.305162  
      16App    2.527892    35Ap     2.552306    36Ap     2.646832  
      37Ap     2.884488    17App    3.306498    38Ap     3.340575  
      18App    3.490118    39Ap     3.749529    19App    3.761901  
      40Ap     3.809686    41Ap     4.076194    20App    4.178598  
      42Ap     4.265205    43Ap     4.507399    44Ap     4.681612  
      45Ap     4.988939    21App    5.328594    46Ap     5.447066  
      22App    5.496357    47Ap     5.642859    23App    6.454815  
      48Ap     6.531356    24App    6.544685    49Ap     6.580353  
      25App    6.705795    50Ap     6.734761    51Ap     6.947879  
      52Ap     7.251009    26App    8.137284    53Ap     8.146532  
      27App    8.165341    54Ap     8.212833    55Ap     8.449777  
      56Ap    10.842850  

    Final Occupation by Irrep:
             Ap   App 
    DOCC [    10,    3 ]

  @DF-RKS Final Energy:  -535.96472035727061

   => Energetics <=

    Nuclear Repulsion Energy =             51.1051118114069496
    One-Electron Energy =                -840.8382556135748018
    Two-Electron Energy =                 281.9338083538669935
    DFT Exchange-Correlation Energy =     -28.2741086838785378
    Empirical Dispersion Energy =           0.0000000000000000
    VV10 Nonlocal Energy =                  0.1087237749088365
    Total Energy =                       -535.9647203572706076

Computation Completed


Properties will be evaluated at   0.000000,   0.000000,   0.000000 [a0]

Properties computed using the SCF density matrix

  Nuclear Dipole Moment: [e a0]
     X:     1.5431      Y:     1.2496      Z:     0.0000

  Electronic Dipole Moment: [e a0]
     X:    -1.5721      Y:    -0.6309      Z:     0.0000

  Dipole Moment: [e a0]
     X:    -0.0290      Y:     0.6186      Z:     0.0000     Total:     0.6193

  Dipole Moment: [D]
     X:    -0.0738      Y:     1.5724      Z:     0.0000     Total:     1.5741


*** tstop() called on bp1-compute00113.data.bp.acrc.priv at Tue Apr 27 17:46:23 2021
Module time:
	user time   =      78.63 seconds =       1.31 minutes
	system time =       3.78 seconds =       0.06 minutes
	total time  =          3 seconds =       0.05 minutes
Total time:
	user time   =      78.63 seconds =       1.31 minutes
	system time =       3.78 seconds =       0.06 minutes
	total time  =          3 seconds =       0.05 minutes

  //>>>>>>>>>>>>>>>>>>>>>>>>>>>>>>>>>>>//
  //    Loading displacement 2 of 7    //
  //<<<<<<<<<<<<<<<<<<<<<<<<<<<<<<<<<<<//

*** tstart() called on bp1-compute00113.data.bp.acrc.priv
*** at Tue Apr 27 17:46:23 2021

   => Loading Basis Set <=

    Name: CC-PV(T+D)Z
    Role: ORBITAL
    Keyword: BASIS
    atoms 1 entry O          line   271 file /work/zw18965/.conda/envs/p4env/share/psi4/basis/cc-pv_tpd_z.gbs 
    atoms 2 entry H          line    32 file /work/zw18965/.conda/envs/p4env/share/psi4/basis/cc-pv_tpd_z.gbs 
    atoms 3 entry CL         line   864 file /work/zw18965/.conda/envs/p4env/share/psi4/basis/cc-pv_tpd_z.gbs 


         ---------------------------------------------------------
                                   SCF
               by Justin Turney, Rob Parrish, Andy Simmonett
                          and Daniel G. A. Smith
                              RKS Reference
                       24 Threads, 137329 MiB Core
         ---------------------------------------------------------

  ==> Geometry <==

    Molecular point group: cs
    Full point group: Cs

    Geometry (in Angstrom), charge = 0, multiplicity = 1:

       Center              X                  Y                   Z               Mass       
    ------------   -----------------  -----------------  -----------------  -----------------
         O            1.111703321963     0.230912175849     0.000000000000    15.994914619570
         H            1.112597436607     1.194811925849     0.000000000000     1.007825032230
         CL          -0.540564010961    -0.140055550279     0.000000000000    34.968852682000

  Running in cs symmetry.

  Rotational constants: A =     20.46704  B =      0.50491  C =      0.49275 [cm^-1]
  Rotational constants: A = 613586.42524  B =  15136.75480  C =  14772.33155 [MHz]
  Nuclear repulsion =   51.124932358011193

  Charge       = 0
  Multiplicity = 1
  Electrons    = 26
  Nalpha       = 13
  Nbeta        = 13

  ==> Algorithm <==

  SCF Algorithm Type is DF.
  DIIS enabled.
  MOM disabled.
  Fractional occupation disabled.
  Guess Type is SAD.
  Energy threshold   = 1.00e-08
  Density threshold  = 1.00e-08
  Integral threshold = 0.00e+00

  ==> Primary Basis <==

  Basis Set: CC-PV(T+D)Z
    Blend: CC-PV(T+D)Z
    Number of shells: 29
    Number of basis function: 83
    Number of Cartesian functions: 95
    Spherical Harmonics?: true
    Max angular momentum: 3

  ==> DFT Potential <==

   => Composite Functional: WB97M-V <= 

    wB97M-V Hyb-GGA Exchange-Correlation Functional

    N. Mardirossian and M. Head-Gordon, J. Chem. Phys. 144, 214110 (2016)

    Deriv               =              1
    GGA                 =           TRUE
    Meta                =           TRUE

    Exchange Hybrid     =           TRUE
    MP2 Hybrid          =          FALSE

   => Exchange-Correlation Functionals <=

    1.0000   wB97M-V exchange-correlation functional

   => Exact (HF) Exchange <=

    0.8500            HF,LR [omega = 0.3000]
    0.1500               HF 

   => VV10 Non-Local Parameters <=

    VV10 B              =     6.0000E+00
    VV10 C              =     1.0000E-02

   => Molecular Quadrature <=

    Radial Scheme          =       TREUTLER
    Pruning Scheme         =           FLAT
    Nuclear Scheme         =       TREUTLER

    BS radius alpha        =              1
    Pruning alpha          =              1
    Radial Points          =             75
    Spherical Points       =            302
    Total Points           =          65752
    Total Blocks           =            555
    Max Points             =            254
    Max Functions          =             83

   => Loading Basis Set <=

    Name: (CC-PV(T+D)Z AUX)
    Role: JKFIT
    Keyword: DF_BASIS_SCF
    atoms 1 entry O          line   229 file /work/zw18965/.conda/envs/p4env/share/psi4/basis/cc-pvtz-jkfit.gbs 
    atoms 2 entry H          line    51 file /work/zw18965/.conda/envs/p4env/share/psi4/basis/cc-pvtz-jkfit.gbs 
    atoms 3 entry CL         line   689 file /work/zw18965/.conda/envs/p4env/share/psi4/basis/cc-pvtz-jkfit.gbs 

  ==> Pre-Iterations <==

   -------------------------------------------------------
    Irrep   Nso     Nmo     Nalpha   Nbeta   Ndocc  Nsocc
   -------------------------------------------------------
     A'        56      56       0       0       0       0
     A"        27      27       0       0       0       0
   -------------------------------------------------------
    Total      83      83      13      13      13       0
   -------------------------------------------------------

  ==> Integral Setup <==

  ==> DiskDFJK: Density-Fitted J/K Matrices <==

    J tasked:                  Yes
    K tasked:                  Yes
    wK tasked:                 Yes
    Omega:               3.000E-01
    OpenMP threads:             24
    Integrals threads:          24
    Memory [MiB]:           102637
    Algorithm:                Core
    Integral Cache:           NONE
    Schwarz Cutoff:          1E-12
    Fitting Condition:       1E-10

   => Auxiliary Basis Set <=

  Basis Set: (CC-PV(T+D)Z AUX)
    Blend: CC-PVTZ-JKFIT
    Number of shells: 72
    Number of basis function: 230
    Number of Cartesian functions: 276
    Spherical Harmonics?: true
    Max angular momentum: 4

  Cached 100.0% of DFT collocation blocks in 0.351 [GiB].

  Minimum eigenvalue in the overlap matrix is 3.1360118833E-03.
  Using Symmetric Orthogonalization.

  SCF Guess: Superposition of Atomic Densities via on-the-fly atomic UHF.

  ==> Iterations <==

                           Total Energy        Delta E     RMS |[F,P]|

   @DF-RKS iter SAD:  -535.60171396765577   -5.35602e+02   0.00000e+00 
   @DF-RKS iter   1:  -535.90168612589309   -2.99972e-01   6.73857e-03 DIIS
   @DF-RKS iter   2:  -535.90563691938371   -3.95079e-03   6.86159e-03 DIIS
   @DF-RKS iter   3:  -535.96336349133765   -5.77266e-02   9.89640e-04 DIIS
   @DF-RKS iter   4:  -535.96466627096038   -1.30278e-03   1.55436e-04 DIIS
   @DF-RKS iter   5:  -535.96472393176089   -5.76608e-05   3.46742e-05 DIIS
   @DF-RKS iter   6:  -535.96472767880118   -3.74704e-06   8.90966e-06 DIIS
   @DF-RKS iter   7:  -535.96472827509388   -5.96293e-07   3.63008e-06 DIIS
   @DF-RKS iter   8:  -535.96472840364504   -1.28551e-07   1.47382e-06 DIIS
   @DF-RKS iter   9:  -535.96472842562571   -2.19807e-08   4.12196e-07 DIIS
   @DF-RKS iter  10:  -535.96472842682419   -1.19849e-09   9.68366e-08 DIIS
   @DF-RKS iter  11:  -535.96472842686421   -4.00178e-11   2.88054e-08 DIIS
   @DF-RKS iter  12:  -535.96472842686876   -4.54747e-12   4.88032e-09 DIIS
  Energy and wave function converged.


  ==> Post-Iterations <==

    Orbital Energies [Eh]
    ---------------------

    Doubly Occupied:                                                      

       1Ap  -101.933668     2Ap   -19.401895     3Ap    -9.687156  
       4Ap    -7.395728     5Ap    -7.382329     1App   -7.382011  
       6Ap    -1.198462     7Ap    -0.920036     8Ap    -0.638448  
       9Ap    -0.547396     2App   -0.521185    10Ap    -0.418323  
       3App   -0.385204  

    Virtual:                                                              

      11Ap     0.020343    12Ap     0.112782    13Ap     0.392329  
      14Ap     0.413678     4App    0.422205    15Ap     0.453344  
      16Ap     0.478839    17Ap     0.499225     5App    0.500970  
       6App    0.521633    18Ap     0.522578    19Ap     0.642981  
       7App    0.715069    20Ap     0.748890     8App    0.819280  
      21Ap     0.833646    22Ap     0.966143    23Ap     1.181911  
      24Ap     1.376561     9App    1.578714    25Ap     1.724019  
      10App    1.780845    26Ap     1.800905    11App    1.831889  
      12App    1.849929    27Ap     1.862622    28Ap     1.890012  
      29Ap     1.974754    30Ap     2.036910    13App    2.163787  
      31Ap     2.166688    14App    2.191736    32Ap     2.193472  
      15App    2.290623    33Ap     2.292994    34Ap     2.305380  
      16App    2.528476    35Ap     2.552968    36Ap     2.647169  
      37Ap     2.884399    17App    3.306615    38Ap     3.340549  
      18App    3.490280    39Ap     3.749930    19App    3.761990  
      40Ap     3.809586    41Ap     4.076294    20App    4.178664  
      42Ap     4.265055    43Ap     4.507546    44Ap     4.682173  
      45Ap     4.989679    21App    5.328746    46Ap     5.447174  
      22App    5.496667    47Ap     5.643683    23App    6.454864  
      48Ap     6.531689    24App    6.545099    49Ap     6.580638  
      25App    6.705828    50Ap     6.734669    51Ap     6.948220  
      52Ap     7.250788    26App    8.137310    53Ap     8.146578  
      27App    8.165398    54Ap     8.212935    55Ap     8.451048  
      56Ap    10.842909  

    Final Occupation by Irrep:
             Ap   App 
    DOCC [    10,    3 ]

  @DF-RKS Final Energy:  -535.96472842686876

   => Energetics <=

    Nuclear Repulsion Energy =             51.1249323580111934
    One-Electron Energy =                -840.8777125398447652
    Two-Electron Energy =                 281.9537030329731806
    DFT Exchange-Correlation Energy =     -28.2743739192519747
    Empirical Dispersion Energy =           0.0000000000000000
    VV10 Nonlocal Energy =                  0.1087226412435223
    Total Energy =                       -535.9647284268688736

Computation Completed


Properties will be evaluated at   0.000000,   0.000000,   0.000000 [a0]

Properties computed using the SCF density matrix

  Nuclear Dipole Moment: [e a0]
     X:     1.5432      Y:     1.2494      Z:     0.0000

  Electronic Dipole Moment: [e a0]
     X:    -1.5716      Y:    -0.6307      Z:     0.0000

  Dipole Moment: [e a0]
     X:    -0.0284      Y:     0.6188      Z:     0.0000     Total:     0.6194

  Dipole Moment: [D]
     X:    -0.0723      Y:     1.5728      Z:     0.0000     Total:     1.5744


*** tstop() called on bp1-compute00113.data.bp.acrc.priv at Tue Apr 27 17:46:27 2021
Module time:
	user time   =      81.84 seconds =       1.36 minutes
	system time =       3.31 seconds =       0.06 minutes
	total time  =          4 seconds =       0.07 minutes
Total time:
	user time   =     160.64 seconds =       2.68 minutes
	system time =       7.10 seconds =       0.12 minutes
	total time  =          7 seconds =       0.12 minutes

  //>>>>>>>>>>>>>>>>>>>>>>>>>>>>>>>>>>>//
  //    Loading displacement 3 of 7    //
  //<<<<<<<<<<<<<<<<<<<<<<<<<<<<<<<<<<<//

*** tstart() called on bp1-compute00113.data.bp.acrc.priv
*** at Tue Apr 27 17:46:27 2021

   => Loading Basis Set <=

    Name: CC-PV(T+D)Z
    Role: ORBITAL
    Keyword: BASIS
    atoms 1 entry O          line   271 file /work/zw18965/.conda/envs/p4env/share/psi4/basis/cc-pv_tpd_z.gbs 
    atoms 2 entry H          line    32 file /work/zw18965/.conda/envs/p4env/share/psi4/basis/cc-pv_tpd_z.gbs 
    atoms 3 entry CL         line   864 file /work/zw18965/.conda/envs/p4env/share/psi4/basis/cc-pv_tpd_z.gbs 


         ---------------------------------------------------------
                                   SCF
               by Justin Turney, Rob Parrish, Andy Simmonett
                          and Daniel G. A. Smith
                              RKS Reference
                       24 Threads, 137329 MiB Core
         ---------------------------------------------------------

  ==> Geometry <==

    Molecular point group: cs
    Full point group: Cs

    Geometry (in Angstrom), charge = 0, multiplicity = 1:

       Center              X                  Y                   Z               Mass       
    ------------   -----------------  -----------------  -----------------  -----------------
         O            1.112784191814     0.231106588601     0.000000000000    15.994914619570
         H            1.111890077169     1.195006338601     0.000000000000     1.007825032230
         CL          -0.541038019262    -0.140150078671     0.000000000000    34.968852682000

  Running in cs symmetry.

  Rotational constants: A =     20.44629  B =      0.50405  C =      0.49192 [cm^-1]
  Rotational constants: A = 612964.21034  B =  15111.04952  C =  14747.48828 [MHz]
  Nuclear repulsion =   51.085305923245024

  Charge       = 0
  Multiplicity = 1
  Electrons    = 26
  Nalpha       = 13
  Nbeta        = 13

  ==> Algorithm <==

  SCF Algorithm Type is DF.
  DIIS enabled.
  MOM disabled.
  Fractional occupation disabled.
  Guess Type is SAD.
  Energy threshold   = 1.00e-08
  Density threshold  = 1.00e-08
  Integral threshold = 0.00e+00

  ==> Primary Basis <==

  Basis Set: CC-PV(T+D)Z
    Blend: CC-PV(T+D)Z
    Number of shells: 29
    Number of basis function: 83
    Number of Cartesian functions: 95
    Spherical Harmonics?: true
    Max angular momentum: 3

  ==> DFT Potential <==

   => Composite Functional: WB97M-V <= 

    wB97M-V Hyb-GGA Exchange-Correlation Functional

    N. Mardirossian and M. Head-Gordon, J. Chem. Phys. 144, 214110 (2016)

    Deriv               =              1
    GGA                 =           TRUE
    Meta                =           TRUE

    Exchange Hybrid     =           TRUE
    MP2 Hybrid          =          FALSE

   => Exchange-Correlation Functionals <=

    1.0000   wB97M-V exchange-correlation functional

   => Exact (HF) Exchange <=

    0.8500            HF,LR [omega = 0.3000]
    0.1500               HF 

   => VV10 Non-Local Parameters <=

    VV10 B              =     6.0000E+00
    VV10 C              =     1.0000E-02

   => Molecular Quadrature <=

    Radial Scheme          =       TREUTLER
    Pruning Scheme         =           FLAT
    Nuclear Scheme         =       TREUTLER

    BS radius alpha        =              1
    Pruning alpha          =              1
    Radial Points          =             75
    Spherical Points       =            302
    Total Points           =          65750
    Total Blocks           =            556
    Max Points             =            255
    Max Functions          =             83

   => Loading Basis Set <=

    Name: (CC-PV(T+D)Z AUX)
    Role: JKFIT
    Keyword: DF_BASIS_SCF
    atoms 1 entry O          line   229 file /work/zw18965/.conda/envs/p4env/share/psi4/basis/cc-pvtz-jkfit.gbs 
    atoms 2 entry H          line    51 file /work/zw18965/.conda/envs/p4env/share/psi4/basis/cc-pvtz-jkfit.gbs 
    atoms 3 entry CL         line   689 file /work/zw18965/.conda/envs/p4env/share/psi4/basis/cc-pvtz-jkfit.gbs 

  ==> Pre-Iterations <==

   -------------------------------------------------------
    Irrep   Nso     Nmo     Nalpha   Nbeta   Ndocc  Nsocc
   -------------------------------------------------------
     A'        56      56       0       0       0       0
     A"        27      27       0       0       0       0
   -------------------------------------------------------
    Total      83      83      13      13      13       0
   -------------------------------------------------------

  ==> Integral Setup <==

  ==> DiskDFJK: Density-Fitted J/K Matrices <==

    J tasked:                  Yes
    K tasked:                  Yes
    wK tasked:                 Yes
    Omega:               3.000E-01
    OpenMP threads:             24
    Integrals threads:          24
    Memory [MiB]:           102637
    Algorithm:                Core
    Integral Cache:           NONE
    Schwarz Cutoff:          1E-12
    Fitting Condition:       1E-10

   => Auxiliary Basis Set <=

  Basis Set: (CC-PV(T+D)Z AUX)
    Blend: CC-PVTZ-JKFIT
    Number of shells: 72
    Number of basis function: 230
    Number of Cartesian functions: 276
    Spherical Harmonics?: true
    Max angular momentum: 4

  Cached 100.0% of DFT collocation blocks in 0.351 [GiB].

  Minimum eigenvalue in the overlap matrix is 3.1390099105E-03.
  Using Symmetric Orthogonalization.

  SCF Guess: Superposition of Atomic Densities via on-the-fly atomic UHF.

  ==> Iterations <==

                           Total Energy        Delta E     RMS |[F,P]|

   @DF-RKS iter SAD:  -535.59961943972178   -5.35600e+02   0.00000e+00 
   @DF-RKS iter   1:  -535.90167238465585   -3.02053e-01   6.73756e-03 DIIS
   @DF-RKS iter   2:  -535.90543880230643   -3.76642e-03   6.86978e-03 DIIS
   @DF-RKS iter   3:  -535.96334581108852   -5.79070e-02   9.89776e-04 DIIS
   @DF-RKS iter   4:  -535.96464960593664   -1.30379e-03   1.55515e-04 DIIS
   @DF-RKS iter   5:  -535.96470720658692   -5.76007e-05   3.46761e-05 DIIS
   @DF-RKS iter   6:  -535.96471094457149   -3.73798e-06   8.89960e-06 DIIS
   @DF-RKS iter   7:  -535.96471153955883   -5.94987e-07   3.63168e-06 DIIS
   @DF-RKS iter   8:  -535.96471166824665   -1.28688e-07   1.47582e-06 DIIS
   @DF-RKS iter   9:  -535.96471169036306   -2.21164e-08   4.12618e-07 DIIS
   @DF-RKS iter  10:  -535.96471169156894   -1.20588e-09   9.69338e-08 DIIS
   @DF-RKS iter  11:  -535.96471169160964   -4.06999e-11   2.88929e-08 DIIS
   @DF-RKS iter  12:  -535.96471169161407   -4.43379e-12   4.90178e-09 DIIS
  Energy and wave function converged.


  ==> Post-Iterations <==

    Orbital Energies [Eh]
    ---------------------

    Doubly Occupied:                                                      

       1Ap  -101.933742     2Ap   -19.402018     3Ap    -9.687215  
       4Ap    -7.395787     5Ap    -7.382390     1App   -7.382073  
       6Ap    -1.198102     7Ap    -0.920122     8Ap    -0.638189  
       9Ap    -0.547290     2App   -0.520961    10Ap    -0.418494  
       3App   -0.385409  

    Virtual:                                                              

      11Ap     0.019858    12Ap     0.112687    13Ap     0.392190  
      14Ap     0.413782     4App    0.422241    15Ap     0.453342  
      16Ap     0.478970    17Ap     0.499008     5App    0.500954  
       6App    0.521360    18Ap     0.522440    19Ap     0.642695  
       7App    0.715209    20Ap     0.748957     8App    0.819072  
      21Ap     0.833083    22Ap     0.966072    23Ap     1.181930  
      24Ap     1.376540     9App    1.577993    25Ap     1.723989  
      10App    1.781104    26Ap     1.800859    11App    1.832108  
      12App    1.849976    27Ap     1.862594    28Ap     1.889874  
      29Ap     1.974651    30Ap     2.035969    13App    2.163730  
      31Ap     2.166566    14App    2.191272    32Ap     2.193055  
      15App    2.290596    33Ap     2.292898    34Ap     2.304947  
      16App    2.527309    35Ap     2.551636    36Ap     2.646502  
      37Ap     2.884577    17App    3.306380    38Ap     3.340601  
      18App    3.489958    39Ap     3.749127    19App    3.761812  
      40Ap     3.809783    41Ap     4.076095    20App    4.178532  
      42Ap     4.265356    43Ap     4.507250    44Ap     4.681050  
      45Ap     4.988201    21App    5.328440    46Ap     5.446957  
      22App    5.496047    47Ap     5.642034    23App    6.454764  
      48Ap     6.531022    24App    6.544270    49Ap     6.580066  
      25App    6.705760    50Ap     6.734852    51Ap     6.947536  
      52Ap     7.251231    26App    8.137258    53Ap     8.146486  
      27App    8.165285    54Ap     8.212732    55Ap     8.448512  
      56Ap    10.842786  

    Final Occupation by Irrep:
             Ap   App 
    DOCC [    10,    3 ]

  @DF-RKS Final Energy:  -535.96471169161407

   => Energetics <=

    Nuclear Repulsion Energy =             51.0853059232450235
    One-Electron Energy =                -840.7988268394082070
    Two-Electron Energy =                 281.9139279003072716
    DFT Exchange-Correlation Energy =     -28.2738435836819271
    Empirical Dispersion Energy =           0.0000000000000000
    VV10 Nonlocal Energy =                  0.1087249079237710
    Total Energy =                       -535.9647116916140703

Computation Completed


Properties will be evaluated at   0.000000,   0.000000,   0.000000 [a0]

Properties computed using the SCF density matrix

  Nuclear Dipole Moment: [e a0]
     X:     1.5430      Y:     1.2497      Z:     0.0000

  Electronic Dipole Moment: [e a0]
     X:    -1.5726      Y:    -0.6312      Z:     0.0000

  Dipole Moment: [e a0]
     X:    -0.0297      Y:     0.6185      Z:     0.0000     Total:     0.6192

  Dipole Moment: [D]
     X:    -0.0754      Y:     1.5720      Z:     0.0000     Total:     1.5738


*** tstop() called on bp1-compute00113.data.bp.acrc.priv at Tue Apr 27 17:46:30 2021
Module time:
	user time   =      78.64 seconds =       1.31 minutes
	system time =       2.40 seconds =       0.04 minutes
	total time  =          3 seconds =       0.05 minutes
Total time:
	user time   =     239.45 seconds =       3.99 minutes
	system time =       9.51 seconds =       0.16 minutes
	total time  =         10 seconds =       0.17 minutes

  //>>>>>>>>>>>>>>>>>>>>>>>>>>>>>>>>>>>//
  //    Loading displacement 4 of 7    //
  //<<<<<<<<<<<<<<<<<<<<<<<<<<<<<<<<<<<//

*** tstart() called on bp1-compute00113.data.bp.acrc.priv
*** at Tue Apr 27 17:46:30 2021

   => Loading Basis Set <=

    Name: CC-PV(T+D)Z
    Role: ORBITAL
    Keyword: BASIS
    atoms 1 entry O          line   271 file /work/zw18965/.conda/envs/p4env/share/psi4/basis/cc-pv_tpd_z.gbs 
    atoms 2 entry H          line    32 file /work/zw18965/.conda/envs/p4env/share/psi4/basis/cc-pv_tpd_z.gbs 
    atoms 3 entry CL         line   864 file /work/zw18965/.conda/envs/p4env/share/psi4/basis/cc-pv_tpd_z.gbs 


         ---------------------------------------------------------
                                   SCF
               by Justin Turney, Rob Parrish, Andy Simmonett
                          and Daniel G. A. Smith
                              RKS Reference
                       24 Threads, 137329 MiB Core
         ---------------------------------------------------------

  ==> Geometry <==

    Molecular point group: cs
    Full point group: Cs

    Geometry (in Angstrom), charge = 0, multiplicity = 1:

       Center              X                  Y                   Z               Mass       
    ------------   -----------------  -----------------  -----------------  -----------------
         O            1.112243756888     0.230807894878     0.000000000000    15.994914619570
         H            1.110724487436     1.196879908696     0.000000000000     1.007825032230
         CL          -0.540757228780    -0.140067452289     0.000000000000    34.968852682000

  Running in cs symmetry.

  Rotational constants: A =     20.34748  B =      0.50458  C =      0.49237 [cm^-1]
  Rotational constants: A = 610002.12483  B =  15126.86654  C =  14760.82674 [MHz]
  Nuclear repulsion =   51.097599763107823

  Charge       = 0
  Multiplicity = 1
  Electrons    = 26
  Nalpha       = 13
  Nbeta        = 13

  ==> Algorithm <==

  SCF Algorithm Type is DF.
  DIIS enabled.
  MOM disabled.
  Fractional occupation disabled.
  Guess Type is SAD.
  Energy threshold   = 1.00e-08
  Density threshold  = 1.00e-08
  Integral threshold = 0.00e+00

  ==> Primary Basis <==

  Basis Set: CC-PV(T+D)Z
    Blend: CC-PV(T+D)Z
    Number of shells: 29
    Number of basis function: 83
    Number of Cartesian functions: 95
    Spherical Harmonics?: true
    Max angular momentum: 3

  ==> DFT Potential <==

   => Composite Functional: WB97M-V <= 

    wB97M-V Hyb-GGA Exchange-Correlation Functional

    N. Mardirossian and M. Head-Gordon, J. Chem. Phys. 144, 214110 (2016)

    Deriv               =              1
    GGA                 =           TRUE
    Meta                =           TRUE

    Exchange Hybrid     =           TRUE
    MP2 Hybrid          =          FALSE

   => Exchange-Correlation Functionals <=

    1.0000   wB97M-V exchange-correlation functional

   => Exact (HF) Exchange <=

    0.8500            HF,LR [omega = 0.3000]
    0.1500               HF 

   => VV10 Non-Local Parameters <=

    VV10 B              =     6.0000E+00
    VV10 C              =     1.0000E-02

   => Molecular Quadrature <=

    Radial Scheme          =       TREUTLER
    Pruning Scheme         =           FLAT
    Nuclear Scheme         =       TREUTLER

    BS radius alpha        =              1
    Pruning alpha          =              1
    Radial Points          =             75
    Spherical Points       =            302
    Total Points           =          65750
    Total Blocks           =            555
    Max Points             =            254
    Max Functions          =             83

   => Loading Basis Set <=

    Name: (CC-PV(T+D)Z AUX)
    Role: JKFIT
    Keyword: DF_BASIS_SCF
    atoms 1 entry O          line   229 file /work/zw18965/.conda/envs/p4env/share/psi4/basis/cc-pvtz-jkfit.gbs 
    atoms 2 entry H          line    51 file /work/zw18965/.conda/envs/p4env/share/psi4/basis/cc-pvtz-jkfit.gbs 
    atoms 3 entry CL         line   689 file /work/zw18965/.conda/envs/p4env/share/psi4/basis/cc-pvtz-jkfit.gbs 

  ==> Pre-Iterations <==

   -------------------------------------------------------
    Irrep   Nso     Nmo     Nalpha   Nbeta   Ndocc  Nsocc
   -------------------------------------------------------
     A'        56      56       0       0       0       0
     A"        27      27       0       0       0       0
   -------------------------------------------------------
    Total      83      83      13      13      13       0
   -------------------------------------------------------

  ==> Integral Setup <==

  ==> DiskDFJK: Density-Fitted J/K Matrices <==

    J tasked:                  Yes
    K tasked:                  Yes
    wK tasked:                 Yes
    Omega:               3.000E-01
    OpenMP threads:             24
    Integrals threads:          24
    Memory [MiB]:           102637
    Algorithm:                Core
    Integral Cache:           NONE
    Schwarz Cutoff:          1E-12
    Fitting Condition:       1E-10

   => Auxiliary Basis Set <=

  Basis Set: (CC-PV(T+D)Z AUX)
    Blend: CC-PVTZ-JKFIT
    Number of shells: 72
    Number of basis function: 230
    Number of Cartesian functions: 276
    Spherical Harmonics?: true
    Max angular momentum: 4

  Cached 100.0% of DFT collocation blocks in 0.351 [GiB].

  Minimum eigenvalue in the overlap matrix is 3.1623520701E-03.
  Using Symmetric Orthogonalization.

  SCF Guess: Superposition of Atomic Densities via on-the-fly atomic UHF.

  ==> Iterations <==

                           Total Energy        Delta E     RMS |[F,P]|

   @DF-RKS iter SAD:  -535.59996994260030   -5.35600e+02   0.00000e+00 
   @DF-RKS iter   1:  -535.90174437644851   -3.01774e-01   6.73063e-03 DIIS
   @DF-RKS iter   2:  -535.90560245504173   -3.85808e-03   6.86106e-03 DIIS
   @DF-RKS iter   3:  -535.96335110943005   -5.77487e-02   9.90767e-04 DIIS
   @DF-RKS iter   4:  -535.96465704319098   -1.30593e-03   1.55587e-04 DIIS
   @DF-RKS iter   5:  -535.96471477067905   -5.77275e-05   3.46867e-05 DIIS
   @DF-RKS iter   6:  -535.96471851160516   -3.74093e-06   8.87906e-06 DIIS
   @DF-RKS iter   7:  -535.96471910343666   -5.91832e-07   3.61211e-06 DIIS
   @DF-RKS iter   8:  -535.96471923086438   -1.27428e-07   1.47224e-06 DIIS
   @DF-RKS iter   9:  -535.96471925281674   -2.19524e-08   4.13089e-07 DIIS
   @DF-RKS iter  10:  -535.96471925402375   -1.20701e-09   9.70130e-08 DIIS
   @DF-RKS iter  11:  -535.96471925406490   -4.11546e-11   2.88794e-08 DIIS
   @DF-RKS iter  12:  -535.96471925406956   -4.66116e-12   4.89601e-09 DIIS
  Energy and wave function converged.


  ==> Post-Iterations <==

    Orbital Energies [Eh]
    ---------------------

    Doubly Occupied:                                                      

       1Ap  -101.933630     2Ap   -19.402161     3Ap    -9.687119  
       4Ap    -7.395687     5Ap    -7.382293     1App   -7.381976  
       6Ap    -1.197954     7Ap    -0.919811     8Ap    -0.637968  
       9Ap    -0.547373     2App   -0.521044    10Ap    -0.418341  
       3App   -0.385240  

    Virtual:                                                              

      11Ap     0.020141    12Ap     0.112420    13Ap     0.392017  
      14Ap     0.413737     4App    0.422233    15Ap     0.452951  
      16Ap     0.478862    17Ap     0.499018     5App    0.500937  
       6App    0.521562    18Ap     0.522128    19Ap     0.642621  
       7App    0.714891    20Ap     0.748887     8App    0.818896  
      21Ap     0.833453    22Ap     0.966141    23Ap     1.183031  
      24Ap     1.374086     9App    1.578480    25Ap     1.723698  
      10App    1.780726    26Ap     1.801008    11App    1.831771  
      12App    1.849674    27Ap     1.862610    28Ap     1.889982  
      29Ap     1.975503    30Ap     2.036356    13App    2.163780  
      31Ap     2.166683    14App    2.191372    32Ap     2.193393  
      15App    2.290653    33Ap     2.293009    34Ap     2.305180  
      16App    2.528215    35Ap     2.552415    36Ap     2.645126  
      37Ap     2.884233    17App    3.305268    38Ap     3.340139  
      18App    3.488781    39Ap     3.747871    19App    3.761622  
      40Ap     3.807321    41Ap     4.074428    20App    4.176445  
      42Ap     4.264651    43Ap     4.501555    44Ap     4.681218  
      45Ap     4.989218    21App    5.328701    46Ap     5.446446  
      22App    5.493890    47Ap     5.641267    23App    6.450624  
      48Ap     6.524331    24App    6.544527    49Ap     6.576817  
      25App    6.701899    50Ap     6.733781    51Ap     6.946042  
      52Ap     7.247962    26App    8.137354    53Ap     8.146609  
      27App    8.165394    54Ap     8.212982    55Ap     8.449978  
      56Ap    10.823770  

    Final Occupation by Irrep:
             Ap   App 
    DOCC [    10,    3 ]

  @DF-RKS Final Energy:  -535.96471925406956

   => Energetics <=

    Nuclear Repulsion Energy =             51.0975997631078229
    One-Electron Energy =                -840.8261097755105311
    Two-Electron Energy =                 281.9284271511988891
    DFT Exchange-Correlation Energy =     -28.2733579163326816
    Empirical Dispersion Energy =           0.0000000000000000
    VV10 Nonlocal Energy =                  0.1087215234668487
    Total Energy =                       -535.9647192540695642

Computation Completed


Properties will be evaluated at   0.000000,   0.000000,   0.000000 [a0]

Properties computed using the SCF density matrix

  Nuclear Dipole Moment: [e a0]
     X:     1.5416      Y:     1.2514      Z:     0.0000

  Electronic Dipole Moment: [e a0]
     X:    -1.5708      Y:    -0.6318      Z:     0.0000

  Dipole Moment: [e a0]
     X:    -0.0291      Y:     0.6196      Z:     0.0000     Total:     0.6202

  Dipole Moment: [D]
     X:    -0.0740      Y:     1.5748      Z:     0.0000     Total:     1.5765


*** tstop() called on bp1-compute00113.data.bp.acrc.priv at Tue Apr 27 17:46:34 2021
Module time:
	user time   =      76.89 seconds =       1.28 minutes
	system time =       2.45 seconds =       0.04 minutes
	total time  =          4 seconds =       0.07 minutes
Total time:
	user time   =     316.49 seconds =       5.27 minutes
	system time =      11.96 seconds =       0.20 minutes
	total time  =         14 seconds =       0.23 minutes

  //>>>>>>>>>>>>>>>>>>>>>>>>>>>>>>>>>>>//
  //    Loading displacement 5 of 7    //
  //<<<<<<<<<<<<<<<<<<<<<<<<<<<<<<<<<<<//

*** tstart() called on bp1-compute00113.data.bp.acrc.priv
*** at Tue Apr 27 17:46:34 2021

   => Loading Basis Set <=

    Name: CC-PV(T+D)Z
    Role: ORBITAL
    Keyword: BASIS
    atoms 1 entry O          line   271 file /work/zw18965/.conda/envs/p4env/share/psi4/basis/cc-pv_tpd_z.gbs 
    atoms 2 entry H          line    32 file /work/zw18965/.conda/envs/p4env/share/psi4/basis/cc-pv_tpd_z.gbs 
    atoms 3 entry CL         line   864 file /work/zw18965/.conda/envs/p4env/share/psi4/basis/cc-pv_tpd_z.gbs 


         ---------------------------------------------------------
                                   SCF
               by Justin Turney, Rob Parrish, Andy Simmonett
                          and Daniel G. A. Smith
                              RKS Reference
                       24 Threads, 137329 MiB Core
         ---------------------------------------------------------

  ==> Geometry <==

    Molecular point group: cs
    Full point group: Cs

    Geometry (in Angstrom), charge = 0, multiplicity = 1:

       Center              X                  Y                   Z               Mass       
    ------------   -----------------  -----------------  -----------------  -----------------
         O            1.112243756888     0.231210869573     0.000000000000    15.994914619570
         H            1.113763026341     1.192938355754     0.000000000000     1.007825032230
         CL          -0.540844801443    -0.140138176660     0.000000000000    34.968852682000

  Running in cs symmetry.

  Rotational constants: A =     20.56672  B =      0.50438  C =      0.49231 [cm^-1]
  Rotational constants: A = 616574.67125  B =  15120.92241  C =  14758.97230 [MHz]
  Nuclear repulsion =   51.112651295524337

  Charge       = 0
  Multiplicity = 1
  Electrons    = 26
  Nalpha       = 13
  Nbeta        = 13

  ==> Algorithm <==

  SCF Algorithm Type is DF.
  DIIS enabled.
  MOM disabled.
  Fractional occupation disabled.
  Guess Type is SAD.
  Energy threshold   = 1.00e-08
  Density threshold  = 1.00e-08
  Integral threshold = 0.00e+00

  ==> Primary Basis <==

  Basis Set: CC-PV(T+D)Z
    Blend: CC-PV(T+D)Z
    Number of shells: 29
    Number of basis function: 83
    Number of Cartesian functions: 95
    Spherical Harmonics?: true
    Max angular momentum: 3

  ==> DFT Potential <==

   => Composite Functional: WB97M-V <= 

    wB97M-V Hyb-GGA Exchange-Correlation Functional

    N. Mardirossian and M. Head-Gordon, J. Chem. Phys. 144, 214110 (2016)

    Deriv               =              1
    GGA                 =           TRUE
    Meta                =           TRUE

    Exchange Hybrid     =           TRUE
    MP2 Hybrid          =          FALSE

   => Exchange-Correlation Functionals <=

    1.0000   wB97M-V exchange-correlation functional

   => Exact (HF) Exchange <=

    0.8500            HF,LR [omega = 0.3000]
    0.1500               HF 

   => VV10 Non-Local Parameters <=

    VV10 B              =     6.0000E+00
    VV10 C              =     1.0000E-02

   => Molecular Quadrature <=

    Radial Scheme          =       TREUTLER
    Pruning Scheme         =           FLAT
    Nuclear Scheme         =       TREUTLER

    BS radius alpha        =              1
    Pruning alpha          =              1
    Radial Points          =             75
    Spherical Points       =            302
    Total Points           =          65752
    Total Blocks           =            556
    Max Points             =            254
    Max Functions          =             83

   => Loading Basis Set <=

    Name: (CC-PV(T+D)Z AUX)
    Role: JKFIT
    Keyword: DF_BASIS_SCF
    atoms 1 entry O          line   229 file /work/zw18965/.conda/envs/p4env/share/psi4/basis/cc-pvtz-jkfit.gbs 
    atoms 2 entry H          line    51 file /work/zw18965/.conda/envs/p4env/share/psi4/basis/cc-pvtz-jkfit.gbs 
    atoms 3 entry CL         line   689 file /work/zw18965/.conda/envs/p4env/share/psi4/basis/cc-pvtz-jkfit.gbs 

  ==> Pre-Iterations <==

   -------------------------------------------------------
    Irrep   Nso     Nmo     Nalpha   Nbeta   Ndocc  Nsocc
   -------------------------------------------------------
     A'        56      56       0       0       0       0
     A"        27      27       0       0       0       0
   -------------------------------------------------------
    Total      83      83      13      13      13       0
   -------------------------------------------------------

  ==> Integral Setup <==

  ==> DiskDFJK: Density-Fitted J/K Matrices <==

    J tasked:                  Yes
    K tasked:                  Yes
    wK tasked:                 Yes
    Omega:               3.000E-01
    OpenMP threads:             24
    Integrals threads:          24
    Memory [MiB]:           102637
    Algorithm:                Core
    Integral Cache:           NONE
    Schwarz Cutoff:          1E-12
    Fitting Condition:       1E-10

   => Auxiliary Basis Set <=

  Basis Set: (CC-PV(T+D)Z AUX)
    Blend: CC-PVTZ-JKFIT
    Number of shells: 72
    Number of basis function: 230
    Number of Cartesian functions: 276
    Spherical Harmonics?: true
    Max angular momentum: 4

  Cached 100.0% of DFT collocation blocks in 0.351 [GiB].

  Minimum eigenvalue in the overlap matrix is 3.1129124810E-03.
  Using Symmetric Orthogonalization.

  SCF Guess: Superposition of Atomic Densities via on-the-fly atomic UHF.

  ==> Iterations <==

                           Total Energy        Delta E     RMS |[F,P]|

   @DF-RKS iter SAD:  -535.60135368042734   -5.35601e+02   0.00000e+00 
   @DF-RKS iter   1:  -535.90160275521123   -3.00249e-01   6.74563e-03 DIIS
   @DF-RKS iter   2:  -535.90546100361348   -3.85825e-03   6.87050e-03 DIIS
   @DF-RKS iter   3:  -535.96334935292248   -5.78883e-02   9.88658e-04 DIIS
   @DF-RKS iter   4:  -535.96465002716923   -1.30067e-03   1.55369e-04 DIIS
   @DF-RKS iter   5:  -535.96470756747726   -5.75403e-05   3.46660e-05 DIIS
   @DF-RKS iter   6:  -535.96471131271153   -3.74523e-06   8.93170e-06 DIIS
   @DF-RKS iter   7:  -535.96471191242927   -5.99718e-07   3.65014e-06 DIIS
   @DF-RKS iter   8:  -535.96471204228874   -1.29859e-07   1.47746e-06 DIIS
   @DF-RKS iter   9:  -535.96471206443300   -2.21443e-08   4.11746e-07 DIIS
   @DF-RKS iter  10:  -535.96471206562967   -1.19667e-09   9.67755e-08 DIIS
   @DF-RKS iter  11:  -535.96471206566969   -4.00178e-11   2.88281e-08 DIIS
   @DF-RKS iter  12:  -535.96471206567435   -4.66116e-12   4.88735e-09 DIIS
  Energy and wave function converged.


  ==> Post-Iterations <==

    Orbital Energies [Eh]
    ---------------------

    Doubly Occupied:                                                      

       1Ap  -101.933780     2Ap   -19.401751     3Ap    -9.687253  
       4Ap    -7.395828     5Ap    -7.382426     1App   -7.382108  
       6Ap    -1.198612     7Ap    -0.920350     8Ap    -0.638668  
       9Ap    -0.547312     2App   -0.521101    10Ap    -0.418476  
       3App   -0.385373  

    Virtual:                                                              

      11Ap     0.020060    12Ap     0.113046    13Ap     0.392493  
      14Ap     0.413723     4App    0.422213    15Ap     0.453730  
      16Ap     0.478948    17Ap     0.499216     5App    0.500986  
       6App    0.521430    18Ap     0.522905    19Ap     0.643059  
       7App    0.715386    20Ap     0.748962     8App    0.819460  
      21Ap     0.833276    22Ap     0.966072    23Ap     1.180814  
      24Ap     1.379021     9App    1.578227    25Ap     1.724306  
      10App    1.781215    26Ap     1.800759    11App    1.832217  
      12App    1.850244    27Ap     1.862606    28Ap     1.889903  
      29Ap     1.973923    30Ap     2.036532    13App    2.163737  
      31Ap     2.166572    14App    2.191636    32Ap     2.193132  
      15App    2.290566    33Ap     2.292884    34Ap     2.305145  
      16App    2.527569    35Ap     2.552161    36Ap     2.648577  
      37Ap     2.884739    17App    3.307738    38Ap     3.341019  
      18App    3.491451    39Ap     3.751158    19App    3.762185  
      40Ap     3.812034    41Ap     4.077977    20App    4.180747  
      42Ap     4.265767    43Ap     4.513117    44Ap     4.682195  
      45Ap     4.988677    21App    5.328482    46Ap     5.447670  
      22App    5.498838    47Ap     5.644468    23App    6.458794  
      48Ap     6.538225    24App    6.544870    49Ap     6.583952  
      25App    6.709886    50Ap     6.735896    51Ap     6.949735  
      52Ap     7.254066    26App    8.137213    53Ap     8.146455  
      27App    8.165287    54Ap     8.212685    55Ap     8.449575  
      56Ap    10.861967  

    Final Occupation by Irrep:
             Ap   App 
    DOCC [    10,    3 ]

  @DF-RKS Final Energy:  -535.96471206567435

   => Energetics <=

    Nuclear Repulsion Energy =             51.1126512955243371
    One-Electron Energy =                -840.8504298103640622
    Two-Electron Energy =                 281.9392027078574188
    DFT Exchange-Correlation Energy =     -28.2748622904493843
    Empirical Dispersion Energy =           0.0000000000000000
    VV10 Nonlocal Energy =                  0.1087260317574354
    Total Energy =                       -535.9647120656742345

Computation Completed


Properties will be evaluated at   0.000000,   0.000000,   0.000000 [a0]

Properties computed using the SCF density matrix

  Nuclear Dipole Moment: [e a0]
     X:     1.5446      Y:     1.2477      Z:     0.0000

  Electronic Dipole Moment: [e a0]
     X:    -1.5735      Y:    -0.6301      Z:     0.0000

  Dipole Moment: [e a0]
     X:    -0.0290      Y:     0.6177      Z:     0.0000     Total:     0.6184

  Dipole Moment: [D]
     X:    -0.0736      Y:     1.5700      Z:     0.0000     Total:     1.5717


*** tstop() called on bp1-compute00113.data.bp.acrc.priv at Tue Apr 27 17:46:37 2021
Module time:
	user time   =      78.09 seconds =       1.30 minutes
	system time =       2.43 seconds =       0.04 minutes
	total time  =          3 seconds =       0.05 minutes
Total time:
	user time   =     394.72 seconds =       6.58 minutes
	system time =      14.40 seconds =       0.24 minutes
	total time  =         17 seconds =       0.28 minutes

  //>>>>>>>>>>>>>>>>>>>>>>>>>>>>>>>>>>>//
  //    Loading displacement 6 of 7    //
  //<<<<<<<<<<<<<<<<<<<<<<<<<<<<<<<<<<<//

*** tstart() called on bp1-compute00113.data.bp.acrc.priv
*** at Tue Apr 27 17:46:37 2021

   => Loading Basis Set <=

    Name: CC-PV(T+D)Z
    Role: ORBITAL
    Keyword: BASIS
    atoms 1 entry O          line   271 file /work/zw18965/.conda/envs/p4env/share/psi4/basis/cc-pv_tpd_z.gbs 
    atoms 2 entry H          line    32 file /work/zw18965/.conda/envs/p4env/share/psi4/basis/cc-pv_tpd_z.gbs 
    atoms 3 entry CL         line   864 file /work/zw18965/.conda/envs/p4env/share/psi4/basis/cc-pv_tpd_z.gbs 


         ---------------------------------------------------------
                                   SCF
               by Justin Turney, Rob Parrish, Andy Simmonett
                          and Daniel G. A. Smith
                              RKS Reference
                       24 Threads, 137329 MiB Core
         ---------------------------------------------------------

  ==> Geometry <==

    Molecular point group: cs
    Full point group: Cs

    Geometry (in Angstrom), charge = 0, multiplicity = 1:

       Center              X                  Y                   Z               Mass       
    ------------   -----------------  -----------------  -----------------  -----------------
         O            1.112243756888     0.231009382225     0.000000000000    15.994914619570
         H            1.110222258407     1.193276554168     0.000000000000     1.007825032230
         CL          -0.540742754213    -0.140055762516     0.000000000000    34.968852682000

  Running in cs symmetry.

  Rotational constants: A =     20.50253  B =      0.50462  C =      0.49250 [cm^-1]
  Rotational constants: A = 614650.53533  B =  15128.09462  C =  14764.69828 [MHz]
  Nuclear repulsion =   51.119570726180498

  Charge       = 0
  Multiplicity = 1
  Electrons    = 26
  Nalpha       = 13
  Nbeta        = 13

  ==> Algorithm <==

  SCF Algorithm Type is DF.
  DIIS enabled.
  MOM disabled.
  Fractional occupation disabled.
  Guess Type is SAD.
  Energy threshold   = 1.00e-08
  Density threshold  = 1.00e-08
  Integral threshold = 0.00e+00

  ==> Primary Basis <==

  Basis Set: CC-PV(T+D)Z
    Blend: CC-PV(T+D)Z
    Number of shells: 29
    Number of basis function: 83
    Number of Cartesian functions: 95
    Spherical Harmonics?: true
    Max angular momentum: 3

  ==> DFT Potential <==

   => Composite Functional: WB97M-V <= 

    wB97M-V Hyb-GGA Exchange-Correlation Functional

    N. Mardirossian and M. Head-Gordon, J. Chem. Phys. 144, 214110 (2016)

    Deriv               =              1
    GGA                 =           TRUE
    Meta                =           TRUE

    Exchange Hybrid     =           TRUE
    MP2 Hybrid          =          FALSE

   => Exchange-Correlation Functionals <=

    1.0000   wB97M-V exchange-correlation functional

   => Exact (HF) Exchange <=

    0.8500            HF,LR [omega = 0.3000]
    0.1500               HF 

   => VV10 Non-Local Parameters <=

    VV10 B              =     6.0000E+00
    VV10 C              =     1.0000E-02

   => Molecular Quadrature <=

    Radial Scheme          =       TREUTLER
    Pruning Scheme         =           FLAT
    Nuclear Scheme         =       TREUTLER

    BS radius alpha        =              1
    Pruning alpha          =              1
    Radial Points          =             75
    Spherical Points       =            302
    Total Points           =          65750
    Total Blocks           =            556
    Max Points             =            255
    Max Functions          =             83

   => Loading Basis Set <=

    Name: (CC-PV(T+D)Z AUX)
    Role: JKFIT
    Keyword: DF_BASIS_SCF
    atoms 1 entry O          line   229 file /work/zw18965/.conda/envs/p4env/share/psi4/basis/cc-pvtz-jkfit.gbs 
    atoms 2 entry H          line    51 file /work/zw18965/.conda/envs/p4env/share/psi4/basis/cc-pvtz-jkfit.gbs 
    atoms 3 entry CL         line   689 file /work/zw18965/.conda/envs/p4env/share/psi4/basis/cc-pvtz-jkfit.gbs 

  ==> Pre-Iterations <==

   -------------------------------------------------------
    Irrep   Nso     Nmo     Nalpha   Nbeta   Ndocc  Nsocc
   -------------------------------------------------------
     A'        56      56       0       0       0       0
     A"        27      27       0       0       0       0
   -------------------------------------------------------
    Total      83      83      13      13      13       0
   -------------------------------------------------------

  ==> Integral Setup <==

  ==> DiskDFJK: Density-Fitted J/K Matrices <==

    J tasked:                  Yes
    K tasked:                  Yes
    wK tasked:                 Yes
    Omega:               3.000E-01
    OpenMP threads:             24
    Integrals threads:          24
    Memory [MiB]:           102637
    Algorithm:                Core
    Integral Cache:           NONE
    Schwarz Cutoff:          1E-12
    Fitting Condition:       1E-10

   => Auxiliary Basis Set <=

  Basis Set: (CC-PV(T+D)Z AUX)
    Blend: CC-PVTZ-JKFIT
    Number of shells: 72
    Number of basis function: 230
    Number of Cartesian functions: 276
    Spherical Harmonics?: true
    Max angular momentum: 4

  Cached 100.0% of DFT collocation blocks in 0.351 [GiB].

  Minimum eigenvalue in the overlap matrix is 3.1205388088E-03.
  Using Symmetric Orthogonalization.

  SCF Guess: Superposition of Atomic Densities via on-the-fly atomic UHF.

  ==> Iterations <==

                           Total Energy        Delta E     RMS |[F,P]|

   @DF-RKS iter SAD:  -535.60179913794911   -5.35602e+02   0.00000e+00 
   @DF-RKS iter   1:  -535.90161457148770   -2.99815e-01   6.74357e-03 DIIS
   @DF-RKS iter   2:  -535.90545016070109   -3.83559e-03   6.87067e-03 DIIS
   @DF-RKS iter   3:  -535.96335038981204   -5.79002e-02   9.88874e-04 DIIS
   @DF-RKS iter   4:  -535.96465113956253   -1.30075e-03   1.55304e-04 DIIS
   @DF-RKS iter   5:  -535.96470857236670   -5.74328e-05   3.46254e-05 DIIS
   @DF-RKS iter   6:  -535.96471228728069   -3.71491e-06   8.87979e-06 DIIS
   @DF-RKS iter   7:  -535.96471287745248   -5.90172e-07   3.62573e-06 DIIS
   @DF-RKS iter   8:  -535.96471300522330   -1.27771e-07   1.47027e-06 DIIS
   @DF-RKS iter   9:  -535.96471302721216   -2.19889e-08   4.11377e-07 DIIS
   @DF-RKS iter  10:  -535.96471302840996   -1.19780e-09   9.65200e-08 DIIS
   @DF-RKS iter  11:  -535.96471302844952   -3.95630e-11   2.86934e-08 DIIS
   @DF-RKS iter  12:  -535.96471302845362   -4.09273e-12   4.87688e-09 DIIS
  Energy and wave function converged.


  ==> Post-Iterations <==

    Orbital Energies [Eh]
    ---------------------

    Doubly Occupied:                                                      

       1Ap  -101.933734     2Ap   -19.401887     3Ap    -9.687220  
       4Ap    -7.395791     5Ap    -7.382394     1App   -7.382076  
       6Ap    -1.198719     7Ap    -0.920201     8Ap    -0.638546  
       9Ap    -0.547519     2App   -0.521175    10Ap    -0.418497  
       3App   -0.385362  

    Virtual:                                                              

      11Ap     0.020143    12Ap     0.112944    13Ap     0.392297  
      14Ap     0.413785     4App    0.422190    15Ap     0.453622  
      16Ap     0.479260    17Ap     0.499025     5App    0.500862  
       6App    0.521453    18Ap     0.522649    19Ap     0.642469  
       7App    0.715495    20Ap     0.749091     8App    0.818988  
      21Ap     0.833368    22Ap     0.966751    23Ap     1.181105  
      24Ap     1.378347     9App    1.578331    25Ap     1.724151  
      10App    1.781515    26Ap     1.800808    11App    1.832200  
      12App    1.849941    27Ap     1.862568    28Ap     1.890438  
      29Ap     1.973977    30Ap     2.036160    13App    2.163672  
      31Ap     2.166568    14App    2.191368    32Ap     2.193715  
      15App    2.290570    33Ap     2.292922    34Ap     2.304946  
      16App    2.528078    35Ap     2.552240    36Ap     2.648332  
      37Ap     2.884512    17App    3.307103    38Ap     3.342124  
      18App    3.490962    39Ap     3.750516    19App    3.762102  
      40Ap     3.811860    41Ap     4.078775    20App    4.180176  
      42Ap     4.265747    43Ap     4.512203    44Ap     4.682476  
      45Ap     4.988197    21App    5.329016    46Ap     5.448705  
      22App    5.497620    47Ap     5.643119    23App    6.457755  
      48Ap     6.535999    24App    6.545045    49Ap     6.583384  
      25App    6.708752    50Ap     6.736173    51Ap     6.947920  
      52Ap     7.253593    26App    8.137276    53Ap     8.146481  
      27App    8.165297    54Ap     8.213140    55Ap     8.450024  
      56Ap    10.858448  

    Final Occupation by Irrep:
             Ap   App 
    DOCC [    10,    3 ]

  @DF-RKS Final Energy:  -535.96471302845362

   => Energetics <=

    Nuclear Repulsion Energy =             51.1195707261804984
    One-Electron Energy =                -840.8641411362484632
    Two-Electron Energy =                 281.9459199909099425
    DFT Exchange-Correlation Energy =     -28.2747871698281052
    Empirical Dispersion Energy =           0.0000000000000000
    VV10 Nonlocal Energy =                  0.1087245605324855
    Total Energy =                       -535.9647130284536161

Computation Completed


Properties will be evaluated at   0.000000,   0.000000,   0.000000 [a0]

Properties computed using the SCF density matrix

  Nuclear Dipole Moment: [e a0]
     X:     1.5412      Y:     1.2480      Z:     0.0000

  Electronic Dipole Moment: [e a0]
     X:    -1.5713      Y:    -0.6302      Z:     0.0000

  Dipole Moment: [e a0]
     X:    -0.0302      Y:     0.6177      Z:     0.0000     Total:     0.6185

  Dipole Moment: [D]
     X:    -0.0767      Y:     1.5701      Z:     0.0000     Total:     1.5720


*** tstop() called on bp1-compute00113.data.bp.acrc.priv at Tue Apr 27 17:46:40 2021
Module time:
	user time   =      77.23 seconds =       1.29 minutes
	system time =       2.39 seconds =       0.04 minutes
	total time  =          3 seconds =       0.05 minutes
Total time:
	user time   =     472.08 seconds =       7.87 minutes
	system time =      16.80 seconds =       0.28 minutes
	total time  =         20 seconds =       0.33 minutes

  //>>>>>>>>>>>>>>>>>>>>>>>>>>>>>>>>>>>//
  //    Loading displacement 7 of 7    //
  //<<<<<<<<<<<<<<<<<<<<<<<<<<<<<<<<<<<//

*** tstart() called on bp1-compute00113.data.bp.acrc.priv
*** at Tue Apr 27 17:46:40 2021

   => Loading Basis Set <=

    Name: CC-PV(T+D)Z
    Role: ORBITAL
    Keyword: BASIS
    atoms 1 entry O          line   271 file /work/zw18965/.conda/envs/p4env/share/psi4/basis/cc-pv_tpd_z.gbs 
    atoms 2 entry H          line    32 file /work/zw18965/.conda/envs/p4env/share/psi4/basis/cc-pv_tpd_z.gbs 
    atoms 3 entry CL         line   864 file /work/zw18965/.conda/envs/p4env/share/psi4/basis/cc-pv_tpd_z.gbs 


         ---------------------------------------------------------
                                   SCF
               by Justin Turney, Rob Parrish, Andy Simmonett
                          and Daniel G. A. Smith
                              RKS Reference
                       24 Threads, 137329 MiB Core
         ---------------------------------------------------------

  ==> Geometry <==

    Molecular point group: cs
    Full point group: Cs

    Geometry (in Angstrom), charge = 0, multiplicity = 1:

       Center              X                  Y                   Z               Mass       
    ------------   -----------------  -----------------  -----------------  -----------------
         O            1.112243756888     0.231009382225     0.000000000000    15.994914619570
         H            1.114265255369     1.196541710282     0.000000000000     1.007825032230
         CL          -0.540859276010    -0.140149866434     0.000000000000    34.968852682000

  Running in cs symmetry.

  Rotational constants: A =     20.41095  B =      0.50434  C =      0.49218 [cm^-1]
  Rotational constants: A = 611904.96268  B =  15119.69078  C =  14755.10376 [MHz]
  Nuclear repulsion =   51.090672298447394

  Charge       = 0
  Multiplicity = 1
  Electrons    = 26
  Nalpha       = 13
  Nbeta        = 13

  ==> Algorithm <==

  SCF Algorithm Type is DF.
  DIIS enabled.
  MOM disabled.
  Fractional occupation disabled.
  Guess Type is SAD.
  Energy threshold   = 1.00e-08
  Density threshold  = 1.00e-08
  Integral threshold = 0.00e+00

  ==> Primary Basis <==

  Basis Set: CC-PV(T+D)Z
    Blend: CC-PV(T+D)Z
    Number of shells: 29
    Number of basis function: 83
    Number of Cartesian functions: 95
    Spherical Harmonics?: true
    Max angular momentum: 3

  ==> DFT Potential <==

   => Composite Functional: WB97M-V <= 

    wB97M-V Hyb-GGA Exchange-Correlation Functional

    N. Mardirossian and M. Head-Gordon, J. Chem. Phys. 144, 214110 (2016)

    Deriv               =              1
    GGA                 =           TRUE
    Meta                =           TRUE

    Exchange Hybrid     =           TRUE
    MP2 Hybrid          =          FALSE

   => Exchange-Correlation Functionals <=

    1.0000   wB97M-V exchange-correlation functional

   => Exact (HF) Exchange <=

    0.8500            HF,LR [omega = 0.3000]
    0.1500               HF 

   => VV10 Non-Local Parameters <=

    VV10 B              =     6.0000E+00
    VV10 C              =     1.0000E-02

   => Molecular Quadrature <=

    Radial Scheme          =       TREUTLER
    Pruning Scheme         =           FLAT
    Nuclear Scheme         =       TREUTLER

    BS radius alpha        =              1
    Pruning alpha          =              1
    Radial Points          =             75
    Spherical Points       =            302
    Total Points           =          65752
    Total Blocks           =            555
    Max Points             =            254
    Max Functions          =             83

   => Loading Basis Set <=

    Name: (CC-PV(T+D)Z AUX)
    Role: JKFIT
    Keyword: DF_BASIS_SCF
    atoms 1 entry O          line   229 file /work/zw18965/.conda/envs/p4env/share/psi4/basis/cc-pvtz-jkfit.gbs 
    atoms 2 entry H          line    51 file /work/zw18965/.conda/envs/p4env/share/psi4/basis/cc-pvtz-jkfit.gbs 
    atoms 3 entry CL         line   689 file /work/zw18965/.conda/envs/p4env/share/psi4/basis/cc-pvtz-jkfit.gbs 

  ==> Pre-Iterations <==

   -------------------------------------------------------
    Irrep   Nso     Nmo     Nalpha   Nbeta   Ndocc  Nsocc
   -------------------------------------------------------
     A'        56      56       0       0       0       0
     A"        27      27       0       0       0       0
   -------------------------------------------------------
    Total      83      83      13      13      13       0
   -------------------------------------------------------

  ==> Integral Setup <==

  ==> DiskDFJK: Density-Fitted J/K Matrices <==

    J tasked:                  Yes
    K tasked:                  Yes
    wK tasked:                 Yes
    Omega:               3.000E-01
    OpenMP threads:             24
    Integrals threads:          24
    Memory [MiB]:           102637
    Algorithm:                Core
    Integral Cache:           NONE
    Schwarz Cutoff:          1E-12
    Fitting Condition:       1E-10

   => Auxiliary Basis Set <=

  Basis Set: (CC-PV(T+D)Z AUX)
    Blend: CC-PVTZ-JKFIT
    Number of shells: 72
    Number of basis function: 230
    Number of Cartesian functions: 276
    Spherical Harmonics?: true
    Max angular momentum: 4

  Cached 100.0% of DFT collocation blocks in 0.351 [GiB].

  Minimum eigenvalue in the overlap matrix is 3.1546279796E-03.
  Using Symmetric Orthogonalization.

  SCF Guess: Superposition of Atomic Densities via on-the-fly atomic UHF.

  ==> Iterations <==

                           Total Energy        Delta E     RMS |[F,P]|

   @DF-RKS iter SAD:  -535.59952780494484   -5.35600e+02   0.00000e+00 
   @DF-RKS iter   1:  -535.90173732207597   -3.02210e-01   6.73261e-03 DIIS
   @DF-RKS iter   2:  -535.90561822960888   -3.88091e-03   6.86081e-03 DIIS
   @DF-RKS iter   3:  -535.96335355538781   -5.77353e-02   9.90543e-04 DIIS
   @DF-RKS iter   4:  -535.96465938855727   -1.30583e-03   1.55649e-04 DIIS
   @DF-RKS iter   5:  -535.96471721973296   -5.78312e-05   3.47257e-05 DIIS
   @DF-RKS iter   6:  -535.96472099038704   -3.77065e-06   8.93009e-06 DIIS
   @DF-RKS iter   7:  -535.96472159162863   -6.01242e-07   3.63614e-06 DIIS
   @DF-RKS iter   8:  -535.96472172111885   -1.29490e-07   1.47942e-06 DIIS
   @DF-RKS iter   9:  -535.96472174322616   -2.21073e-08   4.13439e-07 DIIS
   @DF-RKS iter  10:  -535.96472174443375   -1.20758e-09   9.72548e-08 DIIS
   @DF-RKS iter  11:  -535.96472174447422   -4.04725e-11   2.90062e-08 DIIS
   @DF-RKS iter  12:  -535.96472174447899   -4.77485e-12   4.90531e-09 DIIS
  Energy and wave function converged.


  ==> Post-Iterations <==

    Orbital Energies [Eh]
    ---------------------

    Doubly Occupied:                                                      

       1Ap  -101.933676     2Ap   -19.402026     3Ap    -9.687151  
       4Ap    -7.395724     5Ap    -7.382325     1App   -7.382008  
       6Ap    -1.197846     7Ap    -0.919957     8Ap    -0.638089  
       9Ap    -0.547167     2App   -0.520970    10Ap    -0.418321  
       3App   -0.385250  

    Virtual:                                                              

      11Ap     0.020057    12Ap     0.112524    13Ap     0.392219  
      14Ap     0.413672     4App    0.422255    15Ap     0.453049  
      16Ap     0.478565    17Ap     0.499211     5App    0.501061  
       6App    0.521539    18Ap     0.522375    19Ap     0.643208  
       7App    0.714780    20Ap     0.748755     8App    0.819367  
      21Ap     0.833362    22Ap     0.965469    23Ap     1.182739  
      24Ap     1.374756     9App    1.578376    25Ap     1.723851  
      10App    1.780427    26Ap     1.800958    11App    1.831801  
      12App    1.849967    27Ap     1.862648    28Ap     1.889446  
      29Ap     1.975436    30Ap     2.036735    13App    2.163844  
      31Ap     2.166686    14App    2.191637    32Ap     2.192812  
      15App    2.290650    33Ap     2.292970    34Ap     2.305379  
      16App    2.527707    35Ap     2.552347    36Ap     2.645350  
      37Ap     2.884469    17App    3.305895    38Ap     3.339037  
      18App    3.489272    39Ap     3.748550    19App    3.761704  
      40Ap     3.807501    41Ap     4.073623    20App    4.177014  
      42Ap     4.264651    43Ap     4.502551    44Ap     4.680804  
      45Ap     4.989693    21App    5.328166    46Ap     5.445427  
      22App    5.495101    47Ap     5.642600    23App    6.451763  
      48Ap     6.526641    24App    6.544316    49Ap     6.577335  
      25App    6.702954    50Ap     6.733414    51Ap     6.947865  
      52Ap     7.248429    26App    8.137291    53Ap     8.146583  
      27App    8.165385    54Ap     8.212526    55Ap     8.449531  
      56Ap    10.827259  

    Final Occupation by Irrep:
             Ap   App 
    DOCC [    10,    3 ]

  @DF-RKS Final Energy:  -535.96472174447899

   => Energetics <=

    Nuclear Repulsion Energy =             51.0906722984473944
    One-Electron Energy =                -840.8123934039293772
    Two-Electron Energy =                 281.9217073399999549
    DFT Exchange-Correlation Energy =     -28.2734309686811009
    Empirical Dispersion Energy =           0.0000000000000000
    VV10 Nonlocal Energy =                  0.1087229896841015
    Total Energy =                       -535.9647217444789931

Computation Completed


Properties will be evaluated at   0.000000,   0.000000,   0.000000 [a0]

Properties computed using the SCF density matrix

  Nuclear Dipole Moment: [e a0]
     X:     1.5451      Y:     1.2511      Z:     0.0000

  Electronic Dipole Moment: [e a0]
     X:    -1.5730      Y:    -0.6316      Z:     0.0000

  Dipole Moment: [e a0]
     X:    -0.0279      Y:     0.6195      Z:     0.0000     Total:     0.6201

  Dipole Moment: [D]
     X:    -0.0710      Y:     1.5746      Z:     0.0000     Total:     1.5762


*** tstop() called on bp1-compute00113.data.bp.acrc.priv at Tue Apr 27 17:46:44 2021
Module time:
	user time   =      76.83 seconds =       1.28 minutes
	system time =       2.19 seconds =       0.04 minutes
	total time  =          4 seconds =       0.07 minutes
Total time:
	user time   =     549.05 seconds =       9.15 minutes
	system time =      18.99 seconds =       0.32 minutes
	total time  =         24 seconds =       0.40 minutes

         ----------------------------------------------------------
                                   FINDIF
                     R. A. King and Jonathon Misiewicz
         ---------------------------------------------------------

  Computing gradient from energies.
    Using 3-point formula.
    Energy without displacement: -535.9647203573
    Check energies below for precision!
    Forces are for mass-weighted, symmetry-adapted cartesians (in au).

     Coord      Energy(-1)        Energy(+1)            Force
        0   -535.9647284269   -535.9647116916      0.0016735255
        1   -535.9647192541   -535.9647120657      0.0007188395
        2   -535.9647130285   -535.9647217445     -0.0008716025


-------------------------------------------------------------
  ## New Matrix (Symmetry 0) ##
  Irrep: 1 Size: 3 x 3

                 1                   2                   3

    1     0.00546747143394     0.00185898662878     0.00000000000000
    2    -0.00048059413919    -0.00101965883778     0.00000000000000
    3    -0.00498687729475    -0.00083932779100     0.00000000000000




			-----------------------------------------
			 OPTKING 2.0: for geometry optimizations 
			  - R.A. King,  Bethel University        
			-----------------------------------------
	At level 1: Red. Int., RFO, no backsteps, dynamic trust

	Internal coordinates to be generated automatically.
	Detected frag 1 with atoms:  1 2 3
	---Fragment 1 Bond Connectivity---
	 1 : 2 3
	 2 : 1
	 3 : 1

	---Fragment 1 Geometry and Gradient---
	 O           2.1018360853        0.4365444648        0.0000000000
	 H           2.1018360853        2.2580510047        0.0000000000
	 CL         -1.0219658069       -0.2647559488        0.0000000000
	             0.0054674714        0.0018589866        0.0000000000
	            -0.0004805941       -0.0010196588        0.0000000000
	            -0.0049868773       -0.0008393278        0.0000000000

	Previous optimization step data not found.  Starting new optimization.

	---Fragment 1 Intrafragment Coordinates---
	 - Coordinate -           - BOHR/RAD -       - ANG/DEG -
	 R(1,2)           =         1.821507	       0.963900
	 R(1,3)           =         3.201556	       1.694190
	 B(2,1,3)         =         1.791637	     102.653233

	Current energy   :      -535.9647203573

	Generating empirical Hessian (Schlegel '84) for each fragment.
	Taking RFO optimization step.
	Going to follow RFO solution 1.
	Using RFO vector 1.
	Norm of target step-size    0.01496
	Projected energy change by RFO approximation:         0.0000187922

	Back-transformation to cartesian coordinates...
	Successfully converged to displaced geometry.

	--- Internal Coordinate Step in ANG or DEG, aJ/ANG or AJ/DEG ---
	 ---------------------------------------------------------------------------
	   Coordinate                Previous        Force       Change         New 
	   ----------                --------       ------       ------       ------
	    1 R(1,2)          =      0.963900     0.008401     0.000987     0.964887
	    2 R(1,3)          =      1.694190    -0.041602    -0.007300     1.686891
	    3 B(2,1,3)        =    102.653233     0.000067     0.313332   102.966565
	 ---------------------------------------------------------------------------
	Successfully symmetrized geometry.

  ==> Convergence Check <==

  Measures of convergence in internal coordinates in au.
  Criteria marked as inactive (o), active & met (*), and active & unmet ( ).
  --------------------------------------------------------------------------------------------- ~
   Step     Total Energy     Delta E     MAX Force     RMS Force      MAX Disp      RMS Disp    ~
  --------------------------------------------------------------------------------------------- ~
    Convergence Criteria    1.00e-06 *    3.00e-04 *             o    1.20e-03 *             o  ~
  --------------------------------------------------------------------------------------------- ~
      1    -535.96472036   -5.36e+02      5.05e-03      3.02e-03 o    1.38e-02      8.63e-03 o  ~
  ---------------------------------------------------------------------------------------------

	Writing optimization data to binary file.
	Structure for next step:
	Cartesian Geometry (in Angstrom)
	    O     1.1081981454   0.2303930977   0.0000000000
	    H     1.1130495816   1.1952679740   0.0000000000
	   CL    -0.5375612349  -0.1398453768   0.0000000000
			--------------------------
			 OPTKING Finished Execution 
			--------------------------

    Structure for next step:
    Molecular point group: cs
    Full point group: Cs

    Geometry (in Angstrom), charge = 0, multiplicity = 1:

    O            1.107247739887     0.230402593582     0.000000000000
    H            1.112099176033     1.195277473601     0.000000000000
    CL          -0.538511646961    -0.139835882387     0.000000000000

gradient() will perform gradient computation by finite difference of analytic energies.

         ----------------------------------------------------------
                                   FINDIF
                     R. A. King and Jonathon Misiewicz
         ---------------------------------------------------------

[...]
    Two-Electron Energy =                 282.2067759153339921
    DFT Exchange-Correlation Energy =     -28.2776338779032095
    Empirical Dispersion Energy =           0.0000000000000000
    VV10 Nonlocal Energy =                  0.1087081466754297
    Total Energy =                       -535.9647770428762215

Computation Completed


Properties will be evaluated at   0.000000,   0.000000,   0.000000 [a0]

Properties computed using the SCF density matrix

  Nuclear Dipole Moment: [e a0]
     X:     1.5447      Y:     1.2504      Z:     0.0000

  Electronic Dipole Moment: [e a0]
     X:    -1.5651      Y:    -0.6294      Z:     0.0000

  Dipole Moment: [e a0]
     X:    -0.0204      Y:     0.6210      Z:     0.0000     Total:     0.6213

  Dipole Moment: [D]
     X:    -0.0519      Y:     1.5784      Z:     0.0000     Total:     1.5792


*** tstop() called on bp1-compute00113.data.bp.acrc.priv at Tue Apr 27 17:48:22 2021
Module time:
	user time   =      85.23 seconds =       1.42 minutes
	system time =       2.31 seconds =       0.04 minutes
	total time  =          3 seconds =       0.05 minutes
Total time:
	user time   =    2834.56 seconds =      47.24 minutes
	system time =      82.11 seconds =       1.37 minutes
	total time  =        122 seconds =       2.03 minutes

  //>>>>>>>>>>>>>>>>>>>>>>>>>>>>>>>>>>>//
  //   Loading displacement 13 of 13   //
  //<<<<<<<<<<<<<<<<<<<<<<<<<<<<<<<<<<<//

*** tstart() called on bp1-compute00113.data.bp.acrc.priv
*** at Tue Apr 27 17:48:22 2021

   => Loading Basis Set <=

    Name: CC-PV(T+D)Z
    Role: ORBITAL
    Keyword: BASIS
    atoms 1 entry O          line   271 file /work/zw18965/.conda/envs/p4env/share/psi4/basis/cc-pv_tpd_z.gbs 
    atoms 2 entry H          line    32 file /work/zw18965/.conda/envs/p4env/share/psi4/basis/cc-pv_tpd_z.gbs 
    atoms 3 entry CL         line   864 file /work/zw18965/.conda/envs/p4env/share/psi4/basis/cc-pv_tpd_z.gbs 


         ---------------------------------------------------------
                                   SCF
               by Justin Turney, Rob Parrish, Andy Simmonett
                          and Daniel G. A. Smith
                              RKS Reference
                       24 Threads, 137329 MiB Core
         ---------------------------------------------------------

  ==> Geometry <==

    Molecular point group: cs
    Full point group: Cs

    Geometry (in Angstrom), charge = 0, multiplicity = 1:

       Center              X                  Y                   Z               Mass       
    ------------   -----------------  -----------------  -----------------  -----------------
         O            1.104343285626     0.230970512655     0.000000000000    15.994914619570
         H            1.110313000802     1.196270421098     0.000000000000     1.007825032230
         CL          -0.537131657447    -0.140124268583     0.000000000000    34.968852682000

  Running in cs symmetry.

  Rotational constants: A =     20.48412  B =      0.51088  C =      0.49844 [cm^-1]
  Rotational constants: A = 614098.39000  B =  15315.67709  C =  14942.99720 [MHz]
  Nuclear repulsion =   51.390607812025436

  Charge       = 0
  Multiplicity = 1
  Electrons    = 26
  Nalpha       = 13
  Nbeta        = 13

  ==> Algorithm <==

  SCF Algorithm Type is DF.
  DIIS enabled.
  MOM disabled.
  Fractional occupation disabled.
  Guess Type is SAD.
  Energy threshold   = 1.00e-10
  Density threshold  = 1.00e-10
  Integral threshold = 0.00e+00

  ==> Primary Basis <==

  Basis Set: CC-PV(T+D)Z
    Blend: CC-PV(T+D)Z
    Number of shells: 29
    Number of basis function: 83
    Number of Cartesian functions: 95
    Spherical Harmonics?: true
    Max angular momentum: 3

  ==> DFT Potential <==

   => Composite Functional: WB97M-V <= 

    wB97M-V Hyb-GGA Exchange-Correlation Functional

    N. Mardirossian and M. Head-Gordon, J. Chem. Phys. 144, 214110 (2016)

    Deriv               =              1
    GGA                 =           TRUE
    Meta                =           TRUE

    Exchange Hybrid     =           TRUE
    MP2 Hybrid          =          FALSE

   => Exchange-Correlation Functionals <=

    1.0000   wB97M-V exchange-correlation functional

   => Exact (HF) Exchange <=

    0.8500            HF,LR [omega = 0.3000]
    0.1500               HF 

   => VV10 Non-Local Parameters <=

    VV10 B              =     6.0000E+00
    VV10 C              =     1.0000E-02

   => Molecular Quadrature <=

    Radial Scheme          =       TREUTLER
    Pruning Scheme         =           FLAT
    Nuclear Scheme         =       TREUTLER

    BS radius alpha        =              1
    Pruning alpha          =              1
    Radial Points          =             75
    Spherical Points       =            302
    Total Points           =          65752
    Total Blocks           =            556
    Max Points             =            254
    Max Functions          =             83

   => Loading Basis Set <=

    Name: (CC-PV(T+D)Z AUX)
    Role: JKFIT
    Keyword: DF_BASIS_SCF
    atoms 1 entry O          line   229 file /work/zw18965/.conda/envs/p4env/share/psi4/basis/cc-pvtz-jkfit.gbs 
    atoms 2 entry H          line    51 file /work/zw18965/.conda/envs/p4env/share/psi4/basis/cc-pvtz-jkfit.gbs 
    atoms 3 entry CL         line   689 file /work/zw18965/.conda/envs/p4env/share/psi4/basis/cc-pvtz-jkfit.gbs 

  ==> Pre-Iterations <==

   -------------------------------------------------------
    Irrep   Nso     Nmo     Nalpha   Nbeta   Ndocc  Nsocc
   -------------------------------------------------------
     A'        56      56       0       0       0       0
     A"        27      27       0       0       0       0
   -------------------------------------------------------
    Total      83      83      13      13      13       0
   -------------------------------------------------------

  ==> Integral Setup <==

  ==> DiskDFJK: Density-Fitted J/K Matrices <==

    J tasked:                  Yes
    K tasked:                  Yes
    wK tasked:                 Yes
    Omega:               3.000E-01
    OpenMP threads:             24
    Integrals threads:          24
    Memory [MiB]:           102637
    Algorithm:                Core
    Integral Cache:           NONE
    Schwarz Cutoff:          1E-12
    Fitting Condition:       1E-10

   => Auxiliary Basis Set <=

  Basis Set: (CC-PV(T+D)Z AUX)
    Blend: CC-PVTZ-JKFIT
    Number of shells: 72
    Number of basis function: 230
    Number of Cartesian functions: 276
    Spherical Harmonics?: true
    Max angular momentum: 4

  Cached 100.0% of DFT collocation blocks in 0.351 [GiB].

  Minimum eigenvalue in the overlap matrix is 3.1342431723E-03.
  Using Symmetric Orthogonalization.

  SCF Guess: Superposition of Atomic Densities via on-the-fly atomic UHF.

  ==> Iterations <==

                           Total Energy        Delta E     RMS |[F,P]|

   @DF-RKS iter SAD:  -535.61587382816845   -5.35616e+02   0.00000e+00 
   @DF-RKS iter   1:  -535.90174191044582   -2.85868e-01   6.74044e-03 DIIS
   @DF-RKS iter   2:  -535.90684137867504   -5.09947e-03   6.80821e-03 DIIS
   @DF-RKS iter   3:  -535.96341837671264   -5.65770e-02   9.89294e-04 DIIS
   @DF-RKS iter   4:  -535.96471537273419   -1.29700e-03   1.54922e-04 DIIS
   @DF-RKS iter   5:  -535.96477334731867   -5.79746e-05   3.46105e-05 DIIS
   @DF-RKS iter   6:  -535.96477711431498   -3.76700e-06   8.90301e-06 DIIS
   @DF-RKS iter   7:  -535.96477770595686   -5.91642e-07   3.58223e-06 DIIS
   @DF-RKS iter   8:  -535.96477783065961   -1.24703e-07   1.45109e-06 DIIS
   @DF-RKS iter   9:  -535.96477785156037   -2.09008e-08   4.09030e-07 DIIS
   @DF-RKS iter  10:  -535.96477785271304   -1.15267e-09   9.59792e-08 DIIS
   @DF-RKS iter  11:  -535.96477785275192   -3.88809e-11   2.81107e-08 DIIS
   @DF-RKS iter  12:  -535.96477785275579   -3.86535e-12   4.74063e-09 DIIS
   @DF-RKS iter  13:  -535.96477785275647   -6.82121e-13   9.59562e-10 DIIS
   @DF-RKS iter  14:  -535.96477785275624    2.27374e-13   2.23997e-10 DIIS
   @DF-RKS iter  15:  -535.96477785275613    1.13687e-13   5.19940e-11 DIIS
  Energy and wave function converged.


  ==> Post-Iterations <==

    Orbital Energies [Eh]
    ---------------------

    Doubly Occupied:                                                      

       1Ap  -101.933090     2Ap   -19.401339     3Ap    -9.686700  
       4Ap    -7.395267     5Ap    -7.381864     1App   -7.381540  
       6Ap    -1.200891     7Ap    -0.919187     8Ap    -0.639869  
       9Ap    -0.548381     2App   -0.522751    10Ap    -0.417196  
       3App   -0.383825  

    Virtual:                                                              

      11Ap     0.023584    12Ap     0.113194    13Ap     0.392895  
      14Ap     0.413105     4App    0.421943    15Ap     0.453105  
      16Ap     0.478357    17Ap     0.500361     5App    0.500901  
      18Ap     0.523048     6App    0.523486    19Ap     0.643973  
       7App    0.714206    20Ap     0.748622     8App    0.819933  
      21Ap     0.837504    22Ap     0.967509    23Ap     1.182501  
      24Ap     1.375008     9App    1.583640    25Ap     1.723939  
      10App    1.779405    26Ap     1.801316    11App    1.830404  
      12App    1.849164    27Ap     1.862707    28Ap     1.891661  
      29Ap     1.975716    30Ap     2.042213    13App    2.164065  
      31Ap     2.167468    14App    2.194422    32Ap     2.197216  
      15App    2.290820    33Ap     2.293626    34Ap     2.308155  
      16App    2.536817    35Ap     2.561474    36Ap     2.650930  
      37Ap     2.882906    17App    3.306894    38Ap     3.341553  
      18App    3.491366    39Ap     3.753684    19App    3.762955  
      40Ap     3.807268    41Ap     4.077958    20App    4.178090  
      42Ap     4.262953    43Ap     4.506309    44Ap     4.689697  
      45Ap     4.998932    21App    5.331375    46Ap     5.449602  
      22App    5.498432    47Ap     5.652117    23App    6.452714  
      48Ap     6.530759    24App    6.550591    49Ap     6.582522  
      25App    6.703638    50Ap     6.733583    51Ap     6.949577  
      52Ap     7.246402    26App    8.137756    53Ap     8.147246  
      27App    8.166234    54Ap     8.214957    55Ap     8.468675  
      56Ap    10.833120  

    Final Occupation by Irrep:
             Ap   App 
    DOCC [    10,    3 ]

  @DF-RKS Final Energy:  -535.96477785275613

   => Energetics <=

    Nuclear Repulsion Energy =             51.3906078120254364
    One-Electron Energy =                -841.4072225984826900
    Two-Electron Energy =                 282.2206514271013020
    DFT Exchange-Correlation Energy =     -28.2775197971834800
    Empirical Dispersion Energy =           0.0000000000000000
    VV10 Nonlocal Energy =                  0.1087053037833330
    Total Energy =                       -535.9647778527560149

Computation Completed


Properties will be evaluated at   0.000000,   0.000000,   0.000000 [a0]

Properties computed using the SCF density matrix

  Nuclear Dipole Moment: [e a0]
     X:     1.5379      Y:     1.2509      Z:     0.0000

  Electronic Dipole Moment: [e a0]
     X:    -1.5607      Y:    -0.6297      Z:     0.0000

  Dipole Moment: [e a0]
     X:    -0.0228      Y:     0.6211      Z:     0.0000     Total:     0.6216

  Dipole Moment: [D]
     X:    -0.0580      Y:     1.5788      Z:     0.0000     Total:     1.5798


*** tstop() called on bp1-compute00113.data.bp.acrc.priv at Tue Apr 27 17:48:26 2021
Module time:
	user time   =      85.57 seconds =       1.43 minutes
	system time =       2.25 seconds =       0.04 minutes
	total time  =          4 seconds =       0.07 minutes
Total time:
	user time   =    2920.26 seconds =      48.67 minutes
	system time =      84.36 seconds =       1.41 minutes
	total time  =        126 seconds =       2.10 minutes

         ----------------------------------------------------------
                                   FINDIF
                     R. A. King and Jonathon Misiewicz
         ---------------------------------------------------------

  Computing second-derivative from energies using projected, 
  symmetry-adapted, cartesian coordinates.

  13 energies passed in, including the reference geometry.
    Using 3-point formula.
    Energy without displacement: -535.9647791846
    Check energies below for precision!
    0: -1        :      -535.9647787677
    0: 1         :      -535.9647789740
    1: -1        :      -535.9647745087
    1: 1         :      -535.9647746337
    2: -1        :      -535.9647766565
    2: 1         :      -535.9647756854
    0: 1, 1: 1   :      -535.9647744318
    0: -1, 1: -1 :      -535.9647741078
    0: 1, 2: 1   :      -535.9647757013
    0: -1, 2: -1 :      -535.9647764592
    1: 1, 2: 1   :      -535.9647770429
    1: -1, 2: -1 :      -535.9647778528

-------------------------------------------------------------


  ==> Harmonic Vibrational Analysis <==

  non-mass-weighted Hessian:       Symmetric? True   Hermitian? True   Lin Dep Dim?  6 (0)
  projection of translations (True) and rotations (True) removed 6 degrees of freedom (6)
  total projector:                 Symmetric? True   Hermitian? True   Lin Dep Dim?  6 (6)
  mass-weighted Hessian:           Symmetric? True   Hermitian? True   Lin Dep Dim?  6 (0)
  pre-proj  low-frequency mode:    0.0000i [cm^-1]
  pre-proj  low-frequency mode:    0.0000i [cm^-1]
  pre-proj  low-frequency mode:    0.0000i [cm^-1]
  pre-proj  low-frequency mode:    0.0000i [cm^-1]
  pre-proj  low-frequency mode:    0.0000  [cm^-1]
  pre-proj  low-frequency mode:    0.0000  [cm^-1]
  pre-proj  all modes:['0.0000i' '0.0000i' '0.0000i' '0.0000i' '0.0000' '0.0000' '789.5522'
 '1284.0733' '3809.7988']
  projected mass-weighted Hessian: Symmetric? True   Hermitian? True   Lin Dep Dim?  6 (6)
  post-proj low-frequency mode:    0.0000i [cm^-1] (TR)
  post-proj low-frequency mode:    0.0000i [cm^-1] (TR)
  post-proj low-frequency mode:    0.0000i [cm^-1] (TR)
  post-proj low-frequency mode:    0.0000i [cm^-1] (TR)
  post-proj low-frequency mode:    0.0000  [cm^-1] (TR)
  post-proj low-frequency mode:    0.0000  [cm^-1] (TR)
  post-proj  all modes:['0.0000i' '0.0000i' '0.0000i' '0.0000i' '0.0000' '0.0000' '789.5522'
 '1284.0733' '3809.7988']

  Vibration                       7                   8                   9           
  Freq [cm^-1]                 789.5522           1284.0733           3809.7988       
  Irrep                           Ap                  Ap                  Ap          
  Reduced mass [u]             17.5424              1.0729              1.0678        
  Force const [mDyne/A]         6.4432              1.0422              9.1318        
  Turning point v=0 [a0]        0.0932              0.2956              0.1720        
  RMS dev v=0 [a0 u^1/2]        0.2761              0.2165              0.1257        
  Char temp [K]               1135.9898           1847.4956           5481.4522       
  ----------------------------------------------------------------------------------
      1   O                0.84  0.19 -0.00   -0.04  0.04 -0.00   -0.00 -0.06  0.00   
      2   H                0.23  0.22  0.00    1.00  0.03 -0.00    0.01  1.00 -0.00   
      3   CL              -0.39 -0.09  0.00   -0.01 -0.02 -0.00    0.00  0.00 -0.00   

  ==> Thermochemistry Components <==

  Entropy, S
    Electronic S            0.000 [cal/(mol K)]        0.000 [J/(mol K)]       0.00000000 [mEh/K] (multiplicity = 1)
    Translational S        37.767 [cal/(mol K)]      158.018 [J/(mol K)]       0.06018576 [mEh/K] (mol. weight = 51.9716 [u], P = 101325.00 [Pa])
    Rotational S           18.374 [cal/(mol K)]       76.876 [J/(mol K)]       0.02928052 [mEh/K] (symmetry no. = 1)
    Vibrational S           0.245 [cal/(mol K)]        1.026 [J/(mol K)]       0.00039067 [mEh/K]
  Total S                  56.386 [cal/(mol K)]      235.919 [J/(mol K)]       0.08985695 [mEh/K]
  Correction S              0.000 [cal/(mol K)]        0.000 [J/(mol K)]       0.00000000 [mEh/K]

  Constant volume heat capacity, Cv
    Electronic Cv           0.000 [cal/(mol K)]        0.000 [J/(mol K)]       0.00000000 [mEh/K]
    Translational Cv        2.981 [cal/(mol K)]       12.472 [J/(mol K)]       0.00475022 [mEh/K]
    Rotational Cv           2.981 [cal/(mol K)]       12.472 [J/(mol K)]       0.00475022 [mEh/K]
    Vibrational Cv          0.824 [cal/(mol K)]        3.448 [J/(mol K)]       0.00131337 [mEh/K]
  Total Cv                  6.786 [cal/(mol K)]       28.392 [J/(mol K)]       0.01081380 [mEh/K]
  Correction Cv             0.000 [cal/(mol K)]        0.000 [J/(mol K)]       0.00000000 [mEh/K]

  Constant pressure heat capacity, Cp
    Electronic Cp           0.000 [cal/(mol K)]        0.000 [J/(mol K)]       0.00000000 [mEh/K]
    Translational Cp        4.968 [cal/(mol K)]       20.786 [J/(mol K)]       0.00791703 [mEh/K]
    Rotational Cp           2.981 [cal/(mol K)]       12.472 [J/(mol K)]       0.00475022 [mEh/K]
    Vibrational Cp          0.824 [cal/(mol K)]        3.448 [J/(mol K)]       0.00131337 [mEh/K]
  Total Cp                  8.773 [cal/(mol K)]       36.706 [J/(mol K)]       0.01398061 [mEh/K]
  Correction Cp             0.000 [cal/(mol K)]        0.000 [J/(mol K)]       0.00000000 [mEh/K]

  ==> Thermochemistry Energy Analysis <==

  Raw electronic energy, E0
  Total E0, Electronic energy at well bottom at 0 [K]                 -535.96477918 [Eh]

  Zero-point energy, ZPE_vib = Sum_i nu_i / 2
    Electronic ZPE          0.000 [kcal/mol]        0.000 [kJ/mol]       0.00000000 [Eh]
    Translational ZPE       0.000 [kcal/mol]        0.000 [kJ/mol]       0.00000000 [Eh]
    Rotational ZPE          0.000 [kcal/mol]        0.000 [kJ/mol]       0.00000000 [Eh]
    Vibrational ZPE         8.411 [kcal/mol]       35.191 [kJ/mol]       0.01340343 [Eh]        2941.712 [cm^-1]
  Correction ZPE            8.411 [kcal/mol]       35.191 [kJ/mol]       0.01340343 [Eh]        2941.712 [cm^-1]
  Total ZPE, Electronic energy at 0 [K]                               -535.95137576 [Eh]

  Thermal Energy, E (includes ZPE)
    Electronic E            0.000 [kcal/mol]        0.000 [kJ/mol]       0.00000000 [Eh]
    Translational E         0.889 [kcal/mol]        3.718 [kJ/mol]       0.00141628 [Eh]
    Rotational E            0.889 [kcal/mol]        3.718 [kJ/mol]       0.00141628 [Eh]
    Vibrational E           8.469 [kcal/mol]       35.436 [kJ/mol]       0.01349684 [Eh]
  Correction E             10.247 [kcal/mol]       42.873 [kJ/mol]       0.01632939 [Eh]
  Total E, Electronic energy at  298.15 [K]                           -535.94844979 [Eh]

  Enthalpy, H_trans = E_trans + k_B * T
    Electronic H            0.000 [kcal/mol]        0.000 [kJ/mol]       0.00000000 [Eh]
    Translational H         1.481 [kcal/mol]        6.197 [kJ/mol]       0.00236046 [Eh]
    Rotational H            0.889 [kcal/mol]        3.718 [kJ/mol]       0.00141628 [Eh]
    Vibrational H           8.469 [kcal/mol]       35.436 [kJ/mol]       0.01349684 [Eh]
  Correction H             10.839 [kcal/mol]       45.352 [kJ/mol]       0.01727358 [Eh]
  Total H, Enthalpy at  298.15 [K]                                    -535.94750561 [Eh]

  Gibbs free energy, G = H - T * S
    Electronic G            0.000 [kcal/mol]        0.000 [kJ/mol]       0.00000000 [Eh]
    Translational G        -9.779 [kcal/mol]      -40.916 [kJ/mol]      -0.01558392 [Eh]
    Rotational G           -4.589 [kcal/mol]      -19.202 [kJ/mol]      -0.00731371 [Eh]
    Vibrational G           8.396 [kcal/mol]       35.130 [kJ/mol]       0.01338036 [Eh]
  Correction G             -5.972 [kcal/mol]      -24.988 [kJ/mol]      -0.00951728 [Eh]
  Total G, Free enthalpy at  298.15 [K]                               -535.97429646 [Eh]

    Psi4 stopped on: Tuesday, 27 April 2021 05:48PM
    Psi4 wall time for execution: 0:02:06.84

*** Psi4 exiting successfully. Buy a developer a beer!
