
    -----------------------------------------------------------------------
          Psi4: An Open-Source Ab Initio Electronic Structure Package
                               Psi4 1.3.2 release

                         Git: Rev {HEAD} ecbda83 


    R. M. Parrish, L. A. Burns, D. G. A. Smith, A. C. Simmonett,
    A. E. DePrince III, E. G. Hohenstein, U. Bozkaya, A. Yu. Sokolov,
    R. Di Remigio, R. M. Richard, J. F. Gonthier, A. M. James,
    H. R. McAlexander, A. Kumar, M. Saitow, X. Wang, B. P. Pritchard,
    P. Verma, H. F. Schaefer III, K. Patkowski, R. A. King, E. F. Valeev,
    F. A. Evangelista, J. M. Turney, T. D. Crawford, and C. D. Sherrill,
    J. Chem. Theory Comput. 13(7) pp 3185--3197 (2017).
    (doi: 10.1021/acs.jctc.7b00174)


                         Additional Contributions by
    P. Kraus, H. Kruse, M. H. Lechner, M. C. Schieber, R. A. Shaw,
    A. Alenaizan, R. Galvelis, Z. L. Glick, S. Lehtola, and J. P. Misiewicz

    -----------------------------------------------------------------------


    Psi4 started on: Tuesday, 27 April 2021 05:47PM

    Process ID: 38138
    Host:       bp1-compute00100.data.bp.acrc.priv
    PSIDATADIR: /work/zw18965/.conda/envs/p4env/share/psi4
    Memory:     500.0 MiB
    Threads:    24
    
  ==> Input File <==

--------------------------------------------------------------------------
memory 144 GB

molecule {
0 1
O 0.0000000000 0.0000000000 0.0000000000
C 0.0000000000 0.0000000000 1.1584320400
S 0.0000000000 0.0000000000 2.7252829900
}

set dynamic_level 1
set basis cc-pV(T+d)Z
 
optimize("wB97M-V")
frequencies("wB97M-V")
--------------------------------------------------------------------------

  Memory set to 134.110 GiB by Python driver.
gradient() will perform gradient computation by finite difference of analytic energies.

         ----------------------------------------------------------
                                   FINDIF
                     R. A. King and Jonathon Misiewicz
         ---------------------------------------------------------

  Using finite-differences of energies to determine gradients.
    Generating geometries for use with 3-point formula.
    Displacement size will be 5.00e-03.
    Number of atoms is 3.
    Number of symmetric SALCs is 2.
    Translations projected? 1. Rotations projected? 1.
    Number of geometries (including reference) is 5.

  //>>>>>>>>>>>>>>>>>>>>>>>>>>>>>>>>>>>//
  //    Loading displacement 1 of 5    //
  //<<<<<<<<<<<<<<<<<<<<<<<<<<<<<<<<<<<//

*** tstart() called on bp1-compute00100.data.bp.acrc.priv
*** at Tue Apr 27 17:47:05 2021

   => Loading Basis Set <=

    Name: CC-PV(T+D)Z
    Role: ORBITAL
    Keyword: BASIS
    atoms 1 entry O          line   271 file /work/zw18965/.conda/envs/p4env/share/psi4/basis/cc-pv_tpd_z.gbs 
    atoms 2 entry C          line   195 file /work/zw18965/.conda/envs/p4env/share/psi4/basis/cc-pv_tpd_z.gbs 
    atoms 3 entry S          line   788 file /work/zw18965/.conda/envs/p4env/share/psi4/basis/cc-pv_tpd_z.gbs 


         ---------------------------------------------------------
                                   SCF
               by Justin Turney, Rob Parrish, Andy Simmonett
                          and Daniel G. A. Smith
                              RKS Reference
                       24 Threads, 137329 MiB Core
         ---------------------------------------------------------

  ==> Geometry <==

    Molecular point group: c2v
    Full point group: C_inf_v

    Geometry (in Angstrom), charge = 0, multiplicity = 1:

       Center              X                  Y                   Z               Mass       
    ------------   -----------------  -----------------  -----------------  -----------------
         O            0.000000000000     0.000000000000    -1.684829158394    15.994914619570
         C            0.000000000000     0.000000000000    -0.526397118394    12.000000000000
         S            0.000000000000     0.000000000000     1.040453831606    31.972071174400

  Running in c2v symmetry.

  Rotational constants: A = ************  B =      0.20227  C =      0.20227 [cm^-1]
  Rotational constants: A = ************  B =   6064.04409  C =   6064.04409 [MHz]
  Nuclear repulsion =   79.203173565559240

  Charge       = 0
  Multiplicity = 1
  Electrons    = 30
  Nalpha       = 15
  Nbeta        = 15

  ==> Algorithm <==

  SCF Algorithm Type is DF.
  DIIS enabled.
  MOM disabled.
  Fractional occupation disabled.
  Guess Type is SAD.
  Energy threshold   = 1.00e-08
  Density threshold  = 1.00e-08
  Integral threshold = 0.00e+00

  ==> Primary Basis <==

  Basis Set: CC-PV(T+D)Z
    Blend: CC-PV(T+D)Z
    Number of shells: 33
    Number of basis function: 99
    Number of Cartesian functions: 115
    Spherical Harmonics?: true
    Max angular momentum: 3

  ==> DFT Potential <==

   => Composite Functional: WB97M-V <= 

    wB97M-V Hyb-GGA Exchange-Correlation Functional

    N. Mardirossian and M. Head-Gordon, J. Chem. Phys. 144, 214110 (2016)

    Deriv               =              1
    GGA                 =           TRUE
    Meta                =           TRUE

    Exchange Hybrid     =           TRUE
    MP2 Hybrid          =          FALSE

   => Exchange-Correlation Functionals <=

    1.0000   wB97M-V exchange-correlation functional

   => Exact (HF) Exchange <=

    0.8500            HF,LR [omega = 0.3000]
    0.1500               HF 

   => VV10 Non-Local Parameters <=

    VV10 B              =     6.0000E+00
    VV10 C              =     1.0000E-02

   => Molecular Quadrature <=

    Radial Scheme          =       TREUTLER
    Pruning Scheme         =           FLAT
    Nuclear Scheme         =       TREUTLER

    BS radius alpha        =              1
    Pruning alpha          =              1
    Radial Points          =             75
    Spherical Points       =            302
    Total Points           =          65087
    Total Blocks           =            567
    Max Points             =            256
    Max Functions          =             99

   => Loading Basis Set <=

    Name: (CC-PV(T+D)Z AUX)
    Role: JKFIT
    Keyword: DF_BASIS_SCF
    atoms 1 entry O          line   229 file /work/zw18965/.conda/envs/p4env/share/psi4/basis/cc-pvtz-jkfit.gbs 
    atoms 2 entry C          line   125 file /work/zw18965/.conda/envs/p4env/share/psi4/basis/cc-pvtz-jkfit.gbs 
    atoms 3 entry S          line   613 file /work/zw18965/.conda/envs/p4env/share/psi4/basis/cc-pvtz-jkfit.gbs 

  ==> Pre-Iterations <==

   -------------------------------------------------------
    Irrep   Nso     Nmo     Nalpha   Nbeta   Ndocc  Nsocc
   -------------------------------------------------------
     A1        43      43       0       0       0       0
     A2        10      10       0       0       0       0
     B1        23      23       0       0       0       0
     B2        23      23       0       0       0       0
   -------------------------------------------------------
    Total      99      99      15      15      15       0
   -------------------------------------------------------

  ==> Integral Setup <==

  ==> DiskDFJK: Density-Fitted J/K Matrices <==

    J tasked:                  Yes
    K tasked:                  Yes
    wK tasked:                 Yes
    Omega:               3.000E-01
    OpenMP threads:             24
    Integrals threads:          24
    Memory [MiB]:           102580
    Algorithm:                Core
    Integral Cache:           NONE
    Schwarz Cutoff:          1E-12
    Fitting Condition:       1E-10

   => Auxiliary Basis Set <=

  Basis Set: (CC-PV(T+D)Z AUX)
    Blend: CC-PVTZ-JKFIT
    Number of shells: 87
    Number of basis function: 279
    Number of Cartesian functions: 337
    Spherical Harmonics?: true
    Max angular momentum: 4

  Cached 100.0% of DFT collocation blocks in 0.406 [GiB].

  Minimum eigenvalue in the overlap matrix is 1.2362837433E-03.
  Using Symmetric Orthogonalization.

  SCF Guess: Superposition of Atomic Densities via on-the-fly atomic UHF.

  ==> Iterations <==

                           Total Energy        Delta E     RMS |[F,P]|

   @DF-RKS iter SAD:  -511.02003332481797   -5.11020e+02   0.00000e+00 
   @DF-RKS iter   1:  -511.48006548745087   -4.60032e-01   8.48070e-03 DIIS
   @DF-RKS iter   2:  -511.41817936562666    6.18861e-02   1.15570e-02 DIIS
   @DF-RKS iter   3:  -511.55089016689408   -1.32711e-01   1.28640e-03 DIIS
   @DF-RKS iter   4:  -511.55296191860515   -2.07175e-03   2.88317e-04 DIIS
   @DF-RKS iter   5:  -511.55308497917190   -1.23061e-04   1.30859e-04 DIIS
   @DF-RKS iter   6:  -511.55311889292375   -3.39138e-05   4.12884e-05 DIIS
   @DF-RKS iter   7:  -511.55312250191577   -3.60899e-06   6.18828e-06 DIIS
   @DF-RKS iter   8:  -511.55312265021229   -1.48297e-07   1.05119e-06 DIIS
   @DF-RKS iter   9:  -511.55312265377421   -3.56192e-09   3.16007e-07 DIIS
   @DF-RKS iter  10:  -511.55312265394065   -1.66438e-10   5.83676e-08 DIIS
   @DF-RKS iter  11:  -511.55312265394542   -4.77485e-12   7.70036e-09 DIIS
  Energy and wave function converged.


  ==> Post-Iterations <==

    Orbital Energies [Eh]
    ---------------------

    Doubly Occupied:                                                      

       1A1   -89.234460     2A1   -19.421128     3A1   -10.514959  
       4A1    -8.150210     5A1    -6.060636     1B2    -6.054500  
       1B1    -6.054500     6A1    -1.273302     7A1    -0.942207  
       8A1    -0.667329     2B1    -0.590355     2B2    -0.590355  
       9A1    -0.574423     3B1    -0.393641     3B2    -0.393641  

    Virtual:                                                              

       4B2     0.053201     4B1     0.053201    10A1     0.127242  
      11A1     0.189736    12A1     0.301414     5B1     0.338016  
       5B2     0.338016     6B2     0.402524     6B1     0.402524  
       1A2     0.409121    13A1     0.409122    14A1     0.419416  
       7B1     0.548661     7B2     0.548661    15A1     0.590943  
      16A1     0.699715    17A1     0.725367    18A1     0.744093  
       2A2     0.744093     8B2     0.748876     8B1     0.748876  
      19A1     1.080146     9B2     1.194096     9B1     1.194096  
      20A1     1.225684    21A1     1.504660    22A1     1.508946  
       3A2     1.508952    10B2     1.550461    10B1     1.550461  
       4A2     1.561333    23A1     1.561335    11B1     1.720776  
      11B2     1.720776     5A2     1.857816    24A1     1.857820  
      25A1     1.904790    12B2     1.941074    12B1     1.941074  
      26A1     1.956652    13B2     1.969437    13B1     1.969437  
      14B1     2.165212    14B2     2.165212    27A1     2.221311  
      15B2     2.499727    15B1     2.499727    28A1     2.581123  
      16B2     2.691420    16B1     2.691420    29A1     2.835120  
       6A2     2.961794    30A1     2.961805    31A1     3.046935  
       7A2     3.046937    17B1     3.128135    17B2     3.128135  
      32A1     3.579057    18B2     3.680338    18B1     3.680338  
      33A1     3.834976    19B2     4.245141    19B1     4.245141  
      34A1     4.751435    35A1     5.063249    20B2     5.205163  
      20B1     5.205163    36A1     5.586970     8A2     5.586974  
       9A2     6.358338    37A1     6.358348    21B2     6.425174  
      21B1     6.425174    38A1     6.474086    39A1     6.778467  
      10A2     6.778499    22B1     6.857122    22B2     6.857122  
      40A1     7.015201    41A1     7.161232    23B2     7.165619  
      23B1     7.165619    42A1     8.722301    43A1    13.951922  

    Final Occupation by Irrep:
             A1    A2    B1    B2 
    DOCC [     9,    0,    3,    3 ]

  @DF-RKS Final Energy:  -511.55312265394542

   => Energetics <=

    Nuclear Repulsion Energy =             79.2031735655592399
    One-Electron Energy =                -860.9501951690757551
    Two-Electron Energy =                 299.9741810903728947
    DFT Exchange-Correlation Energy =     -29.9047711407707020
    Empirical Dispersion Energy =           0.0000000000000000
    VV10 Nonlocal Energy =                  0.1244889999688828
    Total Energy =                       -511.5531226539454224

Computation Completed


Properties will be evaluated at   0.000000,   0.000000,   0.000000 [a0]

Properties computed using the SCF density matrix

  Nuclear Dipole Moment: [e a0]
     X:     0.0000      Y:     0.0000      Z:     0.0194

  Electronic Dipole Moment: [e a0]
     X:     0.0000      Y:     0.0000      Z:     0.2263

  Dipole Moment: [e a0]
     X:     0.0000      Y:     0.0000      Z:     0.2457     Total:     0.2457

  Dipole Moment: [D]
     X:     0.0000      Y:     0.0000      Z:     0.6244     Total:     0.6244


*** tstop() called on bp1-compute00100.data.bp.acrc.priv at Tue Apr 27 17:47:09 2021
Module time:
	user time   =      83.83 seconds =       1.40 minutes
	system time =       4.41 seconds =       0.07 minutes
	total time  =          4 seconds =       0.07 minutes
Total time:
	user time   =      83.83 seconds =       1.40 minutes
	system time =       4.41 seconds =       0.07 minutes
	total time  =          4 seconds =       0.07 minutes

  //>>>>>>>>>>>>>>>>>>>>>>>>>>>>>>>>>>>//
  //    Loading displacement 2 of 5    //
  //<<<<<<<<<<<<<<<<<<<<<<<<<<<<<<<<<<<//

*** tstart() called on bp1-compute00100.data.bp.acrc.priv
*** at Tue Apr 27 17:47:09 2021

   => Loading Basis Set <=

    Name: CC-PV(T+D)Z
    Role: ORBITAL
    Keyword: BASIS
    atoms 1 entry O          line   271 file /work/zw18965/.conda/envs/p4env/share/psi4/basis/cc-pv_tpd_z.gbs 
    atoms 2 entry C          line   195 file /work/zw18965/.conda/envs/p4env/share/psi4/basis/cc-pv_tpd_z.gbs 
    atoms 3 entry S          line   788 file /work/zw18965/.conda/envs/p4env/share/psi4/basis/cc-pv_tpd_z.gbs 


         ---------------------------------------------------------
                                   SCF
               by Justin Turney, Rob Parrish, Andy Simmonett
                          and Daniel G. A. Smith
                              RKS Reference
                       24 Threads, 137329 MiB Core
         ---------------------------------------------------------

  ==> Geometry <==

    Molecular point group: c2v
    Full point group: C_inf_v

    Geometry (in Angstrom), charge = 0, multiplicity = 1:

       Center              X                  Y                   Z               Mass       
    ------------   -----------------  -----------------  -----------------  -----------------
         O            0.000000000000     0.000000000000    -1.685395674844    15.994914619570
         C            0.000000000000     0.000000000000    -0.526191047085    12.000000000000
         S            0.000000000000     0.000000000000     1.040659902915    31.972071174400

  Running in c2v symmetry.

  Rotational constants: A = ************  B =      0.20217  C =      0.20217 [cm^-1]
  Rotational constants: A = ************  B =   6061.01523  C =   6061.01523 [MHz]
  Nuclear repulsion =   79.181515997036001

  Charge       = 0
  Multiplicity = 1
  Electrons    = 30
  Nalpha       = 15
  Nbeta        = 15

  ==> Algorithm <==

  SCF Algorithm Type is DF.
  DIIS enabled.
  MOM disabled.
  Fractional occupation disabled.
  Guess Type is SAD.
  Energy threshold   = 1.00e-08
  Density threshold  = 1.00e-08
  Integral threshold = 0.00e+00

  ==> Primary Basis <==

  Basis Set: CC-PV(T+D)Z
    Blend: CC-PV(T+D)Z
    Number of shells: 33
    Number of basis function: 99
    Number of Cartesian functions: 115
    Spherical Harmonics?: true
    Max angular momentum: 3

  ==> DFT Potential <==

   => Composite Functional: WB97M-V <= 

    wB97M-V Hyb-GGA Exchange-Correlation Functional

    N. Mardirossian and M. Head-Gordon, J. Chem. Phys. 144, 214110 (2016)

    Deriv               =              1
    GGA                 =           TRUE
    Meta                =           TRUE

    Exchange Hybrid     =           TRUE
    MP2 Hybrid          =          FALSE

   => Exchange-Correlation Functionals <=

    1.0000   wB97M-V exchange-correlation functional

   => Exact (HF) Exchange <=

    0.8500            HF,LR [omega = 0.3000]
    0.1500               HF 

   => VV10 Non-Local Parameters <=

    VV10 B              =     6.0000E+00
    VV10 C              =     1.0000E-02

   => Molecular Quadrature <=

    Radial Scheme          =       TREUTLER
    Pruning Scheme         =           FLAT
    Nuclear Scheme         =       TREUTLER

    BS radius alpha        =              1
    Pruning alpha          =              1
    Radial Points          =             75
    Spherical Points       =            302
    Total Points           =          65087
    Total Blocks           =            566
    Max Points             =            256
    Max Functions          =             99

   => Loading Basis Set <=

    Name: (CC-PV(T+D)Z AUX)
    Role: JKFIT
    Keyword: DF_BASIS_SCF
    atoms 1 entry O          line   229 file /work/zw18965/.conda/envs/p4env/share/psi4/basis/cc-pvtz-jkfit.gbs 
    atoms 2 entry C          line   125 file /work/zw18965/.conda/envs/p4env/share/psi4/basis/cc-pvtz-jkfit.gbs 
    atoms 3 entry S          line   613 file /work/zw18965/.conda/envs/p4env/share/psi4/basis/cc-pvtz-jkfit.gbs 

  ==> Pre-Iterations <==

   -------------------------------------------------------
    Irrep   Nso     Nmo     Nalpha   Nbeta   Ndocc  Nsocc
   -------------------------------------------------------
     A1        43      43       0       0       0       0
     A2        10      10       0       0       0       0
     B1        23      23       0       0       0       0
     B2        23      23       0       0       0       0
   -------------------------------------------------------
    Total      99      99      15      15      15       0
   -------------------------------------------------------

  ==> Integral Setup <==

  ==> DiskDFJK: Density-Fitted J/K Matrices <==

    J tasked:                  Yes
    K tasked:                  Yes
    wK tasked:                 Yes
    Omega:               3.000E-01
    OpenMP threads:             24
    Integrals threads:          24
    Memory [MiB]:           102580
    Algorithm:                Core
    Integral Cache:           NONE
    Schwarz Cutoff:          1E-12
    Fitting Condition:       1E-10

   => Auxiliary Basis Set <=

  Basis Set: (CC-PV(T+D)Z AUX)
    Blend: CC-PVTZ-JKFIT
    Number of shells: 87
    Number of basis function: 279
    Number of Cartesian functions: 337
    Spherical Harmonics?: true
    Max angular momentum: 4

  Cached 100.0% of DFT collocation blocks in 0.407 [GiB].

  Minimum eigenvalue in the overlap matrix is 1.2363791443E-03.
  Using Symmetric Orthogonalization.

  SCF Guess: Superposition of Atomic Densities via on-the-fly atomic UHF.

  ==> Iterations <==

                           Total Energy        Delta E     RMS |[F,P]|

   @DF-RKS iter SAD:  -511.01865276475610   -5.11019e+02   0.00000e+00 
   @DF-RKS iter   1:  -511.47998270856851   -4.61330e-01   8.48200e-03 DIIS
   @DF-RKS iter   2:  -511.41761526494361    6.23674e-02   1.15772e-02 DIIS
   @DF-RKS iter   3:  -511.55086845205017   -1.33253e-01   1.28613e-03 DIIS
   @DF-RKS iter   4:  -511.55293971040834   -2.07126e-03   2.88758e-04 DIIS
   @DF-RKS iter   5:  -511.55306300108560   -1.23291e-04   1.31087e-04 DIIS
   @DF-RKS iter   6:  -511.55309703942174   -3.40383e-05   4.13348e-05 DIIS
   @DF-RKS iter   7:  -511.55310065670500   -3.61728e-06   6.19993e-06 DIIS
   @DF-RKS iter   8:  -511.55310080558525   -1.48880e-07   1.05277e-06 DIIS
   @DF-RKS iter   9:  -511.55310080915916   -3.57392e-09   3.17274e-07 DIIS
   @DF-RKS iter  10:  -511.55310080932639   -1.67233e-10   5.87953e-08 DIIS
   @DF-RKS iter  11:  -511.55310080933151   -5.11591e-12   7.74816e-09 DIIS
  Energy and wave function converged.


  ==> Post-Iterations <==

    Orbital Energies [Eh]
    ---------------------

    Doubly Occupied:                                                      

       1A1   -89.234591     2A1   -19.421078     3A1   -10.515089  
       4A1    -8.150335     5A1    -6.060758     1B2    -6.054628  
       1B1    -6.054628     6A1    -1.272776     7A1    -0.942287  
       8A1    -0.667243     2B2    -0.590046     2B1    -0.590046  
       9A1    -0.574442     3B2    -0.393706     3B1    -0.393706  

    Virtual:                                                              

       4B2     0.052997     4B1     0.052997    10A1     0.127142  
      11A1     0.189737    12A1     0.301370     5B2     0.338014  
       5B1     0.338014     6B1     0.402540     6B2     0.402540  
       1A2     0.409044    13A1     0.409045    14A1     0.419307  
       7B2     0.548520     7B1     0.548520    15A1     0.590948  
      16A1     0.699623    17A1     0.724860    18A1     0.744130  
       2A2     0.744130     8B1     0.748974     8B2     0.748974  
      19A1     1.079674     9B1     1.193741     9B2     1.193741  
      20A1     1.225692    21A1     1.504512    22A1     1.508865  
       3A2     1.508871    10B2     1.550317    10B1     1.550317  
       4A2     1.561300    23A1     1.561303    11B1     1.720677  
      11B2     1.720677     5A2     1.857609    24A1     1.857612  
      25A1     1.904721    12B2     1.940861    12B1     1.940861  
      26A1     1.956323    13B2     1.969313    13B1     1.969313  
      14B1     2.165343    14B2     2.165343    27A1     2.221729  
      15B2     2.499880    15B1     2.499880    28A1     2.580608  
      16B2     2.691459    16B1     2.691459    29A1     2.834267  
       6A2     2.961874    30A1     2.961885    31A1     3.046566  
       7A2     3.046568    17B1     3.127863    17B2     3.127863  
      32A1     3.578705    18B1     3.679608    18B2     3.679608  
      33A1     3.834704    19B1     4.244293    19B2     4.244293  
      34A1     4.748619    35A1     5.063649    20B2     5.205227  
      20B1     5.205227    36A1     5.585974     8A2     5.585978  
       9A2     6.358304    37A1     6.358313    21B1     6.423399  
      21B2     6.423399    38A1     6.472496    39A1     6.778332  
      10A2     6.778364    22B1     6.857021    22B2     6.857021  
      40A1     7.015570    41A1     7.158778    23B2     7.164816  
      23B1     7.164816    42A1     8.722107    43A1    13.934979  

    Final Occupation by Irrep:
             A1    A2    B1    B2 
    DOCC [     9,    0,    3,    3 ]

  @DF-RKS Final Energy:  -511.55310080933151

   => Energetics <=

    Nuclear Repulsion Energy =             79.1815159970360014
    One-Electron Energy =                -860.9077689470897212
    Two-Electron Energy =                 299.9528203173839529
    DFT Exchange-Correlation Energy =     -29.9041573746158065
    Empirical Dispersion Energy =           0.0000000000000000
    VV10 Nonlocal Energy =                  0.1244891979541274
    Total Energy =                       -511.5531008093315108

Computation Completed


Properties will be evaluated at   0.000000,   0.000000,   0.000000 [a0]

Properties computed using the SCF density matrix

  Nuclear Dipole Moment: [e a0]
     X:     0.0000      Y:     0.0000      Z:     0.0194

  Electronic Dipole Moment: [e a0]
     X:     0.0000      Y:     0.0000      Z:     0.2289

  Dipole Moment: [e a0]
     X:     0.0000      Y:     0.0000      Z:     0.2483     Total:     0.2483

  Dipole Moment: [D]
     X:     0.0000      Y:     0.0000      Z:     0.6310     Total:     0.6310


*** tstop() called on bp1-compute00100.data.bp.acrc.priv at Tue Apr 27 17:47:13 2021
Module time:
	user time   =      85.21 seconds =       1.42 minutes
	system time =       3.45 seconds =       0.06 minutes
	total time  =          4 seconds =       0.07 minutes
Total time:
	user time   =     169.18 seconds =       2.82 minutes
	system time =       7.86 seconds =       0.13 minutes
	total time  =          8 seconds =       0.13 minutes

  //>>>>>>>>>>>>>>>>>>>>>>>>>>>>>>>>>>>//
  //    Loading displacement 3 of 5    //
  //<<<<<<<<<<<<<<<<<<<<<<<<<<<<<<<<<<<//

*** tstart() called on bp1-compute00100.data.bp.acrc.priv
*** at Tue Apr 27 17:47:13 2021

   => Loading Basis Set <=

    Name: CC-PV(T+D)Z
    Role: ORBITAL
    Keyword: BASIS
    atoms 1 entry O          line   271 file /work/zw18965/.conda/envs/p4env/share/psi4/basis/cc-pv_tpd_z.gbs 
    atoms 2 entry C          line   195 file /work/zw18965/.conda/envs/p4env/share/psi4/basis/cc-pv_tpd_z.gbs 
    atoms 3 entry S          line   788 file /work/zw18965/.conda/envs/p4env/share/psi4/basis/cc-pv_tpd_z.gbs 


         ---------------------------------------------------------
                                   SCF
               by Justin Turney, Rob Parrish, Andy Simmonett
                          and Daniel G. A. Smith
                              RKS Reference
                       24 Threads, 137329 MiB Core
         ---------------------------------------------------------

  ==> Geometry <==

    Molecular point group: c2v
    Full point group: C_inf_v

    Geometry (in Angstrom), charge = 0, multiplicity = 1:

       Center              X                  Y                   Z               Mass       
    ------------   -----------------  -----------------  -----------------  -----------------
         O            0.000000000000     0.000000000000    -1.684262641943    15.994914619570
         C            0.000000000000     0.000000000000    -0.526603189702    12.000000000000
         S            0.000000000000     0.000000000000     1.040247760298    31.972071174400

  Running in c2v symmetry.

  Rotational constants: A = ************  B =      0.20238  C =      0.20238 [cm^-1]
  Rotational constants: A = ************  B =   6067.07496  C =   6067.07496 [MHz]
  Nuclear repulsion =   79.224854634420780

  Charge       = 0
  Multiplicity = 1
  Electrons    = 30
  Nalpha       = 15
  Nbeta        = 15

  ==> Algorithm <==

  SCF Algorithm Type is DF.
  DIIS enabled.
  MOM disabled.
  Fractional occupation disabled.
  Guess Type is SAD.
  Energy threshold   = 1.00e-08
  Density threshold  = 1.00e-08
  Integral threshold = 0.00e+00

  ==> Primary Basis <==

  Basis Set: CC-PV(T+D)Z
    Blend: CC-PV(T+D)Z
    Number of shells: 33
    Number of basis function: 99
    Number of Cartesian functions: 115
    Spherical Harmonics?: true
    Max angular momentum: 3

  ==> DFT Potential <==

   => Composite Functional: WB97M-V <= 

    wB97M-V Hyb-GGA Exchange-Correlation Functional

    N. Mardirossian and M. Head-Gordon, J. Chem. Phys. 144, 214110 (2016)

    Deriv               =              1
    GGA                 =           TRUE
    Meta                =           TRUE

    Exchange Hybrid     =           TRUE
    MP2 Hybrid          =          FALSE

   => Exchange-Correlation Functionals <=

    1.0000   wB97M-V exchange-correlation functional

   => Exact (HF) Exchange <=

    0.8500            HF,LR [omega = 0.3000]
    0.1500               HF 

   => VV10 Non-Local Parameters <=

    VV10 B              =     6.0000E+00
    VV10 C              =     1.0000E-02

   => Molecular Quadrature <=

    Radial Scheme          =       TREUTLER
    Pruning Scheme         =           FLAT
    Nuclear Scheme         =       TREUTLER

    BS radius alpha        =              1
    Pruning alpha          =              1
    Radial Points          =             75
    Spherical Points       =            302
    Total Points           =          65087
    Total Blocks           =            567
    Max Points             =            256
    Max Functions          =             99

   => Loading Basis Set <=

    Name: (CC-PV(T+D)Z AUX)
    Role: JKFIT
    Keyword: DF_BASIS_SCF
    atoms 1 entry O          line   229 file /work/zw18965/.conda/envs/p4env/share/psi4/basis/cc-pvtz-jkfit.gbs 
    atoms 2 entry C          line   125 file /work/zw18965/.conda/envs/p4env/share/psi4/basis/cc-pvtz-jkfit.gbs 
    atoms 3 entry S          line   613 file /work/zw18965/.conda/envs/p4env/share/psi4/basis/cc-pvtz-jkfit.gbs 

  ==> Pre-Iterations <==

   -------------------------------------------------------
    Irrep   Nso     Nmo     Nalpha   Nbeta   Ndocc  Nsocc
   -------------------------------------------------------
     A1        43      43       0       0       0       0
     A2        10      10       0       0       0       0
     B1        23      23       0       0       0       0
     B2        23      23       0       0       0       0
   -------------------------------------------------------
    Total      99      99      15      15      15       0
   -------------------------------------------------------

  ==> Integral Setup <==

  ==> DiskDFJK: Density-Fitted J/K Matrices <==

    J tasked:                  Yes
    K tasked:                  Yes
    wK tasked:                 Yes
    Omega:               3.000E-01
    OpenMP threads:             24
    Integrals threads:          24
    Memory [MiB]:           102580
    Algorithm:                Core
    Integral Cache:           NONE
    Schwarz Cutoff:          1E-12
    Fitting Condition:       1E-10

   => Auxiliary Basis Set <=

  Basis Set: (CC-PV(T+D)Z AUX)
    Blend: CC-PVTZ-JKFIT
    Number of shells: 87
    Number of basis function: 279
    Number of Cartesian functions: 337
    Spherical Harmonics?: true
    Max angular momentum: 4

  Cached 100.0% of DFT collocation blocks in 0.406 [GiB].

  Minimum eigenvalue in the overlap matrix is 1.2361888456E-03.
  Using Symmetric Orthogonalization.

  SCF Guess: Superposition of Atomic Densities via on-the-fly atomic UHF.

  ==> Iterations <==

                           Total Energy        Delta E     RMS |[F,P]|

   @DF-RKS iter SAD:  -511.02140895093379   -5.11021e+02   0.00000e+00 
   @DF-RKS iter   1:  -511.48014504420030   -4.58736e-01   8.47944e-03 DIIS
   @DF-RKS iter   2:  -511.41873641317028    6.14086e-02   1.15370e-02 DIIS
   @DF-RKS iter   3:  -511.55090964646240   -1.32173e-01   1.28666e-03 DIIS
   @DF-RKS iter   4:  -511.55298187076795   -2.07222e-03   2.87878e-04 DIIS
   @DF-RKS iter   5:  -511.55310470497398   -1.22834e-04   1.30630e-04 DIIS
   @DF-RKS iter   6:  -511.55313849401404   -3.37890e-05   4.12431e-05 DIIS
   @DF-RKS iter   7:  -511.55314209489529   -3.60088e-06   6.17670e-06 DIIS
   @DF-RKS iter   8:  -511.55314224260809   -1.47713e-07   1.04962e-06 DIIS
   @DF-RKS iter   9:  -511.55314224615813   -3.55004e-09   3.14747e-07 DIIS
   @DF-RKS iter  10:  -511.55314224632326   -1.65130e-10   5.79436e-08 DIIS
   @DF-RKS iter  11:  -511.55314224632792   -4.66116e-12   7.65305e-09 DIIS
  Energy and wave function converged.


  ==> Post-Iterations <==

    Orbital Energies [Eh]
    ---------------------

    Doubly Occupied:                                                      

       1A1   -89.234329     2A1   -19.421178     3A1   -10.514828  
       4A1    -8.150085     5A1    -6.060514     1B1    -6.054373  
       1B2    -6.054373     6A1    -1.273828     7A1    -0.942126  
       8A1    -0.667415     2B1    -0.590664     2B2    -0.590664  
       9A1    -0.574404     3B1    -0.393576     3B2    -0.393576  

    Virtual:                                                              

       4B1     0.053407     4B2     0.053407    10A1     0.127341  
      11A1     0.189735    12A1     0.301458     5B1     0.338018  
       5B2     0.338018     6B1     0.402507     6B2     0.402507  
       1A2     0.409198    13A1     0.409199    14A1     0.419524  
       7B1     0.548802     7B2     0.548802    15A1     0.590937  
      16A1     0.699808    17A1     0.725875    18A1     0.744056  
       2A2     0.744056     8B2     0.748779     8B1     0.748779  
      19A1     1.080619     9B2     1.194450     9B1     1.194450  
      20A1     1.225679    21A1     1.504810    22A1     1.509027  
       3A2     1.509033    10B1     1.550604    10B2     1.550604  
       4A2     1.561366    23A1     1.561368    11B1     1.720874  
      11B2     1.720874     5A2     1.858024    24A1     1.858027  
      25A1     1.904859    12B1     1.941286    12B2     1.941286  
      26A1     1.956981    13B1     1.969561    13B2     1.969561  
      14B2     2.165079    14B1     2.165079    27A1     2.220893  
      15B1     2.499573    15B2     2.499573    28A1     2.581640  
      16B2     2.691380    16B1     2.691380    29A1     2.835974  
       6A2     2.961714    30A1     2.961724    31A1     3.047304  
       7A2     3.047306    17B2     3.128409    17B1     3.128409  
      32A1     3.579408    18B2     3.681069    18B1     3.681069  
      33A1     3.835249    19B2     4.245988    19B1     4.245988  
      34A1     4.754246    35A1     5.062857    20B2     5.205100  
      20B1     5.205100    36A1     5.587968     8A2     5.587972  
       9A2     6.358373    37A1     6.358383    21B2     6.426947  
      21B1     6.426947    38A1     6.475678    39A1     6.778603  
      10A2     6.778635    22B2     6.857221    22B1     6.857221  
      40A1     7.014839    41A1     7.163697    23B1     7.166426  
      23B2     7.166426    42A1     8.722495    43A1    13.968882  

    Final Occupation by Irrep:
             A1    A2    B1    B2 
    DOCC [     9,    0,    3,    3 ]

  @DF-RKS Final Energy:  -511.55314224632792

   => Energetics <=

    Nuclear Repulsion Energy =             79.2248546344207796
    One-Electron Energy =                -860.9926618473909912
    Two-Electron Energy =                 299.9955622589391169
    DFT Exchange-Correlation Energy =     -29.9053860957030437
    Empirical Dispersion Energy =           0.0000000000000000
    VV10 Nonlocal Energy =                  0.1244888034061218
    Total Energy =                       -511.5531422463279796

Computation Completed


Properties will be evaluated at   0.000000,   0.000000,   0.000000 [a0]

Properties computed using the SCF density matrix

  Nuclear Dipole Moment: [e a0]
     X:     0.0000      Y:     0.0000      Z:     0.0194

  Electronic Dipole Moment: [e a0]
     X:     0.0000      Y:     0.0000      Z:     0.2237

  Dipole Moment: [e a0]
     X:     0.0000      Y:     0.0000      Z:     0.2431     Total:     0.2431

  Dipole Moment: [D]
     X:     0.0000      Y:     0.0000      Z:     0.6178     Total:     0.6178


*** tstop() called on bp1-compute00100.data.bp.acrc.priv at Tue Apr 27 17:47:17 2021
Module time:
	user time   =      80.01 seconds =       1.33 minutes
	system time =       2.75 seconds =       0.05 minutes
	total time  =          4 seconds =       0.07 minutes
Total time:
	user time   =     249.34 seconds =       4.16 minutes
	system time =      10.61 seconds =       0.18 minutes
	total time  =         12 seconds =       0.20 minutes

  //>>>>>>>>>>>>>>>>>>>>>>>>>>>>>>>>>>>//
  //    Loading displacement 4 of 5    //
  //<<<<<<<<<<<<<<<<<<<<<<<<<<<<<<<<<<<//

*** tstart() called on bp1-compute00100.data.bp.acrc.priv
*** at Tue Apr 27 17:47:17 2021

   => Loading Basis Set <=

    Name: CC-PV(T+D)Z
    Role: ORBITAL
    Keyword: BASIS
    atoms 1 entry O          line   271 file /work/zw18965/.conda/envs/p4env/share/psi4/basis/cc-pv_tpd_z.gbs 
    atoms 2 entry C          line   195 file /work/zw18965/.conda/envs/p4env/share/psi4/basis/cc-pv_tpd_z.gbs 
    atoms 3 entry S          line   788 file /work/zw18965/.conda/envs/p4env/share/psi4/basis/cc-pv_tpd_z.gbs 


         ---------------------------------------------------------
                                   SCF
               by Justin Turney, Rob Parrish, Andy Simmonett
                          and Daniel G. A. Smith
                              RKS Reference
                       24 Threads, 137329 MiB Core
         ---------------------------------------------------------

  ==> Geometry <==

    Molecular point group: c2v
    Full point group: C_inf_v

    Geometry (in Angstrom), charge = 0, multiplicity = 1:

       Center              X                  Y                   Z               Mass       
    ------------   -----------------  -----------------  -----------------  -----------------
         O            0.000000000000     0.000000000000    -1.684829158394    15.994914619570
         C            0.000000000000     0.000000000000    -0.527048412935    12.000000000000
         S            0.000000000000     0.000000000000     1.040698280408    31.972071174400

  Running in c2v symmetry.

  Rotational constants: A = ************  B =      0.20222  C =      0.20222 [cm^-1]
  Rotational constants: A = ************  B =   6062.26204  C =   6062.26204 [MHz]
  Nuclear repulsion =   79.194754216267100

  Charge       = 0
  Multiplicity = 1
  Electrons    = 30
  Nalpha       = 15
  Nbeta        = 15

  ==> Algorithm <==

  SCF Algorithm Type is DF.
  DIIS enabled.
  MOM disabled.
  Fractional occupation disabled.
  Guess Type is SAD.
  Energy threshold   = 1.00e-08
  Density threshold  = 1.00e-08
  Integral threshold = 0.00e+00

  ==> Primary Basis <==

  Basis Set: CC-PV(T+D)Z
    Blend: CC-PV(T+D)Z
    Number of shells: 33
    Number of basis function: 99
    Number of Cartesian functions: 115
    Spherical Harmonics?: true
    Max angular momentum: 3

  ==> DFT Potential <==

   => Composite Functional: WB97M-V <= 

    wB97M-V Hyb-GGA Exchange-Correlation Functional

    N. Mardirossian and M. Head-Gordon, J. Chem. Phys. 144, 214110 (2016)

    Deriv               =              1
    GGA                 =           TRUE
    Meta                =           TRUE

    Exchange Hybrid     =           TRUE
    MP2 Hybrid          =          FALSE

   => Exchange-Correlation Functionals <=

    1.0000   wB97M-V exchange-correlation functional

   => Exact (HF) Exchange <=

    0.8500            HF,LR [omega = 0.3000]
    0.1500               HF 

   => VV10 Non-Local Parameters <=

    VV10 B              =     6.0000E+00
    VV10 C              =     1.0000E-02

   => Molecular Quadrature <=

    Radial Scheme          =       TREUTLER
    Pruning Scheme         =           FLAT
    Nuclear Scheme         =       TREUTLER

    BS radius alpha        =              1
    Pruning alpha          =              1
    Radial Points          =             75
    Spherical Points       =            302
    Total Points           =          65087
    Total Blocks           =            567
    Max Points             =            256
    Max Functions          =             99

   => Loading Basis Set <=

    Name: (CC-PV(T+D)Z AUX)
    Role: JKFIT
    Keyword: DF_BASIS_SCF
    atoms 1 entry O          line   229 file /work/zw18965/.conda/envs/p4env/share/psi4/basis/cc-pvtz-jkfit.gbs 
    atoms 2 entry C          line   125 file /work/zw18965/.conda/envs/p4env/share/psi4/basis/cc-pvtz-jkfit.gbs 
    atoms 3 entry S          line   613 file /work/zw18965/.conda/envs/p4env/share/psi4/basis/cc-pvtz-jkfit.gbs 

  ==> Pre-Iterations <==

   -------------------------------------------------------
    Irrep   Nso     Nmo     Nalpha   Nbeta   Ndocc  Nsocc
   -------------------------------------------------------
     A1        43      43       0       0       0       0
     A2        10      10       0       0       0       0
     B1        23      23       0       0       0       0
     B2        23      23       0       0       0       0
   -------------------------------------------------------
    Total      99      99      15      15      15       0
   -------------------------------------------------------

  ==> Integral Setup <==

  ==> DiskDFJK: Density-Fitted J/K Matrices <==

    J tasked:                  Yes
    K tasked:                  Yes
    wK tasked:                 Yes
    Omega:               3.000E-01
    OpenMP threads:             24
    Integrals threads:          24
    Memory [MiB]:           102580
    Algorithm:                Core
    Integral Cache:           NONE
    Schwarz Cutoff:          1E-12
    Fitting Condition:       1E-10

   => Auxiliary Basis Set <=

  Basis Set: (CC-PV(T+D)Z AUX)
    Blend: CC-PVTZ-JKFIT
    Number of shells: 87
    Number of basis function: 279
    Number of Cartesian functions: 337
    Spherical Harmonics?: true
    Max angular momentum: 4

  Cached 100.0% of DFT collocation blocks in 0.406 [GiB].

  Minimum eigenvalue in the overlap matrix is 1.2395103889E-03.
  Using Symmetric Orthogonalization.

  SCF Guess: Superposition of Atomic Densities via on-the-fly atomic UHF.

  ==> Iterations <==

                           Total Energy        Delta E     RMS |[F,P]|

   @DF-RKS iter SAD:  -511.01984890946466   -5.11020e+02   0.00000e+00 
   @DF-RKS iter   1:  -511.48016900686946   -4.60320e-01   8.47747e-03 DIIS
   @DF-RKS iter   2:  -511.41875128769721    6.14177e-02   1.15371e-02 DIIS
   @DF-RKS iter   3:  -511.55089698021959   -1.32146e-01   1.28610e-03 DIIS
   @DF-RKS iter   4:  -511.55296792691769   -2.07095e-03   2.89101e-04 DIIS
   @DF-RKS iter   5:  -511.55309154815978   -1.23621e-04   1.31226e-04 DIIS
   @DF-RKS iter   6:  -511.55312571991578   -3.41718e-05   4.12330e-05 DIIS
   @DF-RKS iter   7:  -511.55312933181801   -3.61190e-06   6.19447e-06 DIIS
   @DF-RKS iter   8:  -511.55312948028188   -1.48464e-07   1.05265e-06 DIIS
   @DF-RKS iter   9:  -511.55312948385279   -3.57090e-09   3.15774e-07 DIIS
   @DF-RKS iter  10:  -511.55312948401843   -1.65642e-10   5.80550e-08 DIIS
   @DF-RKS iter  11:  -511.55312948402394   -5.51381e-12   7.67758e-09 DIIS
  Energy and wave function converged.


  ==> Post-Iterations <==

    Orbital Energies [Eh]
    ---------------------

    Doubly Occupied:                                                      

       1A1   -89.234402     2A1   -19.421332     3A1   -10.515020  
       4A1    -8.150115     5A1    -6.060553     1B2    -6.054403  
       1B1    -6.054403     6A1    -1.273870     7A1    -0.941864  
       8A1    -0.667532     2B2    -0.590659     2B1    -0.590659  
       9A1    -0.574392     3B2    -0.393524     3B1    -0.393524  

    Virtual:                                                              

       4B2     0.053279     4B1     0.053279    10A1     0.127062  
      11A1     0.189768    12A1     0.301501     5B2     0.338057  
       5B1     0.338057     6B2     0.402452     6B1     0.402452  
       1A2     0.409263    13A1     0.409264    14A1     0.419344  
       7B2     0.548608     7B1     0.548608    15A1     0.590998  
      16A1     0.699618    17A1     0.725692    18A1     0.743935  
       2A2     0.743935     8B1     0.748732     8B2     0.748732  
      19A1     1.079858     9B1     1.194041     9B2     1.194041  
      20A1     1.225584    21A1     1.504707    22A1     1.509033  
       3A2     1.509038    10B2     1.550538    10B1     1.550538  
       4A2     1.561335    23A1     1.561338    11B1     1.720945  
      11B2     1.720945     5A2     1.857700    24A1     1.857703  
      25A1     1.904618    12B2     1.940946    12B1     1.940946  
      26A1     1.957094    13B2     1.969612    13B1     1.969612  
      14B1     2.164860    14B2     2.164860    27A1     2.221504  
      15B2     2.499280    15B1     2.499280    28A1     2.580425  
      16B2     2.691287    16B1     2.691287    29A1     2.835185  
       6A2     2.961655    30A1     2.961665    31A1     3.046726  
       7A2     3.046728    17B1     3.127811    17B2     3.127811  
      32A1     3.578736    18B1     3.680277    18B2     3.680277  
      33A1     3.834577    19B1     4.245463    19B2     4.245463  
      34A1     4.752335    35A1     5.061551    20B2     5.204978  
      20B1     5.204978    36A1     5.587572     8A2     5.587577  
       9A2     6.358230    37A1     6.358240    21B1     6.426335  
      21B2     6.426335    38A1     6.475297    39A1     6.778560  
      10A2     6.778592    22B1     6.856851    22B2     6.856851  
      40A1     7.014897    41A1     7.163308    23B2     7.165193  
      23B1     7.165193    42A1     8.713667    43A1    13.964738  

    Final Occupation by Irrep:
             A1    A2    B1    B2 
    DOCC [     9,    0,    3,    3 ]

  @DF-RKS Final Energy:  -511.55312948402394

   => Energetics <=

    Nuclear Repulsion Energy =             79.1947542162670999
    One-Electron Energy =                -860.9321356652584427
    Two-Electron Energy =                 299.9645794802131036
    DFT Exchange-Correlation Energy =     -29.9048171259042732
    Empirical Dispersion Energy =           0.0000000000000000
    VV10 Nonlocal Energy =                  0.1244896106585212
    Total Energy =                       -511.5531294840239411

Computation Completed


Properties will be evaluated at   0.000000,   0.000000,   0.000000 [a0]

Properties computed using the SCF density matrix

  Nuclear Dipole Moment: [e a0]
     X:     0.0000      Y:     0.0000      Z:     0.0194

  Electronic Dipole Moment: [e a0]
     X:     0.0000      Y:     0.0000      Z:     0.2225

  Dipole Moment: [e a0]
     X:     0.0000      Y:     0.0000      Z:     0.2418     Total:     0.2418

  Dipole Moment: [D]
     X:     0.0000      Y:     0.0000      Z:     0.6147     Total:     0.6147


*** tstop() called on bp1-compute00100.data.bp.acrc.priv at Tue Apr 27 17:47:20 2021
Module time:
	user time   =      79.11 seconds =       1.32 minutes
	system time =       2.31 seconds =       0.04 minutes
	total time  =          3 seconds =       0.05 minutes
Total time:
	user time   =     328.58 seconds =       5.48 minutes
	system time =      12.93 seconds =       0.22 minutes
	total time  =         15 seconds =       0.25 minutes

  //>>>>>>>>>>>>>>>>>>>>>>>>>>>>>>>>>>>//
  //    Loading displacement 5 of 5    //
  //<<<<<<<<<<<<<<<<<<<<<<<<<<<<<<<<<<<//

*** tstart() called on bp1-compute00100.data.bp.acrc.priv
*** at Tue Apr 27 17:47:20 2021

   => Loading Basis Set <=

    Name: CC-PV(T+D)Z
    Role: ORBITAL
    Keyword: BASIS
    atoms 1 entry O          line   271 file /work/zw18965/.conda/envs/p4env/share/psi4/basis/cc-pv_tpd_z.gbs 
    atoms 2 entry C          line   195 file /work/zw18965/.conda/envs/p4env/share/psi4/basis/cc-pv_tpd_z.gbs 
    atoms 3 entry S          line   788 file /work/zw18965/.conda/envs/p4env/share/psi4/basis/cc-pv_tpd_z.gbs 


         ---------------------------------------------------------
                                   SCF
               by Justin Turney, Rob Parrish, Andy Simmonett
                          and Daniel G. A. Smith
                              RKS Reference
                       24 Threads, 137329 MiB Core
         ---------------------------------------------------------

  ==> Geometry <==

    Molecular point group: c2v
    Full point group: C_inf_v

    Geometry (in Angstrom), charge = 0, multiplicity = 1:

       Center              X                  Y                   Z               Mass       
    ------------   -----------------  -----------------  -----------------  -----------------
         O            0.000000000000     0.000000000000    -1.684829158394    15.994914619570
         C            0.000000000000     0.000000000000    -0.525745823852    12.000000000000
         S            0.000000000000     0.000000000000     1.040209382804    31.972071174400

  Running in c2v symmetry.

  Rotational constants: A = ************  B =      0.20233  C =      0.20233 [cm^-1]
  Rotational constants: A = ************  B =   6065.82617  C =   6065.82617 [MHz]
  Nuclear repulsion =   79.211628369170626

  Charge       = 0
  Multiplicity = 1
  Electrons    = 30
  Nalpha       = 15
  Nbeta        = 15

  ==> Algorithm <==

  SCF Algorithm Type is DF.
  DIIS enabled.
  MOM disabled.
  Fractional occupation disabled.
  Guess Type is SAD.
  Energy threshold   = 1.00e-08
  Density threshold  = 1.00e-08
  Integral threshold = 0.00e+00

  ==> Primary Basis <==

  Basis Set: CC-PV(T+D)Z
    Blend: CC-PV(T+D)Z
    Number of shells: 33
    Number of basis function: 99
    Number of Cartesian functions: 115
    Spherical Harmonics?: true
    Max angular momentum: 3

  ==> DFT Potential <==

   => Composite Functional: WB97M-V <= 

    wB97M-V Hyb-GGA Exchange-Correlation Functional

    N. Mardirossian and M. Head-Gordon, J. Chem. Phys. 144, 214110 (2016)

    Deriv               =              1
    GGA                 =           TRUE
    Meta                =           TRUE

    Exchange Hybrid     =           TRUE
    MP2 Hybrid          =          FALSE

   => Exchange-Correlation Functionals <=

    1.0000   wB97M-V exchange-correlation functional

   => Exact (HF) Exchange <=

    0.8500            HF,LR [omega = 0.3000]
    0.1500               HF 

   => VV10 Non-Local Parameters <=

    VV10 B              =     6.0000E+00
    VV10 C              =     1.0000E-02

   => Molecular Quadrature <=

    Radial Scheme          =       TREUTLER
    Pruning Scheme         =           FLAT
    Nuclear Scheme         =       TREUTLER

    BS radius alpha        =              1
    Pruning alpha          =              1
    Radial Points          =             75
    Spherical Points       =            302
    Total Points           =          65087
    Total Blocks           =            566
    Max Points             =            256
    Max Functions          =             99

   => Loading Basis Set <=

    Name: (CC-PV(T+D)Z AUX)
    Role: JKFIT
    Keyword: DF_BASIS_SCF
    atoms 1 entry O          line   229 file /work/zw18965/.conda/envs/p4env/share/psi4/basis/cc-pvtz-jkfit.gbs 
    atoms 2 entry C          line   125 file /work/zw18965/.conda/envs/p4env/share/psi4/basis/cc-pvtz-jkfit.gbs 
    atoms 3 entry S          line   613 file /work/zw18965/.conda/envs/p4env/share/psi4/basis/cc-pvtz-jkfit.gbs 

  ==> Pre-Iterations <==

   -------------------------------------------------------
    Irrep   Nso     Nmo     Nalpha   Nbeta   Ndocc  Nsocc
   -------------------------------------------------------
     A1        43      43       0       0       0       0
     A2        10      10       0       0       0       0
     B1        23      23       0       0       0       0
     B2        23      23       0       0       0       0
   -------------------------------------------------------
    Total      99      99      15      15      15       0
   -------------------------------------------------------

  ==> Integral Setup <==

  ==> DiskDFJK: Density-Fitted J/K Matrices <==

    J tasked:                  Yes
    K tasked:                  Yes
    wK tasked:                 Yes
    Omega:               3.000E-01
    OpenMP threads:             24
    Integrals threads:          24
    Memory [MiB]:           102580
    Algorithm:                Core
    Integral Cache:           NONE
    Schwarz Cutoff:          1E-12
    Fitting Condition:       1E-10

   => Auxiliary Basis Set <=

  Basis Set: (CC-PV(T+D)Z AUX)
    Blend: CC-PVTZ-JKFIT
    Number of shells: 87
    Number of basis function: 279
    Number of Cartesian functions: 337
    Spherical Harmonics?: true
    Max angular momentum: 4

  Cached 100.0% of DFT collocation blocks in 0.407 [GiB].

  Minimum eigenvalue in the overlap matrix is 1.2330666600E-03.
  Using Symmetric Orthogonalization.

  SCF Guess: Superposition of Atomic Densities via on-the-fly atomic UHF.

  ==> Iterations <==

                           Total Energy        Delta E     RMS |[F,P]|

   @DF-RKS iter SAD:  -511.02021411236859   -5.11020e+02   0.00000e+00 
   @DF-RKS iter   1:  -511.47995787954750   -4.59744e-01   8.48398e-03 DIIS
   @DF-RKS iter   2:  -511.41759961649279    6.23583e-02   1.15771e-02 DIIS
   @DF-RKS iter   3:  -511.55088074467136   -1.33281e-01   1.28669e-03 DIIS
   @DF-RKS iter   4:  -511.55295327064533   -2.07253e-03   2.87529e-04 DIIS
   @DF-RKS iter   5:  -511.55307577723767   -1.22507e-04   1.30476e-04 DIIS
   @DF-RKS iter   6:  -511.55310942710639   -3.36499e-05   4.13462e-05 DIIS
   @DF-RKS iter   7:  -511.55311303348549   -3.60638e-06   6.18203e-06 DIIS
   @DF-RKS iter   8:  -511.55311318161193   -1.48126e-07   1.04973e-06 DIIS
   @DF-RKS iter   9:  -511.55311318516539   -3.55345e-09   3.16238e-07 DIIS
   @DF-RKS iter  10:  -511.55311318533137   -1.65983e-10   5.86810e-08 DIIS
   @DF-RKS iter  11:  -511.55311318533666   -5.28644e-12   7.72332e-09 DIIS
  Energy and wave function converged.


  ==> Post-Iterations <==

    Orbital Energies [Eh]
    ---------------------

    Doubly Occupied:                                                      

       1A1   -89.234518     2A1   -19.420923     3A1   -10.514897  
       4A1    -8.150304     5A1    -6.060719     1B1    -6.054598  
       1B2    -6.054598     6A1    -1.272734     7A1    -0.942550  
       8A1    -0.667127     2B1    -0.590052     2B2    -0.590052  
       9A1    -0.574454     3B1    -0.393759     3B2    -0.393759  

    Virtual:                                                              

       4B1     0.053125     4B2     0.053125    10A1     0.127421  
      11A1     0.189703    12A1     0.301327     5B1     0.337974  
       5B2     0.337974     6B1     0.402595     6B2     0.402595  
       1A2     0.408979    13A1     0.408981    14A1     0.419487  
       7B1     0.548713     7B2     0.548713    15A1     0.590887  
      16A1     0.699812    17A1     0.725044    18A1     0.744251  
       2A2     0.744251     8B2     0.749021     8B1     0.749021  
      19A1     1.080437     9B2     1.194150     9B1     1.194150  
      20A1     1.225788    21A1     1.504616    22A1     1.508859  
       3A2     1.508865    10B1     1.550383    10B2     1.550383  
       4A2     1.561331    23A1     1.561334    11B2     1.720606  
      11B1     1.720606     5A2     1.857933    24A1     1.857936  
      25A1     1.904961    12B1     1.941204    12B2     1.941204  
      26A1     1.956214    13B1     1.969261    13B2     1.969261  
      14B2     2.165562    14B1     2.165562    27A1     2.221119  
      15B1     2.500172    15B2     2.500172    28A1     2.581821  
      16B2     2.691553    16B1     2.691553    29A1     2.835058  
       6A2     2.961934    30A1     2.961944    31A1     3.047145  
       7A2     3.047147    17B2     3.128460    17B1     3.128460  
      32A1     3.579375    18B2     3.680401    18B1     3.680401  
      33A1     3.835376    19B2     4.244819    19B1     4.244819  
      34A1     4.750537    35A1     5.064952    20B2     5.205349  
      20B1     5.205349    36A1     5.586369     8A2     5.586373  
       9A2     6.358447    37A1     6.358456    21B2     6.424014  
      21B1     6.424014    38A1     6.472880    39A1     6.778375  
      10A2     6.778407    22B2     6.857393    22B1     6.857393  
      40A1     7.015506    41A1     7.159164    23B1     7.166046  
      23B2     7.166046    42A1     8.730968    43A1    13.939114  

    Final Occupation by Irrep:
             A1    A2    B1    B2 
    DOCC [     9,    0,    3,    3 ]

  @DF-RKS Final Energy:  -511.55311318533666

   => Energetics <=

    Nuclear Repulsion Energy =             79.2116283691706258
    One-Electron Energy =                -860.9683190677892526
    Two-Electron Energy =                 299.9838161082431611
    DFT Exchange-Correlation Energy =     -29.9047269872231851
    Empirical Dispersion Energy =           0.0000000000000000
    VV10 Nonlocal Energy =                  0.1244883922619678
    Total Energy =                       -511.5531131853366560

Computation Completed


Properties will be evaluated at   0.000000,   0.000000,   0.000000 [a0]

Properties computed using the SCF density matrix

  Nuclear Dipole Moment: [e a0]
     X:     0.0000      Y:     0.0000      Z:     0.0194

  Electronic Dipole Moment: [e a0]
     X:     0.0000      Y:     0.0000      Z:     0.2302

  Dipole Moment: [e a0]
     X:     0.0000      Y:     0.0000      Z:     0.2495     Total:     0.2495

  Dipole Moment: [D]
     X:     0.0000      Y:     0.0000      Z:     0.6342     Total:     0.6342


*** tstop() called on bp1-compute00100.data.bp.acrc.priv at Tue Apr 27 17:47:24 2021
Module time:
	user time   =      79.81 seconds =       1.33 minutes
	system time =       2.40 seconds =       0.04 minutes
	total time  =          4 seconds =       0.07 minutes
Total time:
	user time   =     408.53 seconds =       6.81 minutes
	system time =      15.34 seconds =       0.26 minutes
	total time  =         19 seconds =       0.32 minutes

         ----------------------------------------------------------
                                   FINDIF
                     R. A. King and Jonathon Misiewicz
         ---------------------------------------------------------

  Computing gradient from energies.
    Using 3-point formula.
    Energy without displacement: -511.5531226539
    Check energies below for precision!
    Forces are for mass-weighted, symmetry-adapted cartesians (in au).

     Coord      Energy(-1)        Energy(+1)            Force
        0   -511.5531008093   -511.5531422463     -0.0041436996
        1   -511.5531294840   -511.5531131853      0.0016298687


-------------------------------------------------------------
  ## New Matrix (Symmetry 0) ##
  Irrep: 1 Size: 3 x 3

                 1                   2                   3

    1     0.00000000000000     0.00000000000000    -0.01419095366581
    2     0.00000000000000     0.00000000000000     0.00868709615971
    3     0.00000000000000     0.00000000000000     0.00550385750610




			-----------------------------------------
			 OPTKING 2.0: for geometry optimizations 
			  - R.A. King,  Bethel University        
			-----------------------------------------
	At level 1: Red. Int., RFO, no backsteps, dynamic trust

	Internal coordinates to be generated automatically.
	Detected frag 1 with atoms:  1 2 3
	---Fragment 1 Bond Connectivity---
	 1 : 2
	 2 : 1 3
	 3 : 2

	---Fragment 1 Geometry and Gradient---
	 O           0.0000000000        0.0000000000       -3.1838656775
	 C           0.0000000000        0.0000000000       -0.9947463870
	 S           0.0000000000        0.0000000000        1.9661727879
	             0.0000000000        0.0000000000       -0.0141909537
	             0.0000000000        0.0000000000        0.0086870962
	             0.0000000000        0.0000000000        0.0055038575

	Previous optimization step data not found.  Starting new optimization.

	---Fragment 1 Intrafragment Coordinates---
	 - Coordinate -           - BOHR/RAD -       - ANG/DEG -
	 R(1,2)           =         2.189119	       1.158432
	 R(2,3)           =         2.960919	       1.566851
	 L(1,2,3)         =         3.141593	     180.000000
	 l(1,2,3)         =         3.141593	     180.000000

	Current energy   :      -511.5531226539

	Generating empirical Hessian (Schlegel '84) for each fragment.
	Taking RFO optimization step.
	Going to follow RFO solution 1.
	Using RFO vector 1.
	Norm of target step-size    0.01451
	Projected energy change by RFO approximation:        -0.0002082818

	Back-transformation to cartesian coordinates...
	Successfully converged to displaced geometry.

	--- Internal Coordinate Step in ANG or DEG, aJ/ANG or AJ/DEG ---
	 ---------------------------------------------------------------------------
	   Coordinate                Previous        Force       Change         New 
	   ----------                --------       ------       ------       ------
	    1 R(1,2)          =      1.158432    -0.116915    -0.005828     1.152604
	    2 R(2,3)          =      1.566851    -0.045345    -0.005002     1.561849
	    3 L(1,2,3)        =    180.000000     0.000000     0.000000   180.000000
	    4 l(1,2,3)        =    180.000000     0.000000     0.000000   180.000000
	 ---------------------------------------------------------------------------
	Successfully symmetrized geometry.

  ==> Convergence Check <==

  Measures of convergence in internal coordinates in au.
  Criteria marked as inactive (o), active & met (*), and active & unmet ( ).
  --------------------------------------------------------------------------------------------- ~
   Step     Total Energy     Delta E     MAX Force     RMS Force      MAX Disp      RMS Disp    ~
  --------------------------------------------------------------------------------------------- ~
    Convergence Criteria    1.00e-06 *    3.00e-04 *             o    1.20e-03 *             o  ~
  --------------------------------------------------------------------------------------------- ~
      1    -511.55312265   -5.12e+02      1.42e-02      7.61e-03 o    1.10e-02      7.26e-03 o  ~
  ---------------------------------------------------------------------------------------------

	Writing optimization data to binary file.
	Structure for next step:
	Cartesian Geometry (in Angstrom)
	    O     0.0000000000   0.0000000000  -1.6792761771
	    C     0.0000000000  -0.0000000000  -0.5266724348
	    S     0.0000000000   0.0000000000   1.0351761714
			--------------------------
			 OPTKING Finished Execution 
			--------------------------

    Structure for next step:
    Molecular point group: c2v
    Full point group: C_inf_v

    Geometry (in Angstrom), charge = 0, multiplicity = 1:

    O            0.000000000000     0.000000000000    -1.677888385707
    C           -0.000000000000     0.000000000000    -0.525284638888
    S            0.000000000000     0.000000000000     1.036563973489

gradient() will perform gradient computation by finite difference of analytic energies.

         ----------------------------------------------------------
                                   FINDIF
                     R. A. King and Jonathon Misiewicz
         ---------------------------------------------------------

  Using finite-differences of energies to determine gradients.
    Generating geometries for use with 3-point formula.
    Displacement size will be 5.00e-03.
    Number of atoms is 3.
    Number of symmetric SALCs is 2.
    Translations projected? 1. Rotations projected? 1.
    Number of geometries (including reference) is 5.

  //>>>>>>>>>>>>>>>>>>>>>>>>>>>>>>>>>>>//
  //    Loading displacement 1 of 5    //
  //<<<<<<<<<<<<<<<<<<<<<<<<<<<<<<<<<<<//

*** tstart() called on bp1-compute00100.data.bp.acrc.priv
*** at Tue Apr 27 17:47:24 2021

   => Loading Basis Set <=

    Name: CC-PV(T+D)Z
    Role: ORBITAL
    Keyword: BASIS
    atoms 1 entry O          line   271 file /work/zw18965/.conda/envs/p4env/share/psi4/basis/cc-pv_tpd_z.gbs 
    atoms 2 entry C          line   195 file /work/zw18965/.conda/envs/p4env/share/psi4/basis/cc-pv_tpd_z.gbs 
    atoms 3 entry S          line   788 file /work/zw18965/.conda/envs/p4env/share/psi4/basis/cc-pv_tpd_z.gbs 


         ---------------------------------------------------------
                                   SCF
               by Justin Turney, Rob Parrish, Andy Simmonett
                          and Daniel G. A. Smith
                              RKS Reference
                       24 Threads, 137329 MiB Core
         ---------------------------------------------------------

  ==> Geometry <==

    Molecular point group: c2v
    Full point group: C_inf_v

    Geometry (in Angstrom), charge = 0, multiplicity = 1:

       Center              X                  Y                   Z               Mass       
    ------------   -----------------  -----------------  -----------------  -----------------
         O           -0.000000000000     0.000000000000    -1.677888385707    15.994914619570
         C            0.000000000000     0.000000000000    -0.525284638888    12.000000000000
         S           -0.000000000000     0.000000000000     1.036563973489    31.972071174400

  Running in c2v symmetry.

  Rotational constants: A = ************  B =      0.20385  C =      0.20385 [cm^-1]
  Rotational constants: A = ************  B =   6111.39152  C =   6111.39152 [MHz]
  Nuclear repulsion =   79.517059690081965

  Charge       = 0
  Multiplicity = 1
  Electrons    = 30
  Nalpha       = 15
  Nbeta        = 15

  ==> Algorithm <==

  SCF Algorithm Type is DF.
  DIIS enabled.
  MOM disabled.
  Fractional occupation disabled.
  Guess Type is READ.
  Energy threshold   = 1.00e-08
  Density threshold  = 1.00e-08
  Integral threshold = 0.00e+00

  ==> Primary Basis <==

  Basis Set: CC-PV(T+D)Z
    Blend: CC-PV(T+D)Z
    Number of shells: 33
    Number of basis function: 99
    Number of Cartesian functions: 115
    Spherical Harmonics?: true
    Max angular momentum: 3

  ==> DFT Potential <==

   => Composite Functional: WB97M-V <= 

    wB97M-V Hyb-GGA Exchange-Correlation Functional

    N. Mardirossian and M. Head-Gordon, J. Chem. Phys. 144, 214110 (2016)

    Deriv               =              1
    GGA                 =           TRUE
    Meta                =           TRUE

    Exchange Hybrid     =           TRUE
    MP2 Hybrid          =          FALSE

   => Exchange-Correlation Functionals <=

    1.0000   wB97M-V exchange-correlation functional

   => Exact (HF) Exchange <=

    0.8500            HF,LR [omega = 0.3000]
    0.1500               HF 

   => VV10 Non-Local Parameters <=

    VV10 B              =     6.0000E+00
    VV10 C              =     1.0000E-02

   => Molecular Quadrature <=

    Radial Scheme          =       TREUTLER
    Pruning Scheme         =           FLAT
    Nuclear Scheme         =       TREUTLER

    BS radius alpha        =              1
    Pruning alpha          =              1
    Radial Points          =             75
    Spherical Points       =            302
    Total Points           =          65087
    Total Blocks           =            565
    Max Points             =            256
    Max Functions          =             99

   => Loading Basis Set <=

    Name: (CC-PV(T+D)Z AUX)
    Role: JKFIT
    Keyword: DF_BASIS_SCF
    atoms 1 entry O          line   229 file /work/zw18965/.conda/envs/p4env/share/psi4/basis/cc-pvtz-jkfit.gbs 
    atoms 2 entry C          line   125 file /work/zw18965/.conda/envs/p4env/share/psi4/basis/cc-pvtz-jkfit.gbs 
    atoms 3 entry S          line   613 file /work/zw18965/.conda/envs/p4env/share/psi4/basis/cc-pvtz-jkfit.gbs 

   => Loading Basis Set <=

    Name: CC-PV(T+D)Z
    Role: ORBITAL
    Keyword: BASIS
    atoms 1 entry O          line   271 file /work/zw18965/.conda/envs/p4env/share/psi4/basis/cc-pv_tpd_z.gbs 
    atoms 2 entry C          line   195 file /work/zw18965/.conda/envs/p4env/share/psi4/basis/cc-pv_tpd_z.gbs 
    atoms 3 entry S          line   788 file /work/zw18965/.conda/envs/p4env/share/psi4/basis/cc-pv_tpd_z.gbs 

  Reading orbitals from file 180, no projection.

  ==> Pre-Iterations <==

   -------------------------------------------------------
    Irrep   Nso     Nmo     Nalpha   Nbeta   Ndocc  Nsocc
   -------------------------------------------------------
     A1        43      43       0       0       0       0
     A2        10      10       0       0       0       0
     B1        23      23       0       0       0       0
     B2        23      23       0       0       0       0
   -------------------------------------------------------
    Total      99      99      15      15      15       0
   -------------------------------------------------------

  ==> Integral Setup <==

  ==> DiskDFJK: Density-Fitted J/K Matrices <==

    J tasked:                  Yes
    K tasked:                  Yes
    wK tasked:                 Yes
    Omega:               3.000E-01
    OpenMP threads:             24
    Integrals threads:          24
    Memory [MiB]:           102580
    Algorithm:                Core
    Integral Cache:           NONE
    Schwarz Cutoff:          1E-12
    Fitting Condition:       1E-10

   => Auxiliary Basis Set <=

  Basis Set: (CC-PV(T+D)Z AUX)
    Blend: CC-PVTZ-JKFIT
    Number of shells: 87
    Number of basis function: 279
    Number of Cartesian functions: 337
    Spherical Harmonics?: true
    Max angular momentum: 4

  Cached 100.0% of DFT collocation blocks in 0.407 [GiB].

  Minimum eigenvalue in the overlap matrix is 1.2173063736E-03.
  Using Symmetric Orthogonalization.

  SCF Guess: Orbitals guess was supplied from a previous computation.

  ==> Iterations <==

                           Total Energy        Delta E     RMS |[F,P]|

   @DF-RKS iter   0:  -511.56142882096634   -5.11561e+02   4.79147e-04 
   @DF-RKS iter   1:  -511.55321104419886    8.21778e-03   1.23955e-04 DIIS
   @DF-RKS iter   2:  -511.55320585506320    5.18914e-06   1.51320e-04 DIIS
   @DF-RKS iter   3:  -511.55323651990409   -3.06648e-05   1.65494e-05 DIIS
   @DF-RKS iter   4:  -511.55323674120342   -2.21299e-07   9.39462e-06 DIIS
   @DF-RKS iter   5:  -511.55323683115273   -8.99493e-08   2.11427e-06 DIIS
   @DF-RKS iter   6:  -511.55323683755705   -6.40432e-09   3.27978e-07 DIIS
   @DF-RKS iter   7:  -511.55323683794842   -3.91367e-10   6.70616e-08 DIIS
   @DF-RKS iter   8:  -511.55323683796144   -1.30171e-11   1.78913e-08 DIIS
   @DF-RKS iter   9:  -511.55323683796223   -7.95808e-13   3.95135e-09 DIIS
  Energy and wave function converged.


  ==> Post-Iterations <==

    Orbital Energies [Eh]
    ---------------------

    Doubly Occupied:                                                      

       1A1   -89.233175     2A1   -19.420591     3A1   -10.513008  
       4A1    -8.149202     5A1    -6.059600     1B1    -6.053483  
       1B2    -6.053483     6A1    -1.276581     7A1    -0.943135  
       8A1    -0.667262     2B2    -0.592457     2B1    -0.592457  
       9A1    -0.574356     3B1    -0.393501     3B2    -0.393501  

    Virtual:                                                              

       4B2     0.055290     4B1     0.055290    10A1     0.129452  
      11A1     0.189544    12A1     0.301473     5B1     0.337808  
       5B2     0.337808     6B2     0.402719     6B1     0.402719  
       1A2     0.409274    13A1     0.409275    14A1     0.421151  
       7B2     0.550700     7B1     0.550700    15A1     0.590546  
      16A1     0.701389    17A1     0.729796    18A1     0.744522  
       2A2     0.744523     8B2     0.748488     8B1     0.748488  
      19A1     1.087576     9B2     1.198746     9B1     1.198746  
      20A1     1.226213    21A1     1.506339    22A1     1.509455  
       3A2     1.509461    10B2     1.551807    10B1     1.551807  
       4A2     1.561735    23A1     1.561738    11B1     1.721035  
      11B2     1.721035     5A2     1.861029    24A1     1.861031  
      25A1     1.906477    12B2     1.944261    12B1     1.944261  
      26A1     1.958321    13B1     1.970069    13B2     1.970069  
      14B2     2.165535    14B1     2.165535    27A1     2.215093  
      15B2     2.500320    15B1     2.500320    28A1     2.591377  
      16B1     2.691679    16B2     2.691679    29A1     2.845354  
       6A2     2.961572    30A1     2.961582    31A1     3.052661  
       7A2     3.052663    17B1     3.133376    17B2     3.133376  
      32A1     3.585318    18B2     3.689684    18B1     3.689684  
      33A1     3.840534    19B2     4.253762    19B1     4.253762  
      34A1     4.780662    35A1     5.068156    20B2     5.205437  
      20B1     5.205437    36A1     5.595903     8A2     5.595908  
       9A2     6.359373    37A1     6.359382    21B2     6.440392  
      21B1     6.440392    38A1     6.486670    39A1     6.779626  
      10A2     6.779657    22B2     6.859757    22B1     6.859757  
      40A1     7.012835    23B2     7.178045    23B1     7.178045  
      41A1     7.180067    42A1     8.773430    43A1    14.088495  

    Final Occupation by Irrep:
             A1    A2    B1    B2 
    DOCC [     9,    0,    3,    3 ]

  @DF-RKS Final Energy:  -511.55323683796223

   => Energetics <=

    Nuclear Repulsion Energy =             79.5170596900819646
    One-Electron Energy =                -861.5736318460872099
    Two-Electron Energy =                 300.2909457765879893
    DFT Exchange-Correlation Energy =     -29.9120936746878954
    Empirical Dispersion Energy =           0.0000000000000000
    VV10 Nonlocal Energy =                  0.1244832161428878
    Total Energy =                       -511.5532368379622881

Computation Completed


Properties will be evaluated at   0.000000,   0.000000,   0.000000 [a0]

Properties computed using the SCF density matrix

  Nuclear Dipole Moment: [e a0]
     X:     0.0000      Y:     0.0000      Z:     0.0193

  Electronic Dipole Moment: [e a0]
     X:     0.0000      Y:     0.0000      Z:     0.2161

  Dipole Moment: [e a0]
     X:     0.0000      Y:     0.0000      Z:     0.2354     Total:     0.2354

  Dipole Moment: [D]
     X:     0.0000      Y:     0.0000      Z:     0.5982     Total:     0.5982


*** tstop() called on bp1-compute00100.data.bp.acrc.priv at Tue Apr 27 17:47:26 2021
Module time:
	user time   =      59.30 seconds =       0.99 minutes
	system time =       1.61 seconds =       0.03 minutes
	total time  =          2 seconds =       0.03 minutes
Total time:
	user time   =     468.19 seconds =       7.80 minutes
	system time =      16.97 seconds =       0.28 minutes
	total time  =         21 seconds =       0.35 minutes

  //>>>>>>>>>>>>>>>>>>>>>>>>>>>>>>>>>>>//
  //    Loading displacement 2 of 5    //
  //<<<<<<<<<<<<<<<<<<<<<<<<<<<<<<<<<<<//

*** tstart() called on bp1-compute00100.data.bp.acrc.priv
*** at Tue Apr 27 17:47:26 2021

   => Loading Basis Set <=

    Name: CC-PV(T+D)Z
    Role: ORBITAL
    Keyword: BASIS
    atoms 1 entry O          line   271 file /work/zw18965/.conda/envs/p4env/share/psi4/basis/cc-pv_tpd_z.gbs 
    atoms 2 entry C          line   195 file /work/zw18965/.conda/envs/p4env/share/psi4/basis/cc-pv_tpd_z.gbs 
    atoms 3 entry S          line   788 file /work/zw18965/.conda/envs/p4env/share/psi4/basis/cc-pv_tpd_z.gbs 


         ---------------------------------------------------------
                                   SCF
               by Justin Turney, Rob Parrish, Andy Simmonett
                          and Daniel G. A. Smith
                              RKS Reference
                       24 Threads, 137329 MiB Core
         ---------------------------------------------------------

  ==> Geometry <==

    Molecular point group: c2v
    Full point group: C_inf_v

    Geometry (in Angstrom), charge = 0, multiplicity = 1:

       Center              X                  Y                   Z               Mass       
    ------------   -----------------  -----------------  -----------------  -----------------
         O           -0.000000000000     0.000000000000    -1.678454902158    15.994914619570
         C            0.000000000000     0.000000000000    -0.525078567579    12.000000000000
         S           -0.000000000000     0.000000000000     1.036770044798    31.972071174400

  Running in c2v symmetry.

  Rotational constants: A = ************  B =      0.20375  C =      0.20375 [cm^-1]
  Rotational constants: A = ************  B =   6108.32786  C =   6108.32786 [MHz]
  Nuclear repulsion =   79.495197691476207

  Charge       = 0
  Multiplicity = 1
  Electrons    = 30
  Nalpha       = 15
  Nbeta        = 15

  ==> Algorithm <==

  SCF Algorithm Type is DF.
  DIIS enabled.
  MOM disabled.
  Fractional occupation disabled.
  Guess Type is READ.
  Energy threshold   = 1.00e-08
  Density threshold  = 1.00e-08
  Integral threshold = 0.00e+00

  ==> Primary Basis <==

  Basis Set: CC-PV(T+D)Z
    Blend: CC-PV(T+D)Z
    Number of shells: 33
    Number of basis function: 99
    Number of Cartesian functions: 115
    Spherical Harmonics?: true
    Max angular momentum: 3

  ==> DFT Potential <==

   => Composite Functional: WB97M-V <= 

    wB97M-V Hyb-GGA Exchange-Correlation Functional

    N. Mardirossian and M. Head-Gordon, J. Chem. Phys. 144, 214110 (2016)

    Deriv               =              1
    GGA                 =           TRUE
    Meta                =           TRUE

    Exchange Hybrid     =           TRUE
    MP2 Hybrid          =          FALSE

   => Exchange-Correlation Functionals <=

    1.0000   wB97M-V exchange-correlation functional

   => Exact (HF) Exchange <=

    0.8500            HF,LR [omega = 0.3000]
    0.1500               HF 

   => VV10 Non-Local Parameters <=

    VV10 B              =     6.0000E+00
    VV10 C              =     1.0000E-02

   => Molecular Quadrature <=

    Radial Scheme          =       TREUTLER
    Pruning Scheme         =           FLAT
    Nuclear Scheme         =       TREUTLER

    BS radius alpha        =              1
    Pruning alpha          =              1
    Radial Points          =             75
    Spherical Points       =            302
    Total Points           =          65087
    Total Blocks           =            565
    Max Points             =            256
    Max Functions          =             99

   => Loading Basis Set <=

    Name: (CC-PV(T+D)Z AUX)
    Role: JKFIT
    Keyword: DF_BASIS_SCF
    atoms 1 entry O          line   229 file /work/zw18965/.conda/envs/p4env/share/psi4/basis/cc-pvtz-jkfit.gbs 
    atoms 2 entry C          line   125 file /work/zw18965/.conda/envs/p4env/share/psi4/basis/cc-pvtz-jkfit.gbs 
    atoms 3 entry S          line   613 file /work/zw18965/.conda/envs/p4env/share/psi4/basis/cc-pvtz-jkfit.gbs 

   => Loading Basis Set <=

    Name: CC-PV(T+D)Z
    Role: ORBITAL
    Keyword: BASIS
    atoms 1 entry O          line   271 file /work/zw18965/.conda/envs/p4env/share/psi4/basis/cc-pv_tpd_z.gbs 
    atoms 2 entry C          line   195 file /work/zw18965/.conda/envs/p4env/share/psi4/basis/cc-pv_tpd_z.gbs 
    atoms 3 entry S          line   788 file /work/zw18965/.conda/envs/p4env/share/psi4/basis/cc-pv_tpd_z.gbs 

  Reading orbitals from file 180, no projection.

  ==> Pre-Iterations <==

   -------------------------------------------------------
    Irrep   Nso     Nmo     Nalpha   Nbeta   Ndocc  Nsocc
   -------------------------------------------------------
     A1        43      43       0       0       0       0
     A2        10      10       0       0       0       0
     B1        23      23       0       0       0       0
     B2        23      23       0       0       0       0
   -------------------------------------------------------
    Total      99      99      15      15      15       0
   -------------------------------------------------------

  ==> Integral Setup <==

  ==> DiskDFJK: Density-Fitted J/K Matrices <==

    J tasked:                  Yes
    K tasked:                  Yes
    wK tasked:                 Yes
    Omega:               3.000E-01
    OpenMP threads:             24
    Integrals threads:          24
    Memory [MiB]:           102580
    Algorithm:                Core
    Integral Cache:           NONE
    Schwarz Cutoff:          1E-12
    Fitting Condition:       1E-10

   => Auxiliary Basis Set <=

  Basis Set: (CC-PV(T+D)Z AUX)
    Blend: CC-PVTZ-JKFIT
    Number of shells: 87
    Number of basis function: 279
    Number of Cartesian functions: 337
    Spherical Harmonics?: true
    Max angular momentum: 4

  Cached 100.0% of DFT collocation blocks in 0.407 [GiB].

  Minimum eigenvalue in the overlap matrix is 1.2173960469E-03.
  Using Symmetric Orthogonalization.

  SCF Guess: Orbitals guess was supplied from a previous computation.

  ==> Iterations <==

                           Total Energy        Delta E     RMS |[F,P]|

   @DF-RKS iter   0:  -511.55253119480886   -5.11553e+02   5.63522e-05 
   @DF-RKS iter   1:  -511.55323273909920   -7.01544e-04   1.98466e-05 DIIS
   @DF-RKS iter   2:  -511.55323235297186    3.86127e-07   2.82435e-05 DIIS
   @DF-RKS iter   3:  -511.55323332925337   -9.76282e-07   2.34833e-06 DIIS
   @DF-RKS iter   4:  -511.55323333493487   -5.68150e-09   1.14504e-06 DIIS
   @DF-RKS iter   5:  -511.55323333643730   -1.50243e-09   1.49942e-07 DIIS
   @DF-RKS iter   6:  -511.55323333648994   -5.26370e-11   5.83042e-08 DIIS
   @DF-RKS iter   7:  -511.55323333649591   -5.96856e-12   8.52618e-09 DIIS
  Energy and wave function converged.


  ==> Post-Iterations <==

    Orbital Energies [Eh]
    ---------------------

    Doubly Occupied:                                                      

[...]

  Dipole Moment: [e a0]
     X:     0.0003      Y:     0.0000      Z:     0.2332     Total:     0.2332

  Dipole Moment: [D]
     X:     0.0008      Y:     0.0000      Z:     0.5926     Total:     0.5926


*** tstop() called on bp1-compute00100.data.bp.acrc.priv at Tue Apr 27 17:48:36 2021
Module time:
	user time   =      88.13 seconds =       1.47 minutes
	system time =       2.37 seconds =       0.04 minutes
	total time  =          4 seconds =       0.07 minutes
Total time:
	user time   =    2070.76 seconds =      34.51 minutes
	system time =      62.30 seconds =       1.04 minutes
	total time  =         91 seconds =       1.52 minutes

  //>>>>>>>>>>>>>>>>>>>>>>>>>>>>>>>>>>>//
  //    Loading displacement 9 of 9    //
  //<<<<<<<<<<<<<<<<<<<<<<<<<<<<<<<<<<<//

*** tstart() called on bp1-compute00100.data.bp.acrc.priv
*** at Tue Apr 27 17:48:36 2021

   => Loading Basis Set <=

    Name: CC-PV(T+D)Z
    Role: ORBITAL
    Keyword: BASIS
    atoms 1 entry O          line   271 file /work/zw18965/.conda/envs/p4env/share/psi4/basis/cc-pv_tpd_z.gbs 
    atoms 2 entry C          line   195 file /work/zw18965/.conda/envs/p4env/share/psi4/basis/cc-pv_tpd_z.gbs 
    atoms 3 entry S          line   788 file /work/zw18965/.conda/envs/p4env/share/psi4/basis/cc-pv_tpd_z.gbs 


         ---------------------------------------------------------
                                   SCF
               by Justin Turney, Rob Parrish, Andy Simmonett
                          and Daniel G. A. Smith
                              RKS Reference
                       24 Threads, 137329 MiB Core
         ---------------------------------------------------------

  ==> Geometry <==

    Molecular point group: cs
    Full point group: Cs

    Geometry (in Angstrom), charge = 0, multiplicity = 1:

       Center              X                  Y                   Z               Mass       
    ------------   -----------------  -----------------  -----------------  -----------------
         O            0.000000000000    -0.000287467351    -1.677276386692    15.994914619570
         C            0.000000000000     0.000665782729    -0.525403079706    12.000000000000
         S            0.000000000000    -0.000106073110     1.036302258127    31.972071174400

  Running in cs symmetry.

  Rotational constants: A = 2407987.46702  B =      0.20397  C =      0.20397 [cm^-1]
  Rotational constants: A = 72189648157.17369  B =   6114.99234  C =   6114.99183 [MHz]
  Nuclear repulsion =   79.542041274285708

  Charge       = 0
  Multiplicity = 1
  Electrons    = 30
  Nalpha       = 15
  Nbeta        = 15

  ==> Algorithm <==

  SCF Algorithm Type is DF.
  DIIS enabled.
  MOM disabled.
  Fractional occupation disabled.
  Guess Type is SAD.
  Energy threshold   = 1.00e-10
  Density threshold  = 1.00e-10
  Integral threshold = 0.00e+00

  ==> Primary Basis <==

  Basis Set: CC-PV(T+D)Z
    Blend: CC-PV(T+D)Z
    Number of shells: 33
    Number of basis function: 99
    Number of Cartesian functions: 115
    Spherical Harmonics?: true
    Max angular momentum: 3

  ==> DFT Potential <==

   => Composite Functional: WB97M-V <= 

    wB97M-V Hyb-GGA Exchange-Correlation Functional

    N. Mardirossian and M. Head-Gordon, J. Chem. Phys. 144, 214110 (2016)

    Deriv               =              1
    GGA                 =           TRUE
    Meta                =           TRUE

    Exchange Hybrid     =           TRUE
    MP2 Hybrid          =          FALSE

   => Exchange-Correlation Functionals <=

    1.0000   wB97M-V exchange-correlation functional

   => Exact (HF) Exchange <=

    0.8500            HF,LR [omega = 0.3000]
    0.1500               HF 

   => VV10 Non-Local Parameters <=

    VV10 B              =     6.0000E+00
    VV10 C              =     1.0000E-02

   => Molecular Quadrature <=

    Radial Scheme          =       TREUTLER
    Pruning Scheme         =           FLAT
    Nuclear Scheme         =       TREUTLER

    BS radius alpha        =              1
    Pruning alpha          =              1
    Radial Points          =             75
    Spherical Points       =            302
    Total Points           =          65087
    Total Blocks           =            563
    Max Points             =            256
    Max Functions          =             99

   => Loading Basis Set <=

    Name: (CC-PV(T+D)Z AUX)
    Role: JKFIT
    Keyword: DF_BASIS_SCF
    atoms 1 entry O          line   229 file /work/zw18965/.conda/envs/p4env/share/psi4/basis/cc-pvtz-jkfit.gbs 
    atoms 2 entry C          line   125 file /work/zw18965/.conda/envs/p4env/share/psi4/basis/cc-pvtz-jkfit.gbs 
    atoms 3 entry S          line   613 file /work/zw18965/.conda/envs/p4env/share/psi4/basis/cc-pvtz-jkfit.gbs 

  ==> Pre-Iterations <==

   -------------------------------------------------------
    Irrep   Nso     Nmo     Nalpha   Nbeta   Ndocc  Nsocc
   -------------------------------------------------------
     A'        66      66       0       0       0       0
     A"        33      33       0       0       0       0
   -------------------------------------------------------
    Total      99      99      15      15      15       0
   -------------------------------------------------------

  ==> Integral Setup <==

  ==> DiskDFJK: Density-Fitted J/K Matrices <==

    J tasked:                  Yes
    K tasked:                  Yes
    wK tasked:                 Yes
    Omega:               3.000E-01
    OpenMP threads:             24
    Integrals threads:          24
    Memory [MiB]:           102580
    Algorithm:                Core
    Integral Cache:           NONE
    Schwarz Cutoff:          1E-12
    Fitting Condition:       1E-10

   => Auxiliary Basis Set <=

  Basis Set: (CC-PV(T+D)Z AUX)
    Blend: CC-PVTZ-JKFIT
    Number of shells: 87
    Number of basis function: 279
    Number of Cartesian functions: 337
    Spherical Harmonics?: true
    Max angular momentum: 4

  Cached 100.0% of DFT collocation blocks in 0.407 [GiB].

  Minimum eigenvalue in the overlap matrix is 1.2167052704E-03.
  Using Symmetric Orthogonalization.

  SCF Guess: Superposition of Atomic Densities via on-the-fly atomic UHF.

  ==> Iterations <==

                           Total Energy        Delta E     RMS |[F,P]|

   @DF-RKS iter SAD:  -511.03955523924293   -5.11040e+02   0.00000e+00 
   @DF-RKS iter   1:  -511.48039723018138   -4.40842e-01   6.30474e-03 DIIS
   @DF-RKS iter   2:  -511.42212930207950    5.82679e-02   8.47721e-03 DIIS
   @DF-RKS iter   3:  -511.55100257782937   -1.28873e-01   9.60124e-04 DIIS
   @DF-RKS iter   4:  -511.55308619736263   -2.08362e-03   2.06814e-04 DIIS
   @DF-RKS iter   5:  -511.55320351555184   -1.17318e-04   9.31240e-05 DIIS
   @DF-RKS iter   6:  -511.55323421779082   -3.07022e-05   3.04716e-05 DIIS
   @DF-RKS iter   7:  -511.55323770290056   -3.48511e-06   4.45888e-06 DIIS
   @DF-RKS iter   8:  -511.55323784269092   -1.39790e-07   7.59895e-07 DIIS
   @DF-RKS iter   9:  -511.55323784605173   -3.36081e-09   2.23712e-07 DIIS
   @DF-RKS iter  10:  -511.55323784620452   -1.52795e-10   4.06040e-08 DIIS
   @DF-RKS iter  11:  -511.55323784620890   -4.37694e-12   5.36497e-09 DIIS
   @DF-RKS iter  12:  -511.55323784620902   -1.13687e-13   1.15879e-09 DIIS
   @DF-RKS iter  13:  -511.55323784620884    1.70530e-13   1.07845e-10 DIIS
   @DF-RKS iter  14:  -511.55323784620930   -4.54747e-13   3.17411e-11 DIIS
  Energy and wave function converged.


  ==> Post-Iterations <==

    Orbital Energies [Eh]
    ---------------------

    Doubly Occupied:                                                      

       1Ap   -89.233042     2Ap   -19.420612     3Ap   -10.512856  
       4Ap    -8.149082     5Ap    -6.059481     1App   -6.053361  
       6Ap    -6.053361     7Ap    -1.277061     8Ap    -0.943103  
       9Ap    -0.667325     2App   -0.592746    10Ap    -0.592746  
      11Ap    -0.574338     3App   -0.393449    12Ap    -0.393449  

    Virtual:                                                              

      13Ap     0.055500     4App    0.055501    14Ap     0.129587  
      15Ap     0.189538    16Ap     0.301507     5App    0.337802  
      17Ap     0.337802    18Ap     0.402713     6App    0.402713  
       7App    0.409334    19Ap     0.409336    20Ap     0.421279  
      21Ap     0.550863     8App    0.550863    22Ap     0.590526  
      23Ap     0.701502    24Ap     0.730298    25Ap     0.744505  
       9App    0.744505    10App    0.748408    26Ap     0.748410  
      27Ap     1.088136    11App    1.199139    28Ap     1.199140  
      29Ap     1.226233    30Ap     1.506510    31Ap     1.509530  
      12App    1.509535    13App    1.551952    32Ap     1.551952  
      14App    1.561773    33Ap     1.561775    15App    1.721115  
      34Ap     1.721115    16App    1.861274    35Ap     1.861276  
      36Ap     1.906564    37Ap     1.944481    17App    1.944486  
      38Ap     1.958618    18App    1.970191    39Ap     1.970192  
      19App    2.165441    40Ap     2.165441    41Ap     2.214609  
      42Ap     2.500221    20App    2.500223    43Ap     2.592062  
      21App    2.691658    44Ap     2.691658    45Ap     2.846282  
      22App    2.961503    46Ap     2.961514    47Ap     3.053100  
      23App    3.053102    24App    3.133738    48Ap     3.133738  
      49Ap     3.585772    50Ap     3.690493    25App    3.690493  
      51Ap     3.840894    26App    4.254630    52Ap     4.254631  
      53Ap     4.783493    54Ap     5.068072    27App    5.205401  
      55Ap     5.205401    56Ap     5.596902    28App    5.596907  
      29App    6.359427    57Ap     6.359437    30App    6.442109  
      58Ap     6.442110    59Ap     6.488175    60Ap     6.779759  
      31App    6.779791    61Ap     6.859882    32App    6.859882  
      62Ap     7.012577    63Ap     7.178994    33App    7.179015  
      64Ap     7.182489    65Ap     8.775047    66Ap    14.104858  

    Final Occupation by Irrep:
             Ap   App 
    DOCC [    12,    3 ]

  @DF-RKS Final Energy:  -511.55323784620930

   => Energetics <=

    Nuclear Repulsion Energy =             79.5420412742857081
    One-Electron Energy =                -861.6227755946192701
    Two-Electron Energy =                 300.3157729688561517
    DFT Exchange-Correlation Energy =     -29.9127594080992836
    Empirical Dispersion Energy =           0.0000000000000000
    VV10 Nonlocal Energy =                  0.1244829133674704
    Total Energy =                       -511.5532378462092993

Computation Completed


Properties will be evaluated at   0.000000,   0.000000,   0.000000 [a0]

Properties computed using the SCF density matrix

  Nuclear Dipole Moment: [e a0]
     X:     0.0000      Y:    -0.0000      Z:     0.0193

  Electronic Dipole Moment: [e a0]
     X:     0.0000      Y:     0.0003      Z:     0.2139

  Dipole Moment: [e a0]
     X:     0.0000      Y:     0.0003      Z:     0.2332     Total:     0.2332

  Dipole Moment: [D]
     X:     0.0000      Y:     0.0008      Z:     0.5926     Total:     0.5926


*** tstop() called on bp1-compute00100.data.bp.acrc.priv at Tue Apr 27 17:48:39 2021
Module time:
	user time   =      87.84 seconds =       1.46 minutes
	system time =       2.24 seconds =       0.04 minutes
	total time  =          3 seconds =       0.05 minutes
Total time:
	user time   =    2158.73 seconds =      35.98 minutes
	system time =      64.55 seconds =       1.08 minutes
	total time  =         94 seconds =       1.57 minutes

         ----------------------------------------------------------
                                   FINDIF
                     R. A. King and Jonathon Misiewicz
         ---------------------------------------------------------

  Computing second-derivative from energies using projected, 
  symmetry-adapted, cartesian coordinates.

  9 energies passed in, including the reference geometry.
    Using 3-point formula.
    Energy without displacement: -511.5532379815
    Check energies below for precision!
    0: -1        :      -511.5532367279
    0: 1         :      -511.5532368779
    1: -1        :      -511.5532368440
    1: 1         :      -511.5532363686
    0: 1, 1: 1   :      -511.5532370635
    0: -1, 1: -1 :      -511.5532373872
    2: -1        :      -511.5532378461
    3: -1        :      -511.5532378462

-------------------------------------------------------------


  ==> Harmonic Vibrational Analysis <==

  non-mass-weighted Hessian:       Symmetric? True   Hermitian? True   Lin Dep Dim?  5 (0)
  projection of translations (True) and rotations (True) removed 5 degrees of freedom (5)
  total projector:                 Symmetric? True   Hermitian? True   Lin Dep Dim?  5 (5)
  mass-weighted Hessian:           Symmetric? True   Hermitian? True   Lin Dep Dim?  5 (0)
  pre-proj  low-frequency mode:    0.0000i [cm^-1]
  pre-proj  low-frequency mode:    0.0000i [cm^-1]
  pre-proj  low-frequency mode:    0.0000i [cm^-1]
  pre-proj  low-frequency mode:    0.0000i [cm^-1]
  pre-proj  low-frequency mode:    0.0000  [cm^-1]
  pre-proj  all modes:['0.0000i' '0.0000i' '0.0000i' '0.0000i' '0.0000' '534.7010' '535.0007'
 '887.6035' '2147.2251']
  projected mass-weighted Hessian: Symmetric? True   Hermitian? True   Lin Dep Dim?  5 (5)
  post-proj low-frequency mode:    0.0000i [cm^-1] (TR)
  post-proj low-frequency mode:    0.0000i [cm^-1] (TR)
  post-proj low-frequency mode:    0.0000  [cm^-1] (TR)
  post-proj low-frequency mode:    0.0000  [cm^-1] (TR)
  post-proj low-frequency mode:    0.0000  [cm^-1] (TR)
  post-proj  all modes:['0.0000i' '0.0000i' '0.0000' '0.0000' '0.0000' '534.7010' '535.0007'
 '887.6035' '2147.2251']

  Vibration                       6                   7                   8           
  Freq [cm^-1]                 534.7010            535.0007            887.6035       
  Irrep                           B2                  B1                  A1          
  Reduced mass [u]             13.0329             13.0329             19.5923        
  Force const [mDyne/A]         2.1954              2.1979              9.0944        
  Turning point v=0 [a0]        0.1314              0.1314              0.0832        
  RMS dev v=0 [a0 u^1/2]        0.3355              0.3354              0.2604        
  Char temp [K]                769.3156            769.7468           1277.0638       
  ----------------------------------------------------------------------------------
      1   O                0.00 -0.39 -0.00   -0.39  0.00 -0.00    0.00 -0.00 -0.71   
      2   C               -0.00  0.91 -0.00    0.91  0.00 -0.00   -0.00  0.00 -0.47   
      3   S                0.00 -0.14 -0.00   -0.14 -0.00 -0.00   -0.00 -0.00  0.53   

  Vibration                       9           
  Freq [cm^-1]                2147.2251       
  Irrep                           A1          
  Reduced mass [u]             13.1471        
  Force const [mDyne/A]        35.7137        
  Turning point v=0 [a0]        0.0653        
  RMS dev v=0 [a0 u^1/2]        0.1674        
  Char temp [K]               3089.3789       
  ----------------------------------------------------------------------------------
      1   O                0.00  0.00 -0.52   
      2   C                0.00  0.00  0.85   
      3   S                0.00  0.00 -0.06   

  ==> Thermochemistry Components <==

  Entropy, S
    Electronic S            0.000 [cal/(mol K)]        0.000 [J/(mol K)]       0.00000000 [mEh/K] (multiplicity = 1)
    Translational S        38.194 [cal/(mol K)]      159.802 [J/(mol K)]       0.06086550 [mEh/K] (mol. weight = 59.9670 [u], P = 101325.00 [Pa])
    Rotational S           15.746 [cal/(mol K)]       65.880 [J/(mol K)]       0.02509243 [mEh/K] (symmetry no. = 1)
    Vibrational S           1.300 [cal/(mol K)]        5.441 [J/(mol K)]       0.00207222 [mEh/K]
  Total S                  55.240 [cal/(mol K)]      231.123 [J/(mol K)]       0.08803015 [mEh/K]
  Correction S              0.000 [cal/(mol K)]        0.000 [J/(mol K)]       0.00000000 [mEh/K]

  Constant volume heat capacity, Cv
    Electronic Cv           0.000 [cal/(mol K)]        0.000 [J/(mol K)]       0.00000000 [mEh/K]
    Translational Cv        2.981 [cal/(mol K)]       12.472 [J/(mol K)]       0.00475022 [mEh/K]
    Rotational Cv           1.987 [cal/(mol K)]        8.314 [J/(mol K)]       0.00316681 [mEh/K]
    Vibrational Cv          2.870 [cal/(mol K)]       12.007 [J/(mol K)]       0.00457333 [mEh/K]
  Total Cv                  7.838 [cal/(mol K)]       32.793 [J/(mol K)]       0.01249036 [mEh/K]
  Correction Cv             0.000 [cal/(mol K)]        0.000 [J/(mol K)]       0.00000000 [mEh/K]

  Constant pressure heat capacity, Cp
    Electronic Cp           0.000 [cal/(mol K)]        0.000 [J/(mol K)]       0.00000000 [mEh/K]
    Translational Cp        4.968 [cal/(mol K)]       20.786 [J/(mol K)]       0.00791703 [mEh/K]
    Rotational Cp           1.987 [cal/(mol K)]        8.314 [J/(mol K)]       0.00316681 [mEh/K]
    Vibrational Cp          2.870 [cal/(mol K)]       12.007 [J/(mol K)]       0.00457333 [mEh/K]
  Total Cp                  9.825 [cal/(mol K)]       41.108 [J/(mol K)]       0.01565717 [mEh/K]
  Correction Cp             0.000 [cal/(mol K)]        0.000 [J/(mol K)]       0.00000000 [mEh/K]

  ==> Thermochemistry Energy Analysis <==

  Raw electronic energy, E0
  Total E0, Electronic energy at well bottom at 0 [K]                 -511.55323798 [Eh]

  Zero-point energy, ZPE_vib = Sum_i nu_i / 2
    Electronic ZPE          0.000 [kcal/mol]        0.000 [kJ/mol]       0.00000000 [Eh]
    Translational ZPE       0.000 [kcal/mol]        0.000 [kJ/mol]       0.00000000 [Eh]
    Rotational ZPE          0.000 [kcal/mol]        0.000 [kJ/mol]       0.00000000 [Eh]
    Vibrational ZPE         5.868 [kcal/mol]       24.551 [kJ/mol]       0.00935081 [Eh]        2052.265 [cm^-1]
  Correction ZPE            5.868 [kcal/mol]       24.551 [kJ/mol]       0.00935081 [Eh]        2052.265 [cm^-1]
  Total ZPE, Electronic energy at 0 [K]                               -511.54388717 [Eh]

  Thermal Energy, E (includes ZPE)
    Electronic E            0.000 [kcal/mol]        0.000 [kJ/mol]       0.00000000 [Eh]
    Translational E         0.889 [kcal/mol]        3.718 [kJ/mol]       0.00141628 [Eh]
    Rotational E            0.592 [kcal/mol]        2.479 [kJ/mol]       0.00094418 [Eh]
    Vibrational E           6.154 [kcal/mol]       25.748 [kJ/mol]       0.00980685 [Eh]
  Correction E              7.635 [kcal/mol]       31.945 [kJ/mol]       0.01216731 [Eh]
  Total E, Electronic energy at  298.15 [K]                           -511.54107067 [Eh]

  Enthalpy, H_trans = E_trans + k_B * T
    Electronic H            0.000 [kcal/mol]        0.000 [kJ/mol]       0.00000000 [Eh]
    Translational H         1.481 [kcal/mol]        6.197 [kJ/mol]       0.00236046 [Eh]
    Rotational H            0.592 [kcal/mol]        2.479 [kJ/mol]       0.00094418 [Eh]
    Vibrational H           6.154 [kcal/mol]       25.748 [kJ/mol]       0.00980685 [Eh]
  Correction H              8.228 [kcal/mol]       34.424 [kJ/mol]       0.01311150 [Eh]
  Total H, Enthalpy at  298.15 [K]                                    -511.54012648 [Eh]

  Gibbs free energy, G = H - T * S
    Electronic G            0.000 [kcal/mol]        0.000 [kJ/mol]       0.00000000 [Eh]
    Translational G        -9.906 [kcal/mol]      -41.448 [kJ/mol]      -0.01578659 [Eh]
    Rotational G           -4.102 [kcal/mol]      -17.163 [kJ/mol]      -0.00653712 [Eh]
    Vibrational G           5.766 [kcal/mol]       24.126 [kJ/mol]       0.00918902 [Eh]
  Correction G             -8.242 [kcal/mol]      -34.485 [kJ/mol]      -0.01313469 [Eh]
  Total G, Free enthalpy at  298.15 [K]                               -511.56637268 [Eh]

    Psi4 stopped on: Tuesday, 27 April 2021 05:48PM
    Psi4 wall time for execution: 0:01:34.52

*** Psi4 exiting successfully. Buy a developer a beer!
