
    -----------------------------------------------------------------------
          Psi4: An Open-Source Ab Initio Electronic Structure Package
                               Psi4 1.3.2 release

                         Git: Rev {HEAD} ecbda83 


    R. M. Parrish, L. A. Burns, D. G. A. Smith, A. C. Simmonett,
    A. E. DePrince III, E. G. Hohenstein, U. Bozkaya, A. Yu. Sokolov,
    R. Di Remigio, R. M. Richard, J. F. Gonthier, A. M. James,
    H. R. McAlexander, A. Kumar, M. Saitow, X. Wang, B. P. Pritchard,
    P. Verma, H. F. Schaefer III, K. Patkowski, R. A. King, E. F. Valeev,
    F. A. Evangelista, J. M. Turney, T. D. Crawford, and C. D. Sherrill,
    J. Chem. Theory Comput. 13(7) pp 3185--3197 (2017).
    (doi: 10.1021/acs.jctc.7b00174)


                         Additional Contributions by
    P. Kraus, H. Kruse, M. H. Lechner, M. C. Schieber, R. A. Shaw,
    A. Alenaizan, R. Galvelis, Z. L. Glick, S. Lehtola, and J. P. Misiewicz

    -----------------------------------------------------------------------


    Psi4 started on: Tuesday, 27 April 2021 05:48PM

    Process ID: 38314
    Host:       bp1-compute00100.data.bp.acrc.priv
    PSIDATADIR: /work/zw18965/.conda/envs/p4env/share/psi4
    Memory:     500.0 MiB
    Threads:    24
    
  ==> Input File <==

--------------------------------------------------------------------------
memory 144 GB

molecule {
0 3
S 0.0000000000 0.0000000000 0.0000000000
O 0.0000000000 0.0000000000 1.4862145500
}

set reference uks
set dynamic_level 1
set basis cc-pV(T+d)Z
 
optimize("wB97M-V")
frequencies("wB97M-V")
--------------------------------------------------------------------------

  Memory set to 134.110 GiB by Python driver.
gradient() will perform gradient computation by finite difference of analytic energies.

         ----------------------------------------------------------
                                   FINDIF
                     R. A. King and Jonathon Misiewicz
         ---------------------------------------------------------

  Using finite-differences of energies to determine gradients.
    Generating geometries for use with 3-point formula.
    Displacement size will be 5.00e-03.
    Number of atoms is 2.
    Number of symmetric SALCs is 1.
    Translations projected? 1. Rotations projected? 1.
    Number of geometries (including reference) is 3.

  //>>>>>>>>>>>>>>>>>>>>>>>>>>>>>>>>>>>//
  //    Loading displacement 1 of 3    //
  //<<<<<<<<<<<<<<<<<<<<<<<<<<<<<<<<<<<//

*** tstart() called on bp1-compute00100.data.bp.acrc.priv
*** at Tue Apr 27 17:48:45 2021

   => Loading Basis Set <=

    Name: CC-PV(T+D)Z
    Role: ORBITAL
    Keyword: BASIS
    atoms 1 entry S          line   788 file /work/zw18965/.conda/envs/p4env/share/psi4/basis/cc-pv_tpd_z.gbs 
    atoms 2 entry O          line   271 file /work/zw18965/.conda/envs/p4env/share/psi4/basis/cc-pv_tpd_z.gbs 


         ---------------------------------------------------------
                                   SCF
               by Justin Turney, Rob Parrish, Andy Simmonett
                          and Daniel G. A. Smith
                              UKS Reference
                       24 Threads, 137329 MiB Core
         ---------------------------------------------------------

  ==> Geometry <==

    Molecular point group: c2v
    Full point group: C_inf_v

    Geometry (in Angstrom), charge = 0, multiplicity = 3:

       Center              X                  Y                   Z               Mass       
    ------------   -----------------  -----------------  -----------------  -----------------
         S            0.000000000000     0.000000000000    -0.495588255967    31.972071174400
         O            0.000000000000     0.000000000000     0.990626294033    15.994914619570

  Running in c2v symmetry.

  Rotational constants: A = ************  B =      0.71585  C =      0.71585 [cm^-1]
  Rotational constants: A = ************  B =  21460.70147  C =  21460.70147 [MHz]
  Nuclear repulsion =   45.575306045658088

  Charge       = 0
  Multiplicity = 3
  Electrons    = 24
  Nalpha       = 13
  Nbeta        = 11

  ==> Algorithm <==

  SCF Algorithm Type is DF.
  DIIS enabled.
  MOM disabled.
  Fractional occupation disabled.
  Guess Type is SAD.
  Energy threshold   = 1.00e-08
  Density threshold  = 1.00e-08
  Integral threshold = 0.00e+00

  ==> Primary Basis <==

  Basis Set: CC-PV(T+D)Z
    Blend: CC-PV(T+D)Z
    Number of shells: 23
    Number of basis function: 69
    Number of Cartesian functions: 80
    Spherical Harmonics?: true
    Max angular momentum: 3

  ==> DFT Potential <==

   => Composite Functional: WB97M-V <= 

    wB97M-V Hyb-GGA Exchange-Correlation Functional

    N. Mardirossian and M. Head-Gordon, J. Chem. Phys. 144, 214110 (2016)

    Deriv               =              1
    GGA                 =           TRUE
    Meta                =           TRUE

    Exchange Hybrid     =           TRUE
    MP2 Hybrid          =          FALSE

   => Exchange-Correlation Functionals <=

    1.0000   wB97M-V exchange-correlation functional

   => Exact (HF) Exchange <=

    0.8500            HF,LR [omega = 0.3000]
    0.1500               HF 

   => VV10 Non-Local Parameters <=

    VV10 B              =     6.0000E+00
    VV10 C              =     1.0000E-02

   => Molecular Quadrature <=

    Radial Scheme          =       TREUTLER
    Pruning Scheme         =           FLAT
    Nuclear Scheme         =       TREUTLER

    BS radius alpha        =              1
    Pruning alpha          =              1
    Radial Points          =             75
    Spherical Points       =            302
    Total Points           =          43136
    Total Blocks           =            392
    Max Points             =            256
    Max Functions          =             69

   => Loading Basis Set <=

    Name: (CC-PV(T+D)Z AUX)
    Role: JKFIT
    Keyword: DF_BASIS_SCF
    atoms 1 entry S          line   613 file /work/zw18965/.conda/envs/p4env/share/psi4/basis/cc-pvtz-jkfit.gbs 
    atoms 2 entry O          line   229 file /work/zw18965/.conda/envs/p4env/share/psi4/basis/cc-pvtz-jkfit.gbs 

  ==> Pre-Iterations <==

   -------------------------------------------------------
    Irrep   Nso     Nmo     Nalpha   Nbeta   Ndocc  Nsocc
   -------------------------------------------------------
     A1        30      30       0       0       0       0
     A2         7       7       0       0       0       0
     B1        16      16       0       0       0       0
     B2        16      16       0       0       0       0
   -------------------------------------------------------
    Total      69      69      13      11      11       2
   -------------------------------------------------------

  ==> Integral Setup <==

  ==> DiskDFJK: Density-Fitted J/K Matrices <==

    J tasked:                  Yes
    K tasked:                  Yes
    wK tasked:                 Yes
    Omega:               3.000E-01
    OpenMP threads:             24
    Integrals threads:          24
    Memory [MiB]:           102792
    Algorithm:                Core
    Integral Cache:           NONE
    Schwarz Cutoff:          1E-12
    Fitting Condition:       1E-10

   => Auxiliary Basis Set <=

  Basis Set: (CC-PV(T+D)Z AUX)
    Blend: CC-PVTZ-JKFIT
    Number of shells: 62
    Number of basis function: 200
    Number of Cartesian functions: 241
    Spherical Harmonics?: true
    Max angular momentum: 4

  Cached 100.0% of DFT collocation blocks in 0.199 [GiB].

  Minimum eigenvalue in the overlap matrix is 4.6685952605E-03.
  Using Symmetric Orthogonalization.

  SCF Guess: Superposition of Atomic Densities via on-the-fly atomic UHF.

  ==> Iterations <==

                           Total Energy        Delta E     RMS |[F,P]|

   @DF-UKS iter SAD:  -472.92770451946831   -4.72928e+02   0.00000e+00 
   @DF-UKS iter   1:  -473.29156888634179   -3.63864e-01   1.19932e-02 DIIS
   @DF-UKS iter   2:  -473.20021983539283    9.13491e-02   1.79654e-02 DIIS
   @DF-UKS iter   3:  -473.37069392168308   -1.70474e-01   1.30954e-03 DIIS
   @DF-UKS iter   4:  -473.37173101143151   -1.03709e-03   3.94742e-04 DIIS
   @DF-UKS iter   5:  -473.37192778270082   -1.96771e-04   1.21886e-04 DIIS
   @DF-UKS iter   6:  -473.37195822845524   -3.04458e-05   4.62917e-05 DIIS
   @DF-UKS iter   7:  -473.37196418524911   -5.95679e-06   1.56901e-05 DIIS
   @DF-UKS iter   8:  -473.37196459670957   -4.11460e-07   4.93075e-06 DIIS
   @DF-UKS iter   9:  -473.37196463121637   -3.45068e-08   7.73543e-07 DIIS
   @DF-UKS iter  10:  -473.37196463213417   -9.17794e-10   1.46614e-07 DIIS
   @DF-UKS iter  11:  -473.37196463217418   -4.00178e-11   4.43942e-08 DIIS
   @DF-UKS iter  12:  -473.37196463217725   -3.06954e-12   9.73588e-09 DIIS
  Energy and wave function converged.


  ==> Post-Iterations <==

   @Spin Contamination Metric:   7.760043170E-03
   @S^2 Expected:                2.000000000E+00
   @S^2 Observed:                2.007760043E+00
   @S   Expected:                1.000000000E+00
   @S   Observed:                1.000000000E+00

    Orbital Energies [Eh]
    ---------------------

    Alpha Occupied:                                                       

       1A1   -89.294177     2A1   -19.406081     3A1    -8.202851  
       1B2    -6.112831     1B1    -6.112831     4A1    -6.110076  
       5A1    -1.215158     6A1    -0.799397     2B1    -0.563605  
       2B2    -0.563605     7A1    -0.558932     3B2    -0.352758  
       3B1    -0.352758  

    Alpha Virtual:                                                        

       8A1     0.089265     4B2     0.340537     4B1     0.340537  
       9A1     0.359278     1A2     0.380900    10A1     0.380900  
      11A1     0.384698     5B2     0.476375     5B1     0.476375  
      12A1     0.580714     6B1     0.725580     6B2     0.725580  
      13A1     0.870016    14A1     1.226009    15A1     1.393668  
       2A2     1.393678     7B2     1.455251     7B1     1.455251  
      16A1     1.466142     3A2     1.466147    17A1     1.525169  
       8B2     1.643837     8B1     1.643837     9B1     1.665180  
       9B2     1.665180    18A1     1.894463     4A2     1.894466  
      10B2     1.928680    10B1     1.928680    19A1     1.967030  
      20A1     2.232009    11B1     2.437892    11B2     2.437892  
      21A1     2.530106    22A1     3.589707    12B1     3.808317  
      12B2     3.808317    23A1     4.930977    13B1     5.176398  
      13B2     5.176398     5A2     5.245253    24A1     5.245273  
      14B1     5.345881    14B2     5.345881    25A1     5.466923  
       6A2     6.284957    26A1     6.284970    15B1     6.574917  
      15B2     6.574917    27A1     6.716564     7A2     6.716591  
      28A1     6.747522    16B1     6.995304    16B2     6.995304  
      29A1     7.473665    30A1     8.984457  

    Beta Occupied:                                                        

       1A1   -89.286950     2A1   -19.384007     3A1    -8.195622  
       4A1    -6.105745     1B2    -6.097162     1B1    -6.097162  
       5A1    -1.174868     6A1    -0.735917     7A1    -0.523921  
       2B2    -0.490211     2B1    -0.490211  

    Beta Virtual:                                                         

       3B2    -0.036425     3B1    -0.036425     8A1     0.110122  
       4B2     0.349616     4B1     0.349616     9A1     0.375823  
      10A1     0.401838     1A2     0.429330    11A1     0.429330  
       5B2     0.523990     5B1     0.523990    12A1     0.591156  
       6B2     0.748945     6B1     0.748945    13A1     0.896519  
      14A1     1.243705    15A1     1.437079     2A2     1.437082  
       7B1     1.483756     7B2     1.483756    16A1     1.517525  
       3A2     1.517527    17A1     1.553309     8B1     1.676770  
       8B2     1.676770     9B1     1.734340     9B2     1.734340  
      18A1     1.942263     4A2     1.942265    10B1     1.996430  
      10B2     1.996430    19A1     1.999580    20A1     2.249227  
      11B1     2.473246    11B2     2.473246    21A1     2.559887  
      22A1     3.619293    12B2     3.879067    12B1     3.879067  
      23A1     4.956188    13B1     5.237532    13B2     5.237532  
       5A2     5.285488    24A1     5.285495    14B2     5.375535  
      14B1     5.375535    25A1     5.492347     6A2     6.377830  
      26A1     6.377846    15B2     6.619960    15B1     6.619960  
      27A1     6.732211     7A2     6.732227    28A1     6.774745  
      16B2     7.015602    16B1     7.015602    29A1     7.503911  
      30A1     9.028767  

    Final Occupation by Irrep:
             A1    A2    B1    B2 
    DOCC [     7,    0,    2,    2 ]
    SOCC [     0,    0,    1,    1 ]

  @DF-UKS Final Energy:  -473.37196463217725

   => Energetics <=

    Nuclear Repulsion Energy =             45.5753060456580883
    One-Electron Energy =                -743.3619150582958355
    Two-Electron Energy =                 250.3510332504690155
    DFT Exchange-Correlation Energy =     -26.0372052390182063
    Empirical Dispersion Energy =           0.0000000000000000
    VV10 Nonlocal Energy =                  0.1008163690097294
    Total Energy =                       -473.3719646321771961

  UHF NO Occupations:
  HONO-2 :    2 B1 1.9983531
  HONO-1 :    3 B1 1.0000000
  HONO-0 :    3 B2 1.0000000
  LUNO+0 :    4 B1 0.0016469
  LUNO+1 :    4 B2 0.0016469
  LUNO+2 :    8 A1 0.0003234
  LUNO+3 :    9 A1 0.0001997


Computation Completed


Properties will be evaluated at   0.000000,   0.000000,   0.000000 [a0]

Properties computed using the SCF density matrix

  Nuclear Dipole Moment: [e a0]
     X:     0.0000      Y:     0.0000      Z:    -0.0083

  Electronic Dipole Moment: [e a0]
     X:     0.0000      Y:     0.0000      Z:    -0.6194

  Dipole Moment: [e a0]
     X:     0.0000      Y:     0.0000      Z:    -0.6277     Total:     0.6277

  Dipole Moment: [D]
     X:     0.0000      Y:     0.0000      Z:    -1.5955     Total:     1.5955


*** tstop() called on bp1-compute00100.data.bp.acrc.priv at Tue Apr 27 17:48:51 2021
Module time:
	user time   =     142.88 seconds =       2.38 minutes
	system time =       7.54 seconds =       0.13 minutes
	total time  =          6 seconds =       0.10 minutes
Total time:
	user time   =     142.88 seconds =       2.38 minutes
	system time =       7.54 seconds =       0.13 minutes
	total time  =          6 seconds =       0.10 minutes

  //>>>>>>>>>>>>>>>>>>>>>>>>>>>>>>>>>>>//
  //    Loading displacement 2 of 3    //
  //<<<<<<<<<<<<<<<<<<<<<<<<<<<<<<<<<<<//

*** tstart() called on bp1-compute00100.data.bp.acrc.priv
*** at Tue Apr 27 17:48:51 2021

   => Loading Basis Set <=

    Name: CC-PV(T+D)Z
    Role: ORBITAL
    Keyword: BASIS
    atoms 1 entry S          line   788 file /work/zw18965/.conda/envs/p4env/share/psi4/basis/cc-pv_tpd_z.gbs 
    atoms 2 entry O          line   271 file /work/zw18965/.conda/envs/p4env/share/psi4/basis/cc-pv_tpd_z.gbs 


         ---------------------------------------------------------
                                   SCF
               by Justin Turney, Rob Parrish, Andy Simmonett
                          and Daniel G. A. Smith
                              UKS Reference
                       24 Threads, 137329 MiB Core
         ---------------------------------------------------------

  ==> Geometry <==

    Molecular point group: c2v
    Full point group: C_inf_v

    Geometry (in Angstrom), charge = 0, multiplicity = 3:

       Center              X                  Y                   Z               Mass       
    ------------   -----------------  -----------------  -----------------  -----------------
         S            0.000000000000     0.000000000000    -0.495858468507    31.972071174400
         O            0.000000000000     0.000000000000     0.991166419115    15.994914619570

  Running in c2v symmetry.

  Rotational constants: A = ************  B =      0.71507  C =      0.71507 [cm^-1]
  Rotational constants: A = ************  B =  21437.31830  C =  21437.31830 [MHz]
  Nuclear repulsion =   45.550470291095749

  Charge       = 0
  Multiplicity = 3
  Electrons    = 24
  Nalpha       = 13
  Nbeta        = 11

  ==> Algorithm <==

  SCF Algorithm Type is DF.
  DIIS enabled.
  MOM disabled.
  Fractional occupation disabled.
  Guess Type is SAD.
  Energy threshold   = 1.00e-08
  Density threshold  = 1.00e-08
  Integral threshold = 0.00e+00

  ==> Primary Basis <==

  Basis Set: CC-PV(T+D)Z
    Blend: CC-PV(T+D)Z
    Number of shells: 23
    Number of basis function: 69
    Number of Cartesian functions: 80
    Spherical Harmonics?: true
    Max angular momentum: 3

  ==> DFT Potential <==

   => Composite Functional: WB97M-V <= 

    wB97M-V Hyb-GGA Exchange-Correlation Functional

    N. Mardirossian and M. Head-Gordon, J. Chem. Phys. 144, 214110 (2016)

    Deriv               =              1
    GGA                 =           TRUE
    Meta                =           TRUE

    Exchange Hybrid     =           TRUE
    MP2 Hybrid          =          FALSE

   => Exchange-Correlation Functionals <=

    1.0000   wB97M-V exchange-correlation functional

   => Exact (HF) Exchange <=

    0.8500            HF,LR [omega = 0.3000]
    0.1500               HF 

   => VV10 Non-Local Parameters <=

    VV10 B              =     6.0000E+00
    VV10 C              =     1.0000E-02

   => Molecular Quadrature <=

    Radial Scheme          =       TREUTLER
    Pruning Scheme         =           FLAT
    Nuclear Scheme         =       TREUTLER

    BS radius alpha        =              1
    Pruning alpha          =              1
    Radial Points          =             75
    Spherical Points       =            302
    Total Points           =          43136
    Total Blocks           =            392
    Max Points             =            256
    Max Functions          =             69

   => Loading Basis Set <=

    Name: (CC-PV(T+D)Z AUX)
    Role: JKFIT
    Keyword: DF_BASIS_SCF
    atoms 1 entry S          line   613 file /work/zw18965/.conda/envs/p4env/share/psi4/basis/cc-pvtz-jkfit.gbs 
    atoms 2 entry O          line   229 file /work/zw18965/.conda/envs/p4env/share/psi4/basis/cc-pvtz-jkfit.gbs 

  ==> Pre-Iterations <==

   -------------------------------------------------------
    Irrep   Nso     Nmo     Nalpha   Nbeta   Ndocc  Nsocc
   -------------------------------------------------------
     A1        30      30       0       0       0       0
     A2         7       7       0       0       0       0
     B1        16      16       0       0       0       0
     B2        16      16       0       0       0       0
   -------------------------------------------------------
    Total      69      69      13      11      11       2
   -------------------------------------------------------

  ==> Integral Setup <==

  ==> DiskDFJK: Density-Fitted J/K Matrices <==

    J tasked:                  Yes
    K tasked:                  Yes
    wK tasked:                 Yes
    Omega:               3.000E-01
    OpenMP threads:             24
    Integrals threads:          24
    Memory [MiB]:           102792
    Algorithm:                Core
    Integral Cache:           NONE
    Schwarz Cutoff:          1E-12
    Fitting Condition:       1E-10

   => Auxiliary Basis Set <=

  Basis Set: (CC-PV(T+D)Z AUX)
    Blend: CC-PVTZ-JKFIT
    Number of shells: 62
    Number of basis function: 200
    Number of Cartesian functions: 241
    Spherical Harmonics?: true
    Max angular momentum: 4

  Cached 100.0% of DFT collocation blocks in 0.199 [GiB].

  Minimum eigenvalue in the overlap matrix is 4.6789698501E-03.
  Using Symmetric Orthogonalization.

  SCF Guess: Superposition of Atomic Densities via on-the-fly atomic UHF.

  ==> Iterations <==

                           Total Energy        Delta E     RMS |[F,P]|

   @DF-UKS iter SAD:  -472.92613754318819   -4.72926e+02   0.00000e+00 
   @DF-UKS iter   1:  -473.29151544864550   -3.65378e-01   1.19934e-02 DIIS
   @DF-UKS iter   2:  -473.19975357453370    9.17619e-02   1.79852e-02 DIIS
   @DF-UKS iter   3:  -473.37067994179495   -1.70926e-01   1.30977e-03 DIIS
   @DF-UKS iter   4:  -473.37171808917236   -1.03815e-03   3.95748e-04 DIIS
   @DF-UKS iter   5:  -473.37191579481720   -1.97706e-04   1.22395e-04 DIIS
   @DF-UKS iter   6:  -473.37194650178122   -3.07070e-05   4.65267e-05 DIIS
   @DF-UKS iter   7:  -473.37195252219846   -6.02042e-06   1.57826e-05 DIIS
   @DF-UKS iter   8:  -473.37195293869530   -4.16497e-07   4.95914e-06 DIIS
   @DF-UKS iter   9:  -473.37195297362564   -3.49303e-08   7.75891e-07 DIIS
   @DF-UKS iter  10:  -473.37195297455008   -9.24445e-10   1.47319e-07 DIIS
   @DF-UKS iter  11:  -473.37195297459078   -4.06999e-11   4.46045e-08 DIIS
   @DF-UKS iter  12:  -473.37195297459402   -3.24007e-12   9.82323e-09 DIIS
  Energy and wave function converged.


  ==> Post-Iterations <==

   @Spin Contamination Metric:   7.772197171E-03
   @S^2 Expected:                2.000000000E+00
   @S^2 Observed:                2.007772197E+00
   @S   Expected:                1.000000000E+00
   @S   Observed:                1.000000000E+00

    Orbital Energies [Eh]
    ---------------------

    Alpha Occupied:                                                       

       1A1   -89.294256     2A1   -19.406180     3A1    -8.202906  
       1B2    -6.112887     1B1    -6.112887     4A1    -6.110133  
       5A1    -1.214822     6A1    -0.799519     2B1    -0.563435  
       2B2    -0.563435     7A1    -0.558859     3B2    -0.352891  
       3B1    -0.352891  

    Alpha Virtual:                                                        

       8A1     0.089101     4B2     0.340546     4B1     0.340546  
       9A1     0.359279     1A2     0.380910    10A1     0.380911  
      11A1     0.384648     5B2     0.476172     5B1     0.476172  
      12A1     0.580529     6B1     0.725634     6B2     0.725634  
      13A1     0.869433    14A1     1.226023    15A1     1.393694  
       2A2     1.393703     7B2     1.455260     7B1     1.455260  
      16A1     1.466229     3A2     1.466234    17A1     1.525177  
       8B2     1.643260     8B1     1.643260     9B1     1.665184  
       9B2     1.665184    18A1     1.894074     4A2     1.894077  
      10B2     1.928642    10B1     1.928642    19A1     1.966647  
      20A1     2.232360    11B1     2.437479    11B2     2.437479  
      21A1     2.529149    22A1     3.588979    12B1     3.807923  
      12B2     3.807923    23A1     4.929761    13B2     5.176432  
      13B1     5.176432     5A2     5.245061    24A1     5.245081  
      14B1     5.345747    14B2     5.345747    25A1     5.465503  
       6A2     6.284784    26A1     6.284798    15B1     6.574607  
      15B2     6.574607    27A1     6.716510     7A2     6.716537  
      28A1     6.745963    16B2     6.994210    16B1     6.994210  
      29A1     7.475567    30A1     8.979813  

    Beta Occupied:                                                        

       1A1   -89.287029     2A1   -19.384093     3A1    -8.195677  
       4A1    -6.105803     1B2    -6.097218     1B1    -6.097218  
       5A1    -1.174490     6A1    -0.736046     7A1    -0.523853  
       2B2    -0.489987     2B1    -0.489987  

    Beta Virtual:                                                         

       3B2    -0.036555     3B1    -0.036555     8A1     0.109974  
       4B2     0.349628     4B1     0.349628     9A1     0.375833  
      10A1     0.401762     1A2     0.429327    11A1     0.429327  
       5B2     0.523771     5B1     0.523771    12A1     0.590983  
       6B2     0.749017     6B1     0.749017    13A1     0.895917  
      14A1     1.243745    15A1     1.437125     2A2     1.437127  
       7B1     1.483762     7B2     1.483762    16A1     1.517587  
       3A2     1.517589    17A1     1.553284     8B1     1.676164  
       8B2     1.676164     9B1     1.734324     9B2     1.734324  
      18A1     1.941865     4A2     1.941868    10B1     1.996388  
      10B2     1.996388    19A1     1.999187    20A1     2.249570  
      11B1     2.472823    11B2     2.472823    21A1     2.558925  
      22A1     3.618572    12B2     3.878718    12B1     3.878718  
      23A1     4.954986    13B2     5.237613    13B1     5.237613  
       5A2     5.285324    24A1     5.285330    14B2     5.375424  
      14B1     5.375424    25A1     5.490927     6A2     6.377716  
      26A1     6.377732    15B2     6.619679    15B1     6.619679  
      27A1     6.732155     7A2     6.732171    28A1     6.773194  
      16B2     7.014496    16B1     7.014496    29A1     7.505802  
      30A1     9.024164  

    Final Occupation by Irrep:
             A1    A2    B1    B2 
    DOCC [     7,    0,    2,    2 ]
    SOCC [     0,    0,    1,    1 ]

  @DF-UKS Final Energy:  -473.37195297459402

   => Energetics <=

    Nuclear Repulsion Energy =             45.5504702910957491
    One-Electron Energy =                -743.3128292202325156
    Two-Electron Energy =                 250.3263225630003035
    DFT Exchange-Correlation Energy =     -26.0367338036910105
    Empirical Dispersion Energy =           0.0000000000000000
    VV10 Nonlocal Energy =                  0.1008171952334587
    Total Energy =                       -473.3719529745940235

  UHF NO Occupations:
  HONO-2 :    2 B1 1.9983502
  HONO-1 :    3 B1 1.0000000
  HONO-0 :    3 B2 1.0000000
  LUNO+0 :    4 B1 0.0016498
  LUNO+1 :    4 B2 0.0016498
  LUNO+2 :    8 A1 0.0003235
  LUNO+3 :    9 A1 0.0001997


Computation Completed


Properties will be evaluated at   0.000000,   0.000000,   0.000000 [a0]

Properties computed using the SCF density matrix

  Nuclear Dipole Moment: [e a0]
     X:     0.0000      Y:     0.0000      Z:    -0.0083

  Electronic Dipole Moment: [e a0]
     X:     0.0000      Y:     0.0000      Z:    -0.6200

  Dipole Moment: [e a0]
     X:     0.0000      Y:     0.0000      Z:    -0.6283     Total:     0.6283

  Dipole Moment: [D]
     X:     0.0000      Y:     0.0000      Z:    -1.5971     Total:     1.5971


*** tstop() called on bp1-compute00100.data.bp.acrc.priv at Tue Apr 27 17:48:58 2021
Module time:
	user time   =     142.68 seconds =       2.38 minutes
	system time =       6.35 seconds =       0.11 minutes
	total time  =          7 seconds =       0.12 minutes
Total time:
	user time   =     285.69 seconds =       4.76 minutes
	system time =      13.90 seconds =       0.23 minutes
	total time  =         13 seconds =       0.22 minutes

  //>>>>>>>>>>>>>>>>>>>>>>>>>>>>>>>>>>>//
  //    Loading displacement 3 of 3    //
  //<<<<<<<<<<<<<<<<<<<<<<<<<<<<<<<<<<<//

*** tstart() called on bp1-compute00100.data.bp.acrc.priv
*** at Tue Apr 27 17:48:58 2021

   => Loading Basis Set <=

    Name: CC-PV(T+D)Z
    Role: ORBITAL
    Keyword: BASIS
    atoms 1 entry S          line   788 file /work/zw18965/.conda/envs/p4env/share/psi4/basis/cc-pv_tpd_z.gbs 
    atoms 2 entry O          line   271 file /work/zw18965/.conda/envs/p4env/share/psi4/basis/cc-pv_tpd_z.gbs 


         ---------------------------------------------------------
                                   SCF
               by Justin Turney, Rob Parrish, Andy Simmonett
                          and Daniel G. A. Smith
                              UKS Reference
                       24 Threads, 137329 MiB Core
         ---------------------------------------------------------

  ==> Geometry <==

    Molecular point group: c2v
    Full point group: C_inf_v

    Geometry (in Angstrom), charge = 0, multiplicity = 3:

       Center              X                  Y                   Z               Mass       
    ------------   -----------------  -----------------  -----------------  -----------------
         S            0.000000000000     0.000000000000    -0.495318043426    31.972071174400
         O            0.000000000000     0.000000000000     0.990086168951    15.994914619570

  Running in c2v symmetry.

  Rotational constants: A = ************  B =      0.71663  C =      0.71663 [cm^-1]
  Rotational constants: A = ************  B =  21484.12291  C =  21484.12291 [MHz]
  Nuclear repulsion =   45.600168897688086

  Charge       = 0
  Multiplicity = 3
  Electrons    = 24
  Nalpha       = 13
  Nbeta        = 11

  ==> Algorithm <==

  SCF Algorithm Type is DF.
  DIIS enabled.
  MOM disabled.
  Fractional occupation disabled.
  Guess Type is SAD.
  Energy threshold   = 1.00e-08
  Density threshold  = 1.00e-08
  Integral threshold = 0.00e+00

  ==> Primary Basis <==

  Basis Set: CC-PV(T+D)Z
    Blend: CC-PV(T+D)Z
    Number of shells: 23
    Number of basis function: 69
    Number of Cartesian functions: 80
    Spherical Harmonics?: true
    Max angular momentum: 3

  ==> DFT Potential <==

   => Composite Functional: WB97M-V <= 

    wB97M-V Hyb-GGA Exchange-Correlation Functional

    N. Mardirossian and M. Head-Gordon, J. Chem. Phys. 144, 214110 (2016)

    Deriv               =              1
    GGA                 =           TRUE
    Meta                =           TRUE

    Exchange Hybrid     =           TRUE
    MP2 Hybrid          =          FALSE

   => Exchange-Correlation Functionals <=

    1.0000   wB97M-V exchange-correlation functional

   => Exact (HF) Exchange <=

    0.8500            HF,LR [omega = 0.3000]
    0.1500               HF 

   => VV10 Non-Local Parameters <=

    VV10 B              =     6.0000E+00
    VV10 C              =     1.0000E-02

   => Molecular Quadrature <=

    Radial Scheme          =       TREUTLER
    Pruning Scheme         =           FLAT
    Nuclear Scheme         =       TREUTLER

    BS radius alpha        =              1
    Pruning alpha          =              1
    Radial Points          =             75
    Spherical Points       =            302
    Total Points           =          43136
    Total Blocks           =            393
    Max Points             =            256
    Max Functions          =             69

   => Loading Basis Set <=

    Name: (CC-PV(T+D)Z AUX)
    Role: JKFIT
    Keyword: DF_BASIS_SCF
    atoms 1 entry S          line   613 file /work/zw18965/.conda/envs/p4env/share/psi4/basis/cc-pvtz-jkfit.gbs 
    atoms 2 entry O          line   229 file /work/zw18965/.conda/envs/p4env/share/psi4/basis/cc-pvtz-jkfit.gbs 

  ==> Pre-Iterations <==

   -------------------------------------------------------
    Irrep   Nso     Nmo     Nalpha   Nbeta   Ndocc  Nsocc
   -------------------------------------------------------
     A1        30      30       0       0       0       0
     A2         7       7       0       0       0       0
     B1        16      16       0       0       0       0
     B2        16      16       0       0       0       0
   -------------------------------------------------------
    Total      69      69      13      11      11       2
   -------------------------------------------------------

  ==> Integral Setup <==

  ==> DiskDFJK: Density-Fitted J/K Matrices <==

    J tasked:                  Yes
    K tasked:                  Yes
    wK tasked:                 Yes
    Omega:               3.000E-01
    OpenMP threads:             24
    Integrals threads:          24
    Memory [MiB]:           102792
    Algorithm:                Core
    Integral Cache:           NONE
    Schwarz Cutoff:          1E-12
    Fitting Condition:       1E-10

   => Auxiliary Basis Set <=

  Basis Set: (CC-PV(T+D)Z AUX)
    Blend: CC-PVTZ-JKFIT
    Number of shells: 62
    Number of basis function: 200
    Number of Cartesian functions: 241
    Spherical Harmonics?: true
    Max angular momentum: 4

  Cached 100.0% of DFT collocation blocks in 0.199 [GiB].

  Minimum eigenvalue in the overlap matrix is 4.6582437705E-03.
  Using Symmetric Orthogonalization.

  SCF Guess: Superposition of Atomic Densities via on-the-fly atomic UHF.

  ==> Iterations <==

                           Total Energy        Delta E     RMS |[F,P]|

   @DF-UKS iter SAD:  -472.92927304768801   -4.72929e+02   0.00000e+00 
   @DF-UKS iter   1:  -473.29162050602184   -3.62347e-01   1.19931e-02 DIIS
   @DF-UKS iter   2:  -473.20068239340503    9.09381e-02   1.79457e-02 DIIS
   @DF-UKS iter   3:  -473.37070655274357   -1.70024e-01   1.30932e-03 DIIS
   @DF-UKS iter   4:  -473.37174258777026   -1.03604e-03   3.93739e-04 DIIS
   @DF-UKS iter   5:  -473.37193842942168   -1.95842e-04   1.21380e-04 DIIS
   @DF-UKS iter   6:  -473.37196861605190   -3.01866e-05   4.60576e-05 DIIS
   @DF-UKS iter   7:  -473.37197450983541   -5.89378e-06   1.55977e-05 DIIS
   @DF-UKS iter   8:  -473.37197491632355   -4.06488e-07   4.90220e-06 DIIS
   @DF-UKS iter   9:  -473.37197495040607   -3.40825e-08   7.71196e-07 DIIS
   @DF-UKS iter  10:  -473.37197495131710   -9.11029e-10   1.45916e-07 DIIS
   @DF-UKS iter  11:  -473.37197495135649   -3.93925e-11   4.41856e-08 DIIS
   @DF-UKS iter  12:  -473.37197495135996   -3.46745e-12   9.64977e-09 DIIS
  Energy and wave function converged.


  ==> Post-Iterations <==

   @Spin Contamination Metric:   7.747886025E-03
   @S^2 Expected:                2.000000000E+00
   @S^2 Observed:                2.007747886E+00
   @S   Expected:                1.000000000E+00
   @S   Observed:                1.000000000E+00

    Orbital Energies [Eh]
    ---------------------

    Alpha Occupied:                                                       

       1A1   -89.294098     2A1   -19.405982     3A1    -8.202796  
       1B2    -6.112776     1B1    -6.112776     4A1    -6.110019  
       5A1    -1.215495     6A1    -0.799275     2B1    -0.563776  
       2B2    -0.563776     7A1    -0.559006     3B2    -0.352625  
       3B1    -0.352625  

    Alpha Virtual:                                                        

       8A1     0.089429     4B2     0.340529     4B1     0.340529  
       9A1     0.359276     1A2     0.380889    10A1     0.380889  
      11A1     0.384749     5B2     0.476579     5B1     0.476579  
      12A1     0.580900     6B1     0.725526     6B2     0.725526  
      13A1     0.870599    14A1     1.225994    15A1     1.393643  
       2A2     1.393652     7B2     1.455242     7B1     1.455242  
      16A1     1.466054     3A2     1.466059    17A1     1.525162  
       8B2     1.644414     8B1     1.644414     9B1     1.665176  
       9B2     1.665176    18A1     1.894853     4A2     1.894856  
      10B2     1.928717    10B1     1.928717    19A1     1.967412  
      20A1     2.231663    11B1     2.438304    11B2     2.438304  
      21A1     2.531063    22A1     3.590438    12B1     3.808711  
      12B2     3.808711    23A1     4.932191    13B1     5.176364  
      13B2     5.176364     5A2     5.245445    24A1     5.245465  
      14B1     5.346016    14B2     5.346016    25A1     5.468350  
       6A2     6.285129    26A1     6.285143    15B1     6.575228  
      15B2     6.575228    27A1     6.716619     7A2     6.716646  
      28A1     6.749085    16B2     6.996398    16B1     6.996398  
      29A1     7.471751    30A1     8.989117  

    Beta Occupied:                                                        

       1A1   -89.286871     2A1   -19.383921     3A1    -8.195567  
       4A1    -6.105687     1B2    -6.097106     1B1    -6.097106  
       5A1    -1.175247     6A1    -0.735787     7A1    -0.523988  
       2B2    -0.490435     2B1    -0.490435  

    Beta Virtual:                                                         

       3B2    -0.036294     3B1    -0.036294     8A1     0.110269  
       4B2     0.349603     4B1     0.349603     9A1     0.375813  
      10A1     0.401914     1A2     0.429332    11A1     0.429333  
       5B2     0.524209     5B1     0.524209    12A1     0.591330  
       6B2     0.748873     6B1     0.748873    13A1     0.897123  
      14A1     1.243664    15A1     1.437034     2A2     1.437037  
       7B1     1.483751     7B2     1.483751    16A1     1.517463  
       3A2     1.517465    17A1     1.553334     8B1     1.677377  
       8B2     1.677377     9B1     1.734356     9B2     1.734356  
      18A1     1.942660     4A2     1.942662    10B1     1.996473  
      10B2     1.996473    19A1     1.999971    20A1     2.248889  
      11B1     2.473669    11B2     2.473669    21A1     2.560849  
      22A1     3.620016    12B2     3.879416    12B1     3.879416  
      23A1     4.957390    13B1     5.237451    13B2     5.237451  
       5A2     5.285653    24A1     5.285659    14B2     5.375646  
      14B1     5.375646    25A1     5.493774     6A2     6.377945  
      26A1     6.377960    15B2     6.620242    15B1     6.620242  
      27A1     6.732268     7A2     6.732283    28A1     6.776300  
      16B2     7.016708    16B1     7.016708    29A1     7.502005  
      30A1     9.033386  

    Final Occupation by Irrep:
             A1    A2    B1    B2 
    DOCC [     7,    0,    2,    2 ]
    SOCC [     0,    0,    1,    1 ]

  @DF-UKS Final Energy:  -473.37197495135996

   => Energetics <=

    Nuclear Repulsion Energy =             45.6001688976880857
    One-Electron Energy =                -743.4110508515245783
    Two-Electron Energy =                 250.3757689642848163
    DFT Exchange-Correlation Energy =     -26.0376775052124891
    Empirical Dispersion Energy =           0.0000000000000000
    VV10 Nonlocal Energy =                  0.1008155434042703
    Total Energy =                       -473.3719749513599595

  UHF NO Occupations:
  HONO-2 :    2 B1 1.9983560
  HONO-1 :    3 B2 1.0000000
  HONO-0 :    3 B1 1.0000000
  LUNO+0 :    4 B1 0.0016440
  LUNO+1 :    4 B2 0.0016440
  LUNO+2 :    8 A1 0.0003233
  LUNO+3 :    9 A1 0.0001996


Computation Completed


Properties will be evaluated at   0.000000,   0.000000,   0.000000 [a0]

Properties computed using the SCF density matrix

  Nuclear Dipole Moment: [e a0]
     X:     0.0000      Y:     0.0000      Z:    -0.0083

  Electronic Dipole Moment: [e a0]
     X:     0.0000      Y:     0.0000      Z:    -0.6188

  Dipole Moment: [e a0]
     X:     0.0000      Y:     0.0000      Z:    -0.6271     Total:     0.6271

  Dipole Moment: [D]
     X:     0.0000      Y:     0.0000      Z:    -1.5939     Total:     1.5939


*** tstop() called on bp1-compute00100.data.bp.acrc.priv at Tue Apr 27 17:49:04 2021
Module time:
	user time   =     141.16 seconds =       2.35 minutes
	system time =       5.99 seconds =       0.10 minutes
	total time  =          6 seconds =       0.10 minutes
Total time:
	user time   =     427.08 seconds =       7.12 minutes
	system time =      19.90 seconds =       0.33 minutes
	total time  =         19 seconds =       0.32 minutes

         ----------------------------------------------------------
                                   FINDIF
                     R. A. King and Jonathon Misiewicz
         ---------------------------------------------------------

  Computing gradient from energies.
    Using 3-point formula.
    Energy without displacement: -473.3719646322
    Check energies below for precision!
    Forces are for mass-weighted, symmetry-adapted cartesians (in au).

     Coord      Energy(-1)        Energy(+1)            Force
        0   -473.3719529746   -473.3719749514     -0.0021976766


-------------------------------------------------------------
  ## New Matrix (Symmetry 0) ##
  Irrep: 1 Size: 2 x 3

                 1                   2                   3

    1     0.00000000000000     0.00000000000000    -0.00717577672402
    2     0.00000000000000     0.00000000000000     0.00717577672402




			-----------------------------------------
			 OPTKING 2.0: for geometry optimizations 
			  - R.A. King,  Bethel University        
			-----------------------------------------
	At level 1: Red. Int., RFO, no backsteps, dynamic trust

	Internal coordinates to be generated automatically.
	Detected frag 1 with atoms:  1 2
	---Fragment 1 Bond Connectivity---
	 1 : 2
	 2 : 1

	---Fragment 1 Geometry and Gradient---
	 S           0.0000000000        0.0000000000       -0.9365260748
	 O           0.0000000000        0.0000000000        1.8720123884
	             0.0000000000        0.0000000000       -0.0071757767
	             0.0000000000        0.0000000000        0.0071757767

	Previous optimization step data not found.  Starting new optimization.

	---Fragment 1 Intrafragment Coordinates---
	 - Coordinate -           - BOHR/RAD -       - ANG/DEG -
	 R(1,2)           =         2.808538	       1.486215

	Current energy   :      -473.3719646322

	Generating empirical Hessian (Schlegel '84) for each fragment.
	Taking RFO optimization step.
	Going to follow RFO solution 1.
	Using RFO vector 1.
	Norm of target step-size    0.00881
	Projected energy change by RFO approximation:        -0.0000244060

	Back-transformation to cartesian coordinates...
	Successfully converged to displaced geometry.

	--- Internal Coordinate Step in ANG or DEG, aJ/ANG or AJ/DEG ---
	 ---------------------------------------------------------------------------
	   Coordinate                Previous        Force       Change         New 
	   ----------                --------       ------       ------       ------
	    1 R(1,2)          =      1.486215    -0.059119    -0.004663     1.481552
	 ---------------------------------------------------------------------------
	Successfully symmetrized geometry.

  ==> Convergence Check <==

  Measures of convergence in internal coordinates in au.
  Criteria marked as inactive (o), active & met (*), and active & unmet ( ).
  --------------------------------------------------------------------------------------------- ~
   Step     Total Energy     Delta E     MAX Force     RMS Force      MAX Disp      RMS Disp    ~
  --------------------------------------------------------------------------------------------- ~
    Convergence Criteria    1.00e-06 *    3.00e-04 *             o    1.20e-03 *             o  ~
  --------------------------------------------------------------------------------------------- ~
      1    -473.37196463   -4.73e+02      7.18e-03      7.18e-03 o    8.81e-03      8.81e-03 o  ~
  ---------------------------------------------------------------------------------------------

	Writing optimization data to binary file.
	Structure for next step:
	Cartesian Geometry (in Angstrom)
	    S     0.0000000000   0.0000000000  -0.4932568069
	    O     0.0000000000   0.0000000000   0.9882948431
			--------------------------
			 OPTKING Finished Execution 
			--------------------------

    Structure for next step:
    Molecular point group: c2v
    Full point group: C_inf_v

    Geometry (in Angstrom), charge = 0, multiplicity = 3:

    S            0.000000000000     0.000000000000    -0.494033382486
    O            0.000000000000     0.000000000000     0.987518273341

gradient() will perform gradient computation by finite difference of analytic energies.

         ----------------------------------------------------------
                                   FINDIF
                     R. A. King and Jonathon Misiewicz
         ---------------------------------------------------------

  Using finite-differences of energies to determine gradients.
    Generating geometries for use with 3-point formula.
    Displacement size will be 5.00e-03.
    Number of atoms is 2.
    Number of symmetric SALCs is 1.
    Translations projected? 1. Rotations projected? 1.
    Number of geometries (including reference) is 3.

  //>>>>>>>>>>>>>>>>>>>>>>>>>>>>>>>>>>>//
  //    Loading displacement 1 of 3    //
  //<<<<<<<<<<<<<<<<<<<<<<<<<<<<<<<<<<<//

*** tstart() called on bp1-compute00100.data.bp.acrc.priv
*** at Tue Apr 27 17:49:04 2021

   => Loading Basis Set <=

    Name: CC-PV(T+D)Z
    Role: ORBITAL
    Keyword: BASIS
    atoms 1 entry S          line   788 file /work/zw18965/.conda/envs/p4env/share/psi4/basis/cc-pv_tpd_z.gbs 
    atoms 2 entry O          line   271 file /work/zw18965/.conda/envs/p4env/share/psi4/basis/cc-pv_tpd_z.gbs 


         ---------------------------------------------------------
                                   SCF
               by Justin Turney, Rob Parrish, Andy Simmonett
                          and Daniel G. A. Smith
                              UKS Reference
                       24 Threads, 137329 MiB Core
         ---------------------------------------------------------

  ==> Geometry <==

    Molecular point group: c2v
    Full point group: C_inf_v

    Geometry (in Angstrom), charge = 0, multiplicity = 3:

       Center              X                  Y                   Z               Mass       
    ------------   -----------------  -----------------  -----------------  -----------------
         S            0.000000000000     0.000000000000    -0.494033382486    31.972071174400
         O            0.000000000000     0.000000000000     0.987518273341    15.994914619570

  Running in c2v symmetry.

  Rotational constants: A = ************  B =      0.72037  C =      0.72037 [cm^-1]
  Rotational constants: A = ************  B =  21596.00077  C =  21596.00077 [MHz]
  Nuclear repulsion =   45.718745410837634

  Charge       = 0
  Multiplicity = 3
  Electrons    = 24
  Nalpha       = 13
  Nbeta        = 11

  ==> Algorithm <==

  SCF Algorithm Type is DF.
  DIIS enabled.
  MOM disabled.
  Fractional occupation disabled.
  Guess Type is READ.
  Energy threshold   = 1.00e-08
  Density threshold  = 1.00e-08
  Integral threshold = 0.00e+00

  ==> Primary Basis <==

  Basis Set: CC-PV(T+D)Z
    Blend: CC-PV(T+D)Z
    Number of shells: 23
    Number of basis function: 69
    Number of Cartesian functions: 80
    Spherical Harmonics?: true
    Max angular momentum: 3

  ==> DFT Potential <==

   => Composite Functional: WB97M-V <= 

    wB97M-V Hyb-GGA Exchange-Correlation Functional

    N. Mardirossian and M. Head-Gordon, J. Chem. Phys. 144, 214110 (2016)

    Deriv               =              1
    GGA                 =           TRUE
    Meta                =           TRUE

    Exchange Hybrid     =           TRUE
    MP2 Hybrid          =          FALSE

   => Exchange-Correlation Functionals <=

    1.0000   wB97M-V exchange-correlation functional

   => Exact (HF) Exchange <=

    0.8500            HF,LR [omega = 0.3000]
    0.1500               HF 

   => VV10 Non-Local Parameters <=

    VV10 B              =     6.0000E+00
    VV10 C              =     1.0000E-02

   => Molecular Quadrature <=

    Radial Scheme          =       TREUTLER
    Pruning Scheme         =           FLAT
    Nuclear Scheme         =       TREUTLER

    BS radius alpha        =              1
    Pruning alpha          =              1
    Radial Points          =             75
    Spherical Points       =            302
    Total Points           =          43136
    Total Blocks           =            391
    Max Points             =            256
    Max Functions          =             69

   => Loading Basis Set <=

    Name: (CC-PV(T+D)Z AUX)
    Role: JKFIT
    Keyword: DF_BASIS_SCF
    atoms 1 entry S          line   613 file /work/zw18965/.conda/envs/p4env/share/psi4/basis/cc-pvtz-jkfit.gbs 
    atoms 2 entry O          line   229 file /work/zw18965/.conda/envs/p4env/share/psi4/basis/cc-pvtz-jkfit.gbs 

   => Loading Basis Set <=

    Name: CC-PV(T+D)Z
    Role: ORBITAL
    Keyword: BASIS
    atoms 1 entry S          line   788 file /work/zw18965/.conda/envs/p4env/share/psi4/basis/cc-pv_tpd_z.gbs 
    atoms 2 entry O          line   271 file /work/zw18965/.conda/envs/p4env/share/psi4/basis/cc-pv_tpd_z.gbs 

  Reading orbitals from file 180, no projection.

  ==> Pre-Iterations <==

   -------------------------------------------------------
    Irrep   Nso     Nmo     Nalpha   Nbeta   Ndocc  Nsocc
   -------------------------------------------------------
     A1        30      30       0       0       0       0
     A2         7       7       0       0       0       0
     B1        16      16       0       0       0       0
     B2        16      16       0       0       0       0
   -------------------------------------------------------
    Total      69      69      13      11      11       2
   -------------------------------------------------------

  ==> Integral Setup <==

  ==> DiskDFJK: Density-Fitted J/K Matrices <==

    J tasked:                  Yes
    K tasked:                  Yes
    wK tasked:                 Yes
    Omega:               3.000E-01
    OpenMP threads:             24
    Integrals threads:          24
    Memory [MiB]:           102792
    Algorithm:                Core
    Integral Cache:           NONE
    Schwarz Cutoff:          1E-12
    Fitting Condition:       1E-10

   => Auxiliary Basis Set <=

  Basis Set: (CC-PV(T+D)Z AUX)
    Blend: CC-PVTZ-JKFIT
    Number of shells: 62
    Number of basis function: 200
    Number of Cartesian functions: 241
    Spherical Harmonics?: true
    Max angular momentum: 4

  Cached 100.0% of DFT collocation blocks in 0.199 [GiB].

  Minimum eigenvalue in the overlap matrix is 4.6093450379E-03.
  Using Symmetric Orthogonalization.

  SCF Guess: Orbitals guess was supplied from a previous computation.

  ==> Iterations <==

                           Total Energy        Delta E     RMS |[F,P]|

   @DF-UKS iter   0:  -473.37616365941085   -4.73376e+02   4.32765e-04 
   @DF-UKS iter   1:  -473.37200081177070    4.16285e-03   7.88366e-05 DIIS
   @DF-UKS iter   2:  -473.37200087630902   -6.45383e-08   9.64235e-05 DIIS
   @DF-UKS iter   3:  -473.37200531521887   -4.43891e-06   1.65456e-05 DIIS
   @DF-UKS iter   4:  -473.37200546298038   -1.47762e-07   6.35050e-06 DIIS
   @DF-UKS iter   5:  -473.37200549849570   -3.55153e-08   1.19716e-06 DIIS
   @DF-UKS iter   6:  -473.37200550279812   -4.30242e-09   5.52417e-07 DIIS
   @DF-UKS iter   7:  -473.37200550350065   -7.02528e-10   1.95273e-07 DIIS
   @DF-UKS iter   8:  -473.37200550358040   -7.97513e-11   2.96764e-08 DIIS
   @DF-UKS iter   9:  -473.37200550358290   -2.50111e-12   4.34690e-09 DIIS
  Energy and wave function converged.


  ==> Post-Iterations <==

   @Spin Contamination Metric:   7.690048110E-03
   @S^2 Expected:                2.000000000E+00
   @S^2 Observed:                2.007690048E+00
   @S   Expected:                1.000000000E+00
   @S   Observed:                1.000000000E+00

    Orbital Energies [Eh]
    ---------------------

    Alpha Occupied:                                                       

       1A1   -89.293719     2A1   -19.405512     3A1    -8.202534  
       1B1    -6.112508     1B2    -6.112508     4A1    -6.109746  
       5A1    -1.217103     6A1    -0.798693     2B1    -0.564594  
       2B2    -0.564594     7A1    -0.559355     3B2    -0.351990  
       3B1    -0.351990  

    Alpha Virtual:                                                        

       8A1     0.090202     4B2     0.340491     4B1     0.340491  
       9A1     0.359261     1A2     0.380839    10A1     0.380839  
      11A1     0.384993     5B2     0.477553     5B1     0.477553  
      12A1     0.581791     6B2     0.725267     6B1     0.725267  
      13A1     0.873394    14A1     1.225922    15A1     1.393524  
       2A2     1.393533     7B1     1.455202     7B2     1.455202  
      16A1     1.465640     3A2     1.465645    17A1     1.525133  
       8B2     1.647163     8B1     1.647163     9B2     1.665158  
       9B1     1.665158    18A1     1.896711     4A2     1.896714  
      10B2     1.928898    10B1     1.928898    19A1     1.969214  
      20A1     2.230071    11B2     2.440245    11B1     2.440245  
      21A1     2.535589    22A1     3.593944    12B1     3.810597  
      12B2     3.810597    23A1     4.937945    13B1     5.176200  
      13B2     5.176200     5A2     5.246363    24A1     5.246383  
      14B1     5.346672    14B2     5.346672    25A1     5.475233  
       6A2     6.285953    26A1     6.285966    15B1     6.576726  
      15B2     6.576726    27A1     6.716884     7A2     6.716910  
      28A1     6.756576    16B2     7.001601    16B1     7.001601  
      29A1     7.462473    30A1     9.011505  

    Beta Occupied:                                                        

       1A1   -89.286494     2A1   -19.383513     3A1    -8.195304  
       4A1    -6.105410     1B1    -6.096840     1B2    -6.096840  
       5A1    -1.177056     6A1    -0.735172     7A1    -0.524307  
       2B2    -0.491508     2B1    -0.491508  

    Beta Virtual:                                                         

       3B2    -0.035674     3B1    -0.035674     8A1     0.110967  
       4B2     0.349544     4B1     0.349544     9A1     0.375758  
      10A1     0.402279     1A2     0.429346    11A1     0.429347  
       5B1     0.525256     5B2     0.525256    12A1     0.592162  
       6B2     0.748528     6B1     0.748528    13A1     0.900012  
      14A1     1.243467    15A1     1.436821     2A2     1.436824  
       7B1     1.483729     7B2     1.483729    16A1     1.517171  
       3A2     1.517173    17A1     1.553463     8B2     1.680269  
       8B1     1.680269     9B2     1.734430     9B1     1.734430  
      18A1     1.944554     4A2     1.944556    10B2     1.996677  
      10B1     1.996677    19A1     2.001812    20A1     2.247338  
      11B2     2.475662    11B1     2.475662    21A1     2.565401  
      22A1     3.623487    12B2     3.881088    12B1     3.881088  
      23A1     4.963083    13B1     5.237064    13B2     5.237064  
       5A2     5.286440    24A1     5.286446    14B2     5.376193  
      14B1     5.376193    25A1     5.500658     6A2     6.378488  
      26A1     6.378504    15B2     6.621604    15B1     6.621604  
      27A1     6.732541     7A2     6.732556    28A1     6.783755  
      16B2     7.021968    16B1     7.021968    29A1     7.492763  
      30A1     9.055586  

    Final Occupation by Irrep:
             A1    A2    B1    B2 
    DOCC [     7,    0,    2,    2 ]
    SOCC [     0,    0,    1,    1 ]

  @DF-UKS Final Energy:  -473.37200550358290

   => Energetics <=

    Nuclear Repulsion Energy =             45.7187454108376343
    One-Electron Energy =                -743.6453407725276747
    Two-Electron Energy =                 250.4937123901176790
    DFT Exchange-Correlation Energy =     -26.0399341586557718
    Empirical Dispersion Energy =           0.0000000000000000
    VV10 Nonlocal Energy =                  0.1008116266452378
    Total Energy =                       -473.3720055035828977

  UHF NO Occupations:
  HONO-2 :    2 B1 1.9983698
  HONO-1 :    3 B2 1.0000000
  HONO-0 :    3 B1 1.0000000
  LUNO+0 :    4 B1 0.0016302
  LUNO+1 :    4 B2 0.0016302
  LUNO+2 :    8 A1 0.0003230
  LUNO+3 :    9 A1 0.0001994


Computation Completed


Properties will be evaluated at   0.000000,   0.000000,   0.000000 [a0]

Properties computed using the SCF density matrix

  Nuclear Dipole Moment: [e a0]
     X:     0.0000      Y:     0.0000      Z:    -0.0083

  Electronic Dipole Moment: [e a0]
     X:     0.0000      Y:     0.0000      Z:    -0.6158

  Dipole Moment: [e a0]
     X:     0.0000      Y:     0.0000      Z:    -0.6241     Total:     0.6241

  Dipole Moment: [D]
     X:     0.0000      Y:     0.0000      Z:    -1.5862     Total:     1.5862


*** tstop() called on bp1-compute00100.data.bp.acrc.priv at Tue Apr 27 17:49:08 2021
Module time:
	user time   =     104.79 seconds =       1.75 minutes
	system time =       4.34 seconds =       0.07 minutes
	total time  =          4 seconds =       0.07 minutes
Total time:
	user time   =     532.26 seconds =       8.87 minutes
	system time =      24.26 seconds =       0.40 minutes
	total time  =         23 seconds =       0.38 minutes

  //>>>>>>>>>>>>>>>>>>>>>>>>>>>>>>>>>>>//
  //    Loading displacement 2 of 3    //
  //<<<<<<<<<<<<<<<<<<<<<<<<<<<<<<<<<<<//

*** tstart() called on bp1-compute00100.data.bp.acrc.priv
*** at Tue Apr 27 17:49:08 2021

   => Loading Basis Set <=

    Name: CC-PV(T+D)Z
    Role: ORBITAL
    Keyword: BASIS
    atoms 1 entry S          line   788 file /work/zw18965/.conda/envs/p4env/share/psi4/basis/cc-pv_tpd_z.gbs 
    atoms 2 entry O          line   271 file /work/zw18965/.conda/envs/p4env/share/psi4/basis/cc-pv_tpd_z.gbs 


         ---------------------------------------------------------
                                   SCF
               by Justin Turney, Rob Parrish, Andy Simmonett
                          and Daniel G. A. Smith
                              UKS Reference
                       24 Threads, 137329 MiB Core
         ---------------------------------------------------------

  ==> Geometry <==

    Molecular point group: c2v
    Full point group: C_inf_v

    Geometry (in Angstrom), charge = 0, multiplicity = 3:

       Center              X                  Y                   Z               Mass       
    ------------   -----------------  -----------------  -----------------  -----------------
         S            0.000000000000     0.000000000000    -0.494303595026    31.972071174400
         O            0.000000000000     0.000000000000     0.988058398423    15.994914619570

  Running in c2v symmetry.

  Rotational constants: A = ************  B =      0.71958  C =      0.71958 [cm^-1]
  Rotational constants: A = ************  B =  21572.39619  C =  21572.39619 [MHz]
  Nuclear repulsion =   45.693753121764573

  Charge       = 0
  Multiplicity = 3
  Electrons    = 24
  Nalpha       = 13
  Nbeta        = 11

  ==> Algorithm <==

  SCF Algorithm Type is DF.
  DIIS enabled.
  MOM disabled.
  Fractional occupation disabled.
  Guess Type is READ.
  Energy threshold   = 1.00e-08
  Density threshold  = 1.00e-08
  Integral threshold = 0.00e+00

  ==> Primary Basis <==

  Basis Set: CC-PV(T+D)Z
    Blend: CC-PV(T+D)Z
    Number of shells: 23
    Number of basis function: 69
    Number of Cartesian functions: 80
    Spherical Harmonics?: true
    Max angular momentum: 3

  ==> DFT Potential <==

   => Composite Functional: WB97M-V <= 

    wB97M-V Hyb-GGA Exchange-Correlation Functional

    N. Mardirossian and M. Head-Gordon, J. Chem. Phys. 144, 214110 (2016)

    Deriv               =              1
    GGA                 =           TRUE
    Meta                =           TRUE

    Exchange Hybrid     =           TRUE
    MP2 Hybrid          =          FALSE

   => Exchange-Correlation Functionals <=

    1.0000   wB97M-V exchange-correlation functional

   => Exact (HF) Exchange <=

    0.8500            HF,LR [omega = 0.3000]
    0.1500               HF 

   => VV10 Non-Local Parameters <=

    VV10 B              =     6.0000E+00
    VV10 C              =     1.0000E-02

   => Molecular Quadrature <=

    Radial Scheme          =       TREUTLER
    Pruning Scheme         =           FLAT
    Nuclear Scheme         =       TREUTLER

    BS radius alpha        =              1
    Pruning alpha          =              1
    Radial Points          =             75
    Spherical Points       =            302
    Total Points           =          43136
    Total Blocks           =            391
    Max Points             =            256
    Max Functions          =             69

   => Loading Basis Set <=

    Name: (CC-PV(T+D)Z AUX)
    Role: JKFIT
    Keyword: DF_BASIS_SCF
    atoms 1 entry S          line   613 file /work/zw18965/.conda/envs/p4env/share/psi4/basis/cc-pvtz-jkfit.gbs 
    atoms 2 entry O          line   229 file /work/zw18965/.conda/envs/p4env/share/psi4/basis/cc-pvtz-jkfit.gbs 

   => Loading Basis Set <=

    Name: CC-PV(T+D)Z
    Role: ORBITAL
    Keyword: BASIS
    atoms 1 entry S          line   788 file /work/zw18965/.conda/envs/p4env/share/psi4/basis/cc-pv_tpd_z.gbs 
    atoms 2 entry O          line   271 file /work/zw18965/.conda/envs/p4env/share/psi4/basis/cc-pv_tpd_z.gbs 

  Reading orbitals from file 180, no projection.

  ==> Pre-Iterations <==

   -------------------------------------------------------
    Irrep   Nso     Nmo     Nalpha   Nbeta   Ndocc  Nsocc
   -------------------------------------------------------
     A1        30      30       0       0       0       0
     A2         7       7       0       0       0       0
     B1        16      16       0       0       0       0
     B2        16      16       0       0       0       0
   -------------------------------------------------------
    Total      69      69      13      11      11       2
   -------------------------------------------------------

  ==> Integral Setup <==

  ==> DiskDFJK: Density-Fitted J/K Matrices <==

    J tasked:                  Yes
    K tasked:                  Yes
    wK tasked:                 Yes
    Omega:               3.000E-01
    OpenMP threads:             24
    Integrals threads:          24
    Memory [MiB]:           102792
    Algorithm:                Core
    Integral Cache:           NONE
    Schwarz Cutoff:          1E-12
    Fitting Condition:       1E-10

   => Auxiliary Basis Set <=

  Basis Set: (CC-PV(T+D)Z AUX)
    Blend: CC-PVTZ-JKFIT
    Number of shells: 62
    Number of basis function: 200
    Number of Cartesian functions: 241
    Spherical Harmonics?: true
    Max angular momentum: 4

  Cached 100.0% of DFT collocation blocks in 0.199 [GiB].

  Minimum eigenvalue in the overlap matrix is 4.6195871592E-03.
  Using Symmetric Orthogonalization.

  SCF Guess: Orbitals guess was supplied from a previous computation.

  ==> Iterations <==

                           Total Energy        Delta E     RMS |[F,P]|

   @DF-UKS iter   0:  -473.37127992403515   -4.73371e+02   7.55353e-05 
   @DF-UKS iter   1:  -473.37200149303516   -7.21569e-04   1.37669e-05 DIIS
   @DF-UKS iter   2:  -473.37200149328839   -2.53237e-10   1.69377e-05 DIIS
   @DF-UKS iter   3:  -473.37200163051187   -1.37223e-07   2.86764e-06 DIIS
   @DF-UKS iter   4:  -473.37200163495044   -4.43856e-09   1.10607e-06 DIIS
   @DF-UKS iter   5:  -473.37200163602876   -1.07832e-09   2.08576e-07 DIIS
   @DF-UKS iter   6:  -473.37200163615967   -1.30910e-10   9.62138e-08 DIIS
   @DF-UKS iter   7:  -473.37200163618058   -2.09184e-11   3.41159e-08 DIIS
   @DF-UKS iter   8:  -473.37200163618337   -2.78533e-12   5.19351e-09 DIIS
  Energy and wave function converged.


  ==> Post-Iterations <==

   @Spin Contamination Metric:   7.702219868E-03
   @S^2 Expected:                2.000000000E+00
   @S^2 Observed:                2.007702220E+00
   @S   Expected:                1.000000000E+00
   @S   Observed:                1.000000000E+00

    Orbital Energies [Eh]
    ---------------------

    Alpha Occupied:                                                       

       1A1   -89.293799     2A1   -19.405611     3A1    -8.202590  
       1B1    -6.112565     1B2    -6.112565     4A1    -6.109803  
       5A1    -1.216763     6A1    -0.798816     2B1    -0.564422  
       2B2    -0.564422     7A1    -0.559281     3B2    -0.352124  
       3B1    -0.352124  

    Alpha Virtual:                                                        

       8A1     0.090040     4B2     0.340499     4B1     0.340499  
       9A1     0.359265     1A2     0.380849    10A1     0.380850  
      11A1     0.384942     5B2     0.477348     5B1     0.477348  
      12A1     0.581603     6B1     0.725322     6B2     0.725322  
      13A1     0.872803    14A1     1.225938    15A1     1.393549  
       2A2     1.393558     7B2     1.455210     7B1     1.455210  
      16A1     1.465727     3A2     1.465732    17A1     1.525138  
       8B1     1.646584     8B2     1.646584     9B1     1.665162  
       9B2     1.665162    18A1     1.896320     4A2     1.896323  
      10B2     1.928860    10B1     1.928860    19A1     1.968837  
      20A1     2.230398    11B2     2.439839    11B1     2.439839  
      21A1     2.534640    22A1     3.593202    12B2     3.810199  
      12B1     3.810199    23A1     4.936737    13B1     5.176235  
      13B2     5.176235     5A2     5.246169    24A1     5.246189  
      14B1     5.346532    14B2     5.346532    25A1     5.473772  
       6A2     6.285780    26A1     6.285793    15B2     6.576408  
      15B1     6.576408    27A1     6.716828     7A2     6.716854  
      28A1     6.754992    16B2     7.000506    16B1     7.000506  
      29A1     7.464448    30A1     9.006765  

    Beta Occupied:                                                        

       1A1   -89.286573     2A1   -19.383599     3A1    -8.195359  
       4A1    -6.105469     1B1    -6.096896     1B2    -6.096896  
       5A1    -1.176674     6A1    -0.735301     7A1    -0.524240  
       2B1    -0.491281     2B2    -0.491281  

    Beta Virtual:                                                         

       3B1    -0.035805     3B2    -0.035805     8A1     0.110821  
       4B2     0.349557     4B1     0.349557     9A1     0.375770  
      10A1     0.402202     1A2     0.429343    11A1     0.429344  
       5B2     0.525036     5B1     0.525036    12A1     0.591986  
       6B1     0.748601     6B2     0.748601    13A1     0.899402  
      14A1     1.243509    15A1     1.436866     2A2     1.436868  
       7B2     1.483733     7B1     1.483733    16A1     1.517233  
       3A2     1.517234    17A1     1.553435     8B1     1.679660  
       8B2     1.679660     9B1     1.734415     9B2     1.734415  
      18A1     1.944155     4A2     1.944157    10B2     1.996634  
      10B1     1.996634    19A1     2.001428    20A1     2.247656  
      11B2     2.475245    11B1     2.475245    21A1     2.564446  
      22A1     3.622753    12B2     3.880735    12B1     3.880735  
      23A1     4.961888    13B1     5.237146    13B2     5.237146  
       5A2     5.286274    24A1     5.286280    14B1     5.376076  
      14B2     5.376076    25A1     5.499197     6A2     6.378373  
      26A1     6.378389    15B2     6.621315    15B1     6.621315  
      27A1     6.732483     7A2     6.732498    28A1     6.782179  
      16B2     7.020862    16B1     7.020862    29A1     7.494732  
      30A1     9.050884  

    Final Occupation by Irrep:
             A1    A2    B1    B2 
    DOCC [     7,    0,    2,    2 ]
    SOCC [     0,    0,    1,    1 ]

  @DF-UKS Final Energy:  -473.37200163618337

   => Energetics <=

    Nuclear Repulsion Energy =             45.6937531217645727
    One-Electron Energy =                -743.5959671451190616
    Two-Electron Energy =                 250.4688578849204816
    DFT Exchange-Correlation Energy =     -26.0394579471346930
    Empirical Dispersion Energy =           0.0000000000000000
    VV10 Nonlocal Energy =                  0.1008124493852826
    Total Energy =                       -473.3720016361834837

  UHF NO Occupations:
  HONO-2 :    2 B1 1.9983669
  HONO-1 :    3 B2 1.0000000
  HONO-0 :    3 B1 1.0000000
  LUNO+0 :    4 B1 0.0016331
  LUNO+1 :    4 B2 0.0016331
  LUNO+2 :    8 A1 0.0003231
  LUNO+3 :    9 A1 0.0001994


Computation Completed


Properties will be evaluated at   0.000000,   0.000000,   0.000000 [a0]

Properties computed using the SCF density matrix

  Nuclear Dipole Moment: [e a0]
     X:     0.0000      Y:     0.0000      Z:    -0.0083

  Electronic Dipole Moment: [e a0]
     X:     0.0000      Y:     0.0000      Z:    -0.6164

  Dipole Moment: [e a0]
     X:     0.0000      Y:     0.0000      Z:    -0.6247     Total:     0.6247

  Dipole Moment: [D]
     X:     0.0000      Y:     0.0000      Z:    -1.5879     Total:     1.5879


*** tstop() called on bp1-compute00100.data.bp.acrc.priv at Tue Apr 27 17:49:13 2021
Module time:
	user time   =      99.07 seconds =       1.65 minutes
	system time =       4.31 seconds =       0.07 minutes
	total time  =          5 seconds =       0.08 minutes
Total time:
	user time   =     631.46 seconds =      10.52 minutes
	system time =      28.58 seconds =       0.48 minutes
	total time  =         28 seconds =       0.47 minutes

  //>>>>>>>>>>>>>>>>>>>>>>>>>>>>>>>>>>>//
  //    Loading displacement 3 of 3    //
  //<<<<<<<<<<<<<<<<<<<<<<<<<<<<<<<<<<<//

*** tstart() called on bp1-compute00100.data.bp.acrc.priv
*** at Tue Apr 27 17:49:13 2021

   => Loading Basis Set <=

    Name: CC-PV(T+D)Z
    Role: ORBITAL
    Keyword: BASIS
    atoms 1 entry S          line   788 file /work/zw18965/.conda/envs/p4env/share/psi4/basis/cc-pv_tpd_z.gbs 
    atoms 2 entry O          line   271 file /work/zw18965/.conda/envs/p4env/share/psi4/basis/cc-pv_tpd_z.gbs 


         ---------------------------------------------------------
                                   SCF
               by Justin Turney, Rob Parrish, Andy Simmonett
                          and Daniel G. A. Smith
                              UKS Reference
                       24 Threads, 137329 MiB Core
         ---------------------------------------------------------

  ==> Geometry <==

    Molecular point group: c2v
    Full point group: C_inf_v

    Geometry (in Angstrom), charge = 0, multiplicity = 3:

       Center              X                  Y                   Z               Mass       
    ------------   -----------------  -----------------  -----------------  -----------------
         S            0.000000000000     0.000000000000    -0.493763169945    31.972071174400
         O            0.000000000000     0.000000000000     0.986978148259    15.994914619570

  Running in c2v symmetry.

  Rotational constants: A = ************  B =      0.72115  C =      0.72115 [cm^-1]
  Rotational constants: A = ************  B =  21619.64412  C =  21619.64412 [MHz]
  Nuclear repulsion =   45.743765054036437

  Charge       = 0
  Multiplicity = 3
  Electrons    = 24
  Nalpha       = 13
  Nbeta        = 11

  ==> Algorithm <==

  SCF Algorithm Type is DF.
  DIIS enabled.
  MOM disabled.
  Fractional occupation disabled.
  Guess Type is READ.
  Energy threshold   = 1.00e-08
  Density threshold  = 1.00e-08
  Integral threshold = 0.00e+00

  ==> Primary Basis <==

  Basis Set: CC-PV(T+D)Z
    Blend: CC-PV(T+D)Z
    Number of shells: 23
    Number of basis function: 69
    Number of Cartesian functions: 80
    Spherical Harmonics?: true
    Max angular momentum: 3

  ==> DFT Potential <==

   => Composite Functional: WB97M-V <= 

    wB97M-V Hyb-GGA Exchange-Correlation Functional

    N. Mardirossian and M. Head-Gordon, J. Chem. Phys. 144, 214110 (2016)

    Deriv               =              1
    GGA                 =           TRUE
    Meta                =           TRUE

    Exchange Hybrid     =           TRUE
    MP2 Hybrid          =          FALSE

   => Exchange-Correlation Functionals <=

    1.0000   wB97M-V exchange-correlation functional

   => Exact (HF) Exchange <=

    0.8500            HF,LR [omega = 0.3000]
    0.1500               HF 

   => VV10 Non-Local Parameters <=

    VV10 B              =     6.0000E+00
    VV10 C              =     1.0000E-02

   => Molecular Quadrature <=

    Radial Scheme          =       TREUTLER
    Pruning Scheme         =           FLAT
    Nuclear Scheme         =       TREUTLER

    BS radius alpha        =              1
    Pruning alpha          =              1
    Radial Points          =             75
    Spherical Points       =            302
    Total Points           =          43136
    Total Blocks           =            391
    Max Points             =            256
    Max Functions          =             69

   => Loading Basis Set <=

    Name: (CC-PV(T+D)Z AUX)
    Role: JKFIT
    Keyword: DF_BASIS_SCF
    atoms 1 entry S          line   613 file /work/zw18965/.conda/envs/p4env/share/psi4/basis/cc-pvtz-jkfit.gbs 
    atoms 2 entry O          line   229 file /work/zw18965/.conda/envs/p4env/share/psi4/basis/cc-pvtz-jkfit.gbs 

   => Loading Basis Set <=

    Name: CC-PV(T+D)Z
    Role: ORBITAL
    Keyword: BASIS
    atoms 1 entry S          line   788 file /work/zw18965/.conda/envs/p4env/share/psi4/basis/cc-pv_tpd_z.gbs 
    atoms 2 entry O          line   271 file /work/zw18965/.conda/envs/p4env/share/psi4/basis/cc-pv_tpd_z.gbs 

  Reading orbitals from file 180, no projection.

  ==> Pre-Iterations <==

   -------------------------------------------------------
    Irrep   Nso     Nmo     Nalpha   Nbeta   Ndocc  Nsocc
   -------------------------------------------------------
     A1        30      30       0       0       0       0
     A2         7       7       0       0       0       0
     B1        16      16       0       0       0       0
     B2        16      16       0       0       0       0
   -------------------------------------------------------
    Total      69      69      13      11      11       2
   -------------------------------------------------------

  ==> Integral Setup <==

  ==> DiskDFJK: Density-Fitted J/K Matrices <==

    J tasked:                  Yes
    K tasked:                  Yes
    wK tasked:                 Yes
    Omega:               3.000E-01
    OpenMP threads:             24
    Integrals threads:          24
    Memory [MiB]:           102792
    Algorithm:                Core
    Integral Cache:           NONE
    Schwarz Cutoff:          1E-12
    Fitting Condition:       1E-10

   => Auxiliary Basis Set <=

  Basis Set: (CC-PV(T+D)Z AUX)
    Blend: CC-PVTZ-JKFIT
    Number of shells: 62
    Number of basis function: 200
    Number of Cartesian functions: 241
    Spherical Harmonics?: true
    Max angular momentum: 4

  Cached 100.0% of DFT collocation blocks in 0.199 [GiB].

  Minimum eigenvalue in the overlap matrix is 4.5991258248E-03.
  Using Symmetric Orthogonalization.

  SCF Guess: Orbitals guess was supplied from a previous computation.

  ==> Iterations <==

                           Total Energy        Delta E     RMS |[F,P]|

   @DF-UKS iter   0:  -473.37273106410311   -4.73373e+02   7.56962e-05 
   @DF-UKS iter   1:  -473.37200785256658    7.23212e-04   1.37536e-05 DIIS
   @DF-UKS iter   2:  -473.37200785353406   -9.67475e-10   1.68882e-05 DIIS
   @DF-UKS iter   3:  -473.37200798983679   -1.36303e-07   2.86049e-06 DIIS
   @DF-UKS iter   4:  -473.37200799425466   -4.41787e-09   1.10550e-06 DIIS
   @DF-UKS iter   5:  -473.37200799533269   -1.07804e-09   2.08415e-07 DIIS
   @DF-UKS iter   6:  -473.37200799546298   -1.30285e-10   9.60480e-08 DIIS
   @DF-UKS iter   7:  -473.37200799548424   -2.12594e-11   3.40065e-08 DIIS
   @DF-UKS iter   8:  -473.37200799548674   -2.50111e-12   5.15704e-09 DIIS
  Energy and wave function converged.


  ==> Post-Iterations <==

   @Spin Contamination Metric:   7.677873716E-03
   @S^2 Expected:                2.000000000E+00
   @S^2 Observed:                2.007677874E+00
   @S   Expected:                1.000000000E+00
   @S   Observed:                1.000000000E+00

    Orbital Energies [Eh]
    ---------------------

    Alpha Occupied:                                                       

       1A1   -89.293639     2A1   -19.405413     3A1    -8.202479  
       1B1    -6.112452     1B2    -6.112452     4A1    -6.109688  
       5A1    -1.217443     6A1    -0.798571     2B1    -0.564767  
       2B2    -0.564767     7A1    -0.559428     3B1    -0.351856  
       3B2    -0.351856  

    Alpha Virtual:                                                        

       8A1     0.090364     4B1     0.340483     4B2     0.340483  
       9A1     0.359257     1A2     0.380828    10A1     0.380828  
      11A1     0.385045     5B2     0.477759     5B1     0.477759  
      12A1     0.581980     6B1     0.725212     6B2     0.725212  
      13A1     0.873986    14A1     1.225906    15A1     1.393500  
       2A2     1.393509     7B1     1.455194     7B2     1.455194  
      16A1     1.465553     3A2     1.465558    17A1     1.525129  
       8B1     1.647742     8B2     1.647742     9B2     1.665154  
       9B1     1.665154    18A1     1.897102     4A2     1.897106  
      10B1     1.928937    10B2     1.928937    19A1     1.969589  
      20A1     2.229749    11B1     2.440650    11B2     2.440650  
      21A1     2.536537    22A1     3.594688    12B1     3.810996  
      12B2     3.810996    23A1     4.939151    13B1     5.176165  
      13B2     5.176165     5A2     5.246556    24A1     5.246576  
      14B2     5.346813    14B1     5.346813    25A1     5.476701  
       6A2     6.286127    26A1     6.286140    15B2     6.577045  
      15B1     6.577045    27A1     6.716941     7A2     6.716966  
      28A1     6.758164    16B1     7.002695    16B2     7.002695  
      29A1     7.460485    30A1     9.016263  

    Beta Occupied:                                                        

       1A1   -89.286414     2A1   -19.383427     3A1    -8.195248  
       4A1    -6.105352     1B1    -6.096784     1B2    -6.096784  
       5A1    -1.177438     6A1    -0.735042     7A1    -0.524374  
       2B1    -0.491734     2B2    -0.491734  

    Beta Virtual:                                                         

       3B1    -0.035543     3B2    -0.035543     8A1     0.111112  
       4B1     0.349532     4B2     0.349532     9A1     0.375744  
      10A1     0.402357     1A2     0.429349    11A1     0.429350  
       5B2     0.525478     5B1     0.525478    12A1     0.592339  
       6B1     0.748455     6B2     0.748455    13A1     0.900624  
      14A1     1.243424    15A1     1.436776     2A2     1.436779  
       7B1     1.483725     7B2     1.483725    16A1     1.517111  
       3A2     1.517112    17A1     1.553492     8B1     1.680879  
       8B2     1.680879     9B2     1.734446     9B1     1.734446  
      18A1     1.944953     4A2     1.944955    10B1     1.996720  
      10B2     1.996720    19A1     2.002195    20A1     2.247024  
      11B1     2.476078    11B2     2.476078    21A1     2.566354  
      22A1     3.624224    12B1     3.881442    12B2     3.881442  
      23A1     4.964277    13B1     5.236982    13B2     5.236982  
       5A2     5.286606    24A1     5.286612    14B1     5.376311  
      14B2     5.376311    25A1     5.502127     6A2     6.378602  
      26A1     6.378618    15B2     6.621895    15B1     6.621895  
      27A1     6.732599     7A2     6.732614    28A1     6.785336  
      16B1     7.023075    16B2     7.023075    29A1     7.490781  
      30A1     9.060305  

    Final Occupation by Irrep:
             A1    A2    B1    B2 
    DOCC [     7,    0,    2,    2 ]
    SOCC [     0,    0,    1,    1 ]

  @DF-UKS Final Energy:  -473.37200799548674

   => Energetics <=

    Nuclear Repulsion Energy =             45.7437650540364373
    One-Electron Energy =                -743.6947653360600725
    Two-Electron Energy =                 250.5185927309723297
    DFT Exchange-Correlation Energy =     -26.0404112490324842
    Empirical Dispersion Energy =           0.0000000000000000
    VV10 Nonlocal Energy =                  0.1008108045970610
    Total Energy =                       -473.3720079954867401

  UHF NO Occupations:
  HONO-2 :    2 B2 1.9983727
  HONO-1 :    3 B2 1.0000000
  HONO-0 :    3 B1 1.0000000
  LUNO+0 :    4 B2 0.0016273
  LUNO+1 :    4 B1 0.0016273
  LUNO+2 :    8 A1 0.0003229
  LUNO+3 :    9 A1 0.0001993


Computation Completed


Properties will be evaluated at   0.000000,   0.000000,   0.000000 [a0]

Properties computed using the SCF density matrix

  Nuclear Dipole Moment: [e a0]
     X:     0.0000      Y:     0.0000      Z:    -0.0083

  Electronic Dipole Moment: [e a0]
     X:     0.0000      Y:     0.0000      Z:    -0.6151

  Dipole Moment: [e a0]
     X:     0.0000      Y:     0.0000      Z:    -0.6234     Total:     0.6234

  Dipole Moment: [D]
     X:     0.0000      Y:     0.0000      Z:    -1.5846     Total:     1.5846


*** tstop() called on bp1-compute00100.data.bp.acrc.priv at Tue Apr 27 17:49:17 2021
Module time:
	user time   =      97.85 seconds =       1.63 minutes
	system time =       3.73 seconds =       0.06 minutes
	total time  =          4 seconds =       0.07 minutes
Total time:
	user time   =     729.44 seconds =      12.16 minutes
	system time =      32.32 seconds =       0.54 minutes
	total time  =         32 seconds =       0.53 minutes

         ----------------------------------------------------------
[...]

  Dipole Moment: [e a0]
     X:     0.0000      Y:     0.0000      Z:    -0.6232     Total:     0.6232

  Dipole Moment: [D]
     X:     0.0000      Y:     0.0000      Z:    -1.5840     Total:     1.5840


*** tstop() called on bp1-compute00100.data.bp.acrc.priv at Tue Apr 27 17:50:02 2021
Module time:
	user time   =     163.34 seconds =       2.72 minutes
	system time =       6.45 seconds =       0.11 minutes
	total time  =          7 seconds =       0.12 minutes
Total time:
	user time   =    1772.99 seconds =      29.55 minutes
	system time =      74.78 seconds =       1.25 minutes
	total time  =         77 seconds =       1.28 minutes

  //>>>>>>>>>>>>>>>>>>>>>>>>>>>>>>>>>>>//
  //    Loading displacement 3 of 3    //
  //<<<<<<<<<<<<<<<<<<<<<<<<<<<<<<<<<<<//

*** tstart() called on bp1-compute00100.data.bp.acrc.priv
*** at Tue Apr 27 17:50:02 2021

   => Loading Basis Set <=

    Name: CC-PV(T+D)Z
    Role: ORBITAL
    Keyword: BASIS
    atoms 1 entry S          line   788 file /work/zw18965/.conda/envs/p4env/share/psi4/basis/cc-pv_tpd_z.gbs 
    atoms 2 entry O          line   271 file /work/zw18965/.conda/envs/p4env/share/psi4/basis/cc-pv_tpd_z.gbs 


         ---------------------------------------------------------
                                   SCF
               by Justin Turney, Rob Parrish, Andy Simmonett
                          and Daniel G. A. Smith
                              UKS Reference
                       24 Threads, 137329 MiB Core
         ---------------------------------------------------------

  ==> Geometry <==

    Molecular point group: c2v
    Full point group: C_inf_v

    Geometry (in Angstrom), charge = 0, multiplicity = 3:

       Center              X                  Y                   Z               Mass       
    ------------   -----------------  -----------------  -----------------  -----------------
         S            0.000000000000     0.000000000000    -0.493130046297    31.972071174400
         O            0.000000000000     0.000000000000     0.985712603877    15.994914619570

  Running in c2v symmetry.

  Rotational constants: A = ************  B =      0.72301  C =      0.72301 [cm^-1]
  Rotational constants: A = ************  B =  21675.19415  C =  21675.19415 [MHz]
  Nuclear repulsion =   45.802494915731103

  Charge       = 0
  Multiplicity = 3
  Electrons    = 24
  Nalpha       = 13
  Nbeta        = 11

  ==> Algorithm <==

  SCF Algorithm Type is DF.
  DIIS enabled.
  MOM disabled.
  Fractional occupation disabled.
  Guess Type is SAD.
  Energy threshold   = 1.00e-10
  Density threshold  = 1.00e-10
  Integral threshold = 0.00e+00

  ==> Primary Basis <==

  Basis Set: CC-PV(T+D)Z
    Blend: CC-PV(T+D)Z
    Number of shells: 23
    Number of basis function: 69
    Number of Cartesian functions: 80
    Spherical Harmonics?: true
    Max angular momentum: 3

  ==> DFT Potential <==

   => Composite Functional: WB97M-V <= 

    wB97M-V Hyb-GGA Exchange-Correlation Functional

    N. Mardirossian and M. Head-Gordon, J. Chem. Phys. 144, 214110 (2016)

    Deriv               =              1
    GGA                 =           TRUE
    Meta                =           TRUE

    Exchange Hybrid     =           TRUE
    MP2 Hybrid          =          FALSE

   => Exchange-Correlation Functionals <=

    1.0000   wB97M-V exchange-correlation functional

   => Exact (HF) Exchange <=

    0.8500            HF,LR [omega = 0.3000]
    0.1500               HF 

   => VV10 Non-Local Parameters <=

    VV10 B              =     6.0000E+00
    VV10 C              =     1.0000E-02

   => Molecular Quadrature <=

    Radial Scheme          =       TREUTLER
    Pruning Scheme         =           FLAT
    Nuclear Scheme         =       TREUTLER

    BS radius alpha        =              1
    Pruning alpha          =              1
    Radial Points          =             75
    Spherical Points       =            302
    Total Points           =          43136
    Total Blocks           =            391
    Max Points             =            256
    Max Functions          =             69

   => Loading Basis Set <=

    Name: (CC-PV(T+D)Z AUX)
    Role: JKFIT
    Keyword: DF_BASIS_SCF
    atoms 1 entry S          line   613 file /work/zw18965/.conda/envs/p4env/share/psi4/basis/cc-pvtz-jkfit.gbs 
    atoms 2 entry O          line   229 file /work/zw18965/.conda/envs/p4env/share/psi4/basis/cc-pvtz-jkfit.gbs 

  ==> Pre-Iterations <==

   -------------------------------------------------------
    Irrep   Nso     Nmo     Nalpha   Nbeta   Ndocc  Nsocc
   -------------------------------------------------------
     A1        30      30       0       0       0       0
     A2         7       7       0       0       0       0
     B1        16      16       0       0       0       0
     B2        16      16       0       0       0       0
   -------------------------------------------------------
    Total      69      69      13      11      11       2
   -------------------------------------------------------

  ==> Integral Setup <==

  ==> DiskDFJK: Density-Fitted J/K Matrices <==

    J tasked:                  Yes
    K tasked:                  Yes
    wK tasked:                 Yes
    Omega:               3.000E-01
    OpenMP threads:             24
    Integrals threads:          24
    Memory [MiB]:           102792
    Algorithm:                Core
    Integral Cache:           NONE
    Schwarz Cutoff:          1E-12
    Fitting Condition:       1E-10

   => Auxiliary Basis Set <=

  Basis Set: (CC-PV(T+D)Z AUX)
    Blend: CC-PVTZ-JKFIT
    Number of shells: 62
    Number of basis function: 200
    Number of Cartesian functions: 241
    Spherical Harmonics?: true
    Max angular momentum: 4

  Cached 100.0% of DFT collocation blocks in 0.199 [GiB].

  Minimum eigenvalue in the overlap matrix is 4.5752711436E-03.
  Using Symmetric Orthogonalization.

  SCF Guess: Superposition of Atomic Densities via on-the-fly atomic UHF.

  ==> Iterations <==

                           Total Energy        Delta E     RMS |[F,P]|

   @DF-UKS iter SAD:  -472.94205450657353   -4.72942e+02   0.00000e+00 
   @DF-UKS iter   1:  -473.29197458658172   -3.49920e-01   1.19929e-02 DIIS
   @DF-UKS iter   2:  -473.20430194593075    8.76726e-02   1.77887e-02 DIIS
   @DF-UKS iter   3:  -473.37075843349680   -1.66456e-01   1.30753e-03 DIIS
   @DF-UKS iter   4:  -473.37178598929103   -1.02756e-03   3.85713e-04 DIIS
   @DF-UKS iter   5:  -473.37197444922492   -1.88460e-04   1.17335e-04 DIIS
   @DF-UKS iter   6:  -473.37200260564987   -2.81564e-05   4.41876e-05 DIIS
   @DF-UKS iter   7:  -473.37200801003883   -5.40439e-06   1.48547e-05 DIIS
   @DF-UKS iter   8:  -473.37200837843176   -3.68393e-07   4.66307e-06 DIIS
   @DF-UKS iter   9:  -473.37200840904467   -3.06129e-08   7.52085e-07 DIIS
   @DF-UKS iter  10:  -473.37200840990283   -8.58165e-10   1.40492e-07 DIIS
   @DF-UKS iter  11:  -473.37200840993933   -3.64935e-11   4.25466e-08 DIIS
   @DF-UKS iter  12:  -473.37200840994171   -2.38742e-12   8.99437e-09 DIIS
   @DF-UKS iter  13:  -473.37200840994205   -3.41061e-13   2.24479e-09 DIIS
   @DF-UKS iter  14:  -473.37200840994217   -1.13687e-13   3.47624e-10 DIIS
   @DF-UKS iter  15:  -473.37200840994240   -2.27374e-13   5.29685e-11 DIIS
  Energy and wave function converged.


  ==> Post-Iterations <==

   @Spin Contamination Metric:   7.649335588E-03
   @S^2 Expected:                2.000000000E+00
   @S^2 Observed:                2.007649336E+00
   @S   Expected:                1.000000000E+00
   @S   Observed:                1.000000000E+00

    Orbital Energies [Eh]
    ---------------------

    Alpha Occupied:                                                       

       1A1   -89.293451     2A1   -19.405181     3A1    -8.202349  
       1B1    -6.112319     1B2    -6.112319     4A1    -6.109553  
       5A1    -1.218241     6A1    -0.798282     2B2    -0.565175  
       2B1    -0.565175     7A1    -0.559600     3B2    -0.351542  
       3B1    -0.351542  

    Alpha Virtual:                                                        

       8A1     0.090742     4B1     0.340464     4B2     0.340464  
       9A1     0.359245     1A2     0.380803    10A1     0.380803  
      11A1     0.385166     5B1     0.478243     5B2     0.478243  
      12A1     0.582423     6B2     0.725082     6B1     0.725082  
      13A1     0.875379    14A1     1.225868    15A1     1.393443  
       2A2     1.393452     7B1     1.455176     7B2     1.455176  
      16A1     1.465350     3A2     1.465355    17A1     1.525122  
       8B1     1.649101     8B2     1.649101     9B1     1.665145  
       9B2     1.665145    18A1     1.898020     4A2     1.898024  
      10B1     1.929028    10B2     1.929028    19A1     1.970464  
      20A1     2.229010    11B2     2.441595    11B1     2.441595  
      21A1     2.538751    22A1     3.596441    12B2     3.811935  
      12B1     3.811935    23A1     4.941972    13B2     5.176082  
      13B1     5.176082     5A2     5.247010    24A1     5.247030  
      14B2     5.347148    14B1     5.347148    25A1     5.480169  
       6A2     6.286534    26A1     6.286547    15B2     6.577798  
      15B1     6.577798    27A1     6.717074     7A2     6.717100  
      28A1     6.761902    16B1     7.005261    16B2     7.005261  
      29A1     7.455778    30A1     9.027476  

    Beta Occupied:                                                        

       1A1   -89.286226     2A1   -19.383225     3A1    -8.195118  
       4A1    -6.105215     1B1    -6.096652     1B2    -6.096652  
       5A1    -1.178335     6A1    -0.734738     7A1    -0.524532  
       2B1    -0.492267     2B2    -0.492267  

    Beta Virtual:                                                         

       3B1    -0.035237     3B2    -0.035237     8A1     0.111452  
       4B1     0.349504     4B2     0.349504     9A1     0.375711  
      10A1     0.402539     1A2     0.429356    11A1     0.429357  
       5B1     0.525997     5B2     0.525997    12A1     0.592754  
       6B1     0.748283     6B2     0.748283    13A1     0.902063  
      14A1     1.243323    15A1     1.436673     2A2     1.436675  
       7B2     1.483715     7B1     1.483715    16A1     1.516968  
       3A2     1.516969    17A1     1.553562     8B2     1.682310  
       8B1     1.682310     9B1     1.734483     9B2     1.734483  
      18A1     1.945889     4A2     1.945891    10B2     1.996822  
      10B1     1.996822    19A1     2.003086    20A1     2.246307  
      11B2     2.477048    11B1     2.477048    21A1     2.568581  
      22A1     3.625959    12B1     3.882274    12B2     3.882274  
      23A1     4.967070    13B2     5.236789    13B1     5.236789  
       5A2     5.286996    24A1     5.287002    14B1     5.376592  
      14B2     5.376592    25A1     5.505596     6A2     6.378870  
      26A1     6.378887    15B1     6.622582    15B2     6.622582  
      27A1     6.732737     7A2     6.732752    28A1     6.789057  
      16B1     7.025667    16B2     7.025667    29A1     7.486085  
      30A1     9.071430  

    Final Occupation by Irrep:
             A1    A2    B1    B2 
    DOCC [     7,    0,    2,    2 ]
    SOCC [     0,    0,    1,    1 ]

  @DF-UKS Final Energy:  -473.37200840994240

   => Energetics <=

    Nuclear Repulsion Energy =             45.8024949157311028
    One-Electron Energy =                -743.8107679930915310
    Two-Electron Energy =                 250.5769881643889505
    DFT Exchange-Correlation Energy =     -26.0415323779049999
    Empirical Dispersion Energy =           0.0000000000000000
    VV10 Nonlocal Energy =                  0.1008088809341432
    Total Energy =                       -473.3720084099423389

  UHF NO Occupations:
  HONO-2 :    2 B2 1.9983795
  HONO-1 :    3 B1 1.0000000
  HONO-0 :    3 B2 1.0000000
  LUNO+0 :    4 B2 0.0016205
  LUNO+1 :    4 B1 0.0016205
  LUNO+2 :    8 A1 0.0003228
  LUNO+3 :    9 A1 0.0001992


Computation Completed


Properties will be evaluated at   0.000000,   0.000000,   0.000000 [a0]

Properties computed using the SCF density matrix

  Nuclear Dipole Moment: [e a0]
     X:     0.0000      Y:     0.0000      Z:    -0.0083

  Electronic Dipole Moment: [e a0]
     X:     0.0000      Y:     0.0000      Z:    -0.6136

  Dipole Moment: [e a0]
     X:     0.0000      Y:     0.0000      Z:    -0.6219     Total:     0.6219

  Dipole Moment: [D]
     X:     0.0000      Y:     0.0000      Z:    -1.5808     Total:     1.5808


*** tstop() called on bp1-compute00100.data.bp.acrc.priv at Tue Apr 27 17:50:09 2021
Module time:
	user time   =     162.42 seconds =       2.71 minutes
	system time =       6.38 seconds =       0.11 minutes
	total time  =          7 seconds =       0.12 minutes
Total time:
	user time   =    1935.55 seconds =      32.26 minutes
	system time =      81.17 seconds =       1.35 minutes
	total time  =         84 seconds =       1.40 minutes

         ----------------------------------------------------------
                                   FINDIF
                     R. A. King and Jonathon Misiewicz
         ---------------------------------------------------------

  Computing second-derivative from energies using projected, 
  symmetry-adapted, cartesian coordinates.

  3 energies passed in, including the reference geometry.
    Using 3-point formula.
    Energy without displacement: -473.3720091664
    Check energies below for precision!
    0: -1 :      -473.3720085322
    0: 1  :      -473.3720084099

-------------------------------------------------------------


  ==> Harmonic Vibrational Analysis <==

  non-mass-weighted Hessian:       Symmetric? True   Hermitian? True   Lin Dep Dim?  5 (0)
  projection of translations (True) and rotations (True) removed 5 degrees of freedom (5)
  total projector:                 Symmetric? True   Hermitian? True   Lin Dep Dim?  5 (5)
  mass-weighted Hessian:           Symmetric? True   Hermitian? True   Lin Dep Dim?  5 (0)
  pre-proj  low-frequency mode:    0.0000i [cm^-1]
  pre-proj  low-frequency mode:    0.0000  [cm^-1]
  pre-proj  low-frequency mode:    0.0000  [cm^-1]
  pre-proj  low-frequency mode:    0.0000  [cm^-1]
  pre-proj  low-frequency mode:    0.0000  [cm^-1]
  pre-proj  all modes:['0.0000i' '0.0000' '0.0000' '0.0000' '0.0000' '1212.3615']
  projected mass-weighted Hessian: Symmetric? True   Hermitian? True   Lin Dep Dim?  5 (5)
  post-proj low-frequency mode:    0.0000i [cm^-1] (TR)
  post-proj low-frequency mode:    0.0000  [cm^-1] (TR)
  post-proj low-frequency mode:    0.0000  [cm^-1] (TR)
  post-proj low-frequency mode:    0.0000  [cm^-1] (TR)
  post-proj low-frequency mode:    0.0000  [cm^-1] (TR)
  post-proj  all modes:['0.0000i' '0.0000' '0.0000' '0.0000' '0.0000' '1212.3615']

  Vibration                       6           
  Freq [cm^-1]                1212.3615       
  Irrep                           A1          
  Reduced mass [u]             19.1932        
  Force const [mDyne/A]        16.6212        
  Turning point v=0 [a0]        0.0719        
  RMS dev v=0 [a0 u^1/2]        0.2228        
  Char temp [K]               1744.3183       
  ----------------------------------------------------------------------------------
      1   S                0.00  0.00 -0.45   
      2   O                0.00  0.00  0.89   

  ==> Thermochemistry Components <==

  Entropy, S
    Electronic S            2.183 [cal/(mol K)]        9.134 [J/(mol K)]       0.00347910 [mEh/K] (multiplicity = 3)
    Translational S        37.528 [cal/(mol K)]      157.018 [J/(mol K)]       0.05980487 [mEh/K] (mol. weight = 47.9670 [u], P = 101325.00 [Pa])
    Rotational S           13.233 [cal/(mol K)]       55.368 [J/(mol K)]       0.02108854 [mEh/K] (symmetry no. = 1)
    Vibrational S           0.039 [cal/(mol K)]        0.164 [J/(mol K)]       0.00006261 [mEh/K]
  Total S                  52.984 [cal/(mol K)]      221.684 [J/(mol K)]       0.08443512 [mEh/K]
  Correction S              0.000 [cal/(mol K)]        0.000 [J/(mol K)]       0.00000000 [mEh/K]

  Constant volume heat capacity, Cv
    Electronic Cv           0.000 [cal/(mol K)]        0.000 [J/(mol K)]       0.00000000 [mEh/K]
    Translational Cv        2.981 [cal/(mol K)]       12.472 [J/(mol K)]       0.00475022 [mEh/K]
    Rotational Cv           1.987 [cal/(mol K)]        8.314 [J/(mol K)]       0.00316681 [mEh/K]
    Vibrational Cv          0.197 [cal/(mol K)]        0.824 [J/(mol K)]       0.00031382 [mEh/K]
  Total Cv                  5.165 [cal/(mol K)]       21.610 [J/(mol K)]       0.00823085 [mEh/K]
  Correction Cv             0.000 [cal/(mol K)]        0.000 [J/(mol K)]       0.00000000 [mEh/K]

  Constant pressure heat capacity, Cp
    Electronic Cp           0.000 [cal/(mol K)]        0.000 [J/(mol K)]       0.00000000 [mEh/K]
    Translational Cp        4.968 [cal/(mol K)]       20.786 [J/(mol K)]       0.00791703 [mEh/K]
    Rotational Cp           1.987 [cal/(mol K)]        8.314 [J/(mol K)]       0.00316681 [mEh/K]
    Vibrational Cp          0.197 [cal/(mol K)]        0.824 [J/(mol K)]       0.00031382 [mEh/K]
  Total Cp                  7.152 [cal/(mol K)]       29.925 [J/(mol K)]       0.01139766 [mEh/K]
  Correction Cp             0.000 [cal/(mol K)]        0.000 [J/(mol K)]       0.00000000 [mEh/K]

  ==> Thermochemistry Energy Analysis <==

  Raw electronic energy, E0
  Total E0, Electronic energy at well bottom at 0 [K]                 -473.37200917 [Eh]

  Zero-point energy, ZPE_vib = Sum_i nu_i / 2
    Electronic ZPE          0.000 [kcal/mol]        0.000 [kJ/mol]       0.00000000 [Eh]
    Translational ZPE       0.000 [kcal/mol]        0.000 [kJ/mol]       0.00000000 [Eh]
    Rotational ZPE          0.000 [kcal/mol]        0.000 [kJ/mol]       0.00000000 [Eh]
    Vibrational ZPE         1.733 [kcal/mol]        7.252 [kJ/mol]       0.00276196 [Eh]         606.181 [cm^-1]
  Correction ZPE            1.733 [kcal/mol]        7.252 [kJ/mol]       0.00276196 [Eh]         606.181 [cm^-1]
  Total ZPE, Electronic energy at 0 [K]                               -473.36924720 [Eh]

  Thermal Energy, E (includes ZPE)
    Electronic E            0.000 [kcal/mol]        0.000 [kJ/mol]       0.00000000 [Eh]
    Translational E         0.889 [kcal/mol]        3.718 [kJ/mol]       0.00141628 [Eh]
    Rotational E            0.592 [kcal/mol]        2.479 [kJ/mol]       0.00094418 [Eh]
    Vibrational E           1.743 [kcal/mol]        7.293 [kJ/mol]       0.00277791 [Eh]
  Correction E              3.224 [kcal/mol]       13.491 [kJ/mol]       0.00513837 [Eh]
  Total E, Electronic energy at  298.15 [K]                           -473.36687080 [Eh]

  Enthalpy, H_trans = E_trans + k_B * T
    Electronic H            0.000 [kcal/mol]        0.000 [kJ/mol]       0.00000000 [Eh]
    Translational H         1.481 [kcal/mol]        6.197 [kJ/mol]       0.00236046 [Eh]
    Rotational H            0.592 [kcal/mol]        2.479 [kJ/mol]       0.00094418 [Eh]
    Vibrational H           1.743 [kcal/mol]        7.293 [kJ/mol]       0.00277791 [Eh]
  Correction H              3.817 [kcal/mol]       15.970 [kJ/mol]       0.00608256 [Eh]
  Total H, Enthalpy at  298.15 [K]                                    -473.36592661 [Eh]

  Gibbs free energy, G = H - T * S
    Electronic G           -0.651 [kcal/mol]       -2.723 [kJ/mol]      -0.00103729 [Eh]
    Translational G        -9.708 [kcal/mol]      -40.617 [kJ/mol]      -0.01547036 [Eh]
    Rotational G           -3.353 [kcal/mol]      -14.029 [kJ/mol]      -0.00534336 [Eh]
    Vibrational G           1.731 [kcal/mol]        7.244 [kJ/mol]       0.00275924 [Eh]
  Correction G            -11.980 [kcal/mol]      -50.125 [kJ/mol]      -0.01909177 [Eh]
  Total G, Free enthalpy at  298.15 [K]                               -473.39110094 [Eh]

    Psi4 stopped on: Tuesday, 27 April 2021 05:50PM
    Psi4 wall time for execution: 0:01:24.85

*** Psi4 exiting successfully. Buy a developer a beer!
