
    -----------------------------------------------------------------------
          Psi4: An Open-Source Ab Initio Electronic Structure Package
                               Psi4 1.3.2 release

                         Git: Rev {HEAD} ecbda83 


    R. M. Parrish, L. A. Burns, D. G. A. Smith, A. C. Simmonett,
    A. E. DePrince III, E. G. Hohenstein, U. Bozkaya, A. Yu. Sokolov,
    R. Di Remigio, R. M. Richard, J. F. Gonthier, A. M. James,
    H. R. McAlexander, A. Kumar, M. Saitow, X. Wang, B. P. Pritchard,
    P. Verma, H. F. Schaefer III, K. Patkowski, R. A. King, E. F. Valeev,
    F. A. Evangelista, J. M. Turney, T. D. Crawford, and C. D. Sherrill,
    J. Chem. Theory Comput. 13(7) pp 3185--3197 (2017).
    (doi: 10.1021/acs.jctc.7b00174)


                         Additional Contributions by
    P. Kraus, H. Kruse, M. H. Lechner, M. C. Schieber, R. A. Shaw,
    A. Alenaizan, R. Galvelis, Z. L. Glick, S. Lehtola, and J. P. Misiewicz

    -----------------------------------------------------------------------


    Psi4 started on: Monday, 19 April 2021 03:49PM

    Process ID: 17323
    Host:       bp1-compute00143.data.bp.acrc.priv
    PSIDATADIR: /work/zw18965/.conda/envs/p4env/share/psi4
    Memory:     500.0 MiB
    Threads:    24
    
  ==> Input File <==

--------------------------------------------------------------------------
memory 144 GB

molecule {
0 1
B     0.000025702137  -0.000052552589  -0.198407020528
H    -0.399622606768  -1.029858472420   0.215550091991
H    -0.171134703482   0.990434479161   0.419174884486
H     0.570731623988   0.039476540557  -1.230190221591}

set basis aug-cc-pV(Q+d)Z
 
optimize("WB97M-V")
frequencies("WB97M-V")--------------------------------------------------------------------------

  Memory set to 134.110 GiB by Python driver.
gradient() will perform gradient computation by finite difference of analytic energies.

         ----------------------------------------------------------
                                   FINDIF
                     R. A. King and Jonathon Misiewicz
         ---------------------------------------------------------

  Using finite-differences of energies to determine gradients.
    Generating geometries for use with 3-point formula.
    Displacement size will be 5.00e-03.
    Number of atoms is 4.
    Number of symmetric SALCs is 6.
    Translations projected? 1. Rotations projected? 1.
    Number of geometries (including reference) is 13.

  //>>>>>>>>>>>>>>>>>>>>>>>>>>>>>>>>>>>//
  //    Loading displacement 1 of 13   //
  //<<<<<<<<<<<<<<<<<<<<<<<<<<<<<<<<<<<//

*** tstart() called on bp1-compute00143.data.bp.acrc.priv
*** at Mon Apr 19 15:49:48 2021

   => Loading Basis Set <=

    Name: AUG-CC-PV(Q+D)Z
    Role: ORBITAL
    Keyword: BASIS
    atoms 1   entry B          line   259 file /work/zw18965/.conda/envs/p4env/share/psi4/basis/aug-cc-pv_qpd_z.gbs 
    atoms 2-4 entry H          line    56 file /work/zw18965/.conda/envs/p4env/share/psi4/basis/aug-cc-pv_qpd_z.gbs 


         ---------------------------------------------------------
                                   SCF
               by Justin Turney, Rob Parrish, Andy Simmonett
                          and Daniel G. A. Smith
                              RKS Reference
                       24 Threads, 137329 MiB Core
         ---------------------------------------------------------

  ==> Geometry <==

    Molecular point group: c1
    Full point group: C1

    Geometry (in Angstrom), charge = 0, multiplicity = 1:

       Center              X                  Y                   Z               Mass       
    ------------   -----------------  -----------------  -----------------  -----------------
         B            0.000007382502    -0.000015096789     0.000017537100    11.009305360000
         H           -0.399640926403    -1.029821016620     0.413974649619     1.007825032230
         H           -0.171153023117     0.990471934961     0.617599442114     1.007825032230
         H            0.570713304353     0.039513996357    -1.031765663963     1.007825032230

  Running in c1 symmetry.

  Rotational constants: A =      8.01264  B =      8.01225  C =      4.00622 [cm^-1]
  Rotational constants: A = 240212.77897  B = 240201.18959  C = 120103.49291 [MHz]
  Nuclear repulsion =    7.505380673888212

  Charge       = 0
  Multiplicity = 1
  Electrons    = 8
  Nalpha       = 4
  Nbeta        = 4

  ==> Algorithm <==

  SCF Algorithm Type is DF.
  DIIS enabled.
  MOM disabled.
  Fractional occupation disabled.
  Guess Type is SAD.
  Energy threshold   = 1.00e-08
  Density threshold  = 1.00e-08
  Integral threshold = 0.00e+00

  ==> Primary Basis <==

  Basis Set: AUG-CC-PV(Q+D)Z
    Blend: AUG-CC-PV(Q+D)Z
    Number of shells: 62
    Number of basis function: 218
    Number of Cartesian functions: 270
    Spherical Harmonics?: true
    Max angular momentum: 4

  ==> DFT Potential <==

   => Composite Functional: WB97M-V <= 

    wB97M-V Hyb-GGA Exchange-Correlation Functional

    N. Mardirossian and M. Head-Gordon, J. Chem. Phys. 144, 214110 (2016)

    Deriv               =              1
    GGA                 =           TRUE
    Meta                =           TRUE

    Exchange Hybrid     =           TRUE
    MP2 Hybrid          =          FALSE

   => Exchange-Correlation Functionals <=

    1.0000   wB97M-V exchange-correlation functional

   => Exact (HF) Exchange <=

    0.8500            HF,LR [omega = 0.3000]
    0.1500               HF 

   => VV10 Non-Local Parameters <=

    VV10 B              =     6.0000E+00
    VV10 C              =     1.0000E-02

   => Molecular Quadrature <=

    Radial Scheme          =       TREUTLER
    Pruning Scheme         =           FLAT
    Nuclear Scheme         =       TREUTLER

    BS radius alpha        =              1
    Pruning alpha          =              1
    Radial Points          =             75
    Spherical Points       =            302
    Total Points           =          90600
    Total Blocks           =            743
    Max Points             =            256
    Max Functions          =            218

   => Loading Basis Set <=

    Name: (AUG-CC-PV(Q+D)Z AUX)
    Role: JKFIT
    Keyword: DF_BASIS_SCF
    atoms 1   entry B          line   108 file /work/zw18965/.conda/envs/p4env/share/psi4/basis/aug-cc-pvqz-jkfit.gbs 
    atoms 2-4 entry H          line    70 file /work/zw18965/.conda/envs/p4env/share/psi4/basis/aug-cc-pvqz-jkfit.gbs 

  ==> Pre-Iterations <==

   -------------------------------------------------------
    Irrep   Nso     Nmo     Nalpha   Nbeta   Ndocc  Nsocc
   -------------------------------------------------------
     A        218     218       0       0       0       0
   -------------------------------------------------------
    Total     218     218       4       4       4       0
   -------------------------------------------------------

  ==> Integral Setup <==

  ==> DiskDFJK: Density-Fitted J/K Matrices <==

    J tasked:                  Yes
    K tasked:                  Yes
    wK tasked:                 Yes
    Omega:               3.000E-01
    OpenMP threads:             24
    Integrals threads:          24
    Memory [MiB]:           101636
    Algorithm:                Core
    Integral Cache:           NONE
    Schwarz Cutoff:          1E-12
    Fitting Condition:       1E-10

   => Auxiliary Basis Set <=

  Basis Set: (AUG-CC-PV(Q+D)Z AUX)
    Blend: AUG-CC-PVQZ-JKFIT
    Number of shells: 88
    Number of basis function: 370
    Number of Cartesian functions: 501
    Spherical Harmonics?: true
    Max angular momentum: 5

  Cached 100.0% of DFT collocation blocks in 1.329 [GiB].

  Minimum eigenvalue in the overlap matrix is 2.6448533738E-05.
  Using Symmetric Orthogonalization.

  SCF Guess: Superposition of Atomic Densities via on-the-fly atomic UHF.

  ==> Iterations <==

                           Total Energy        Delta E     RMS |[F,P]|

   @DF-RKS iter SAD:   -25.91087002738032   -2.59109e+01   0.00000e+00 
   @DF-RKS iter   1:   -26.56337027420596   -6.52500e-01   8.74658e-04 DIIS
   @DF-RKS iter   2:   -26.58323245616030   -1.98622e-02   2.89877e-04 DIIS
   @DF-RKS iter   3:   -26.58553601141553   -2.30356e-03   2.57093e-05 DIIS
   @DF-RKS iter   4:   -26.58557511082785   -3.90994e-05   4.85138e-06 DIIS
   @DF-RKS iter   5:   -26.58557715639906   -2.04557e-06   6.81064e-07 DIIS
   @DF-RKS iter   6:   -26.58557719191255   -3.55135e-08   6.38344e-08 DIIS
   @DF-RKS iter   7:   -26.58557719226353   -3.50983e-10   8.59861e-09 DIIS
  Energy and wave function converged.


  ==> Post-Iterations <==

    Orbital Energies [Eh]
    ---------------------

    Doubly Occupied:                                                      

       1A     -6.914502     2A     -0.628632     3A     -0.453976  
       4A     -0.453942  

    Virtual:                                                              

       5A     -0.006939     6A      0.017271     7A      0.030796  
       8A      0.030798     9A      0.053403    10A      0.067419  
      11A      0.067422    12A      0.087616    13A      0.105811  
      14A      0.105815    15A      0.115192    16A      0.120622  
      17A      0.120626    18A      0.192652    19A      0.192657  
      20A      0.211812    21A      0.222397    22A      0.232294  
      23A      0.248424    24A      0.248426    25A      0.250279  
      26A      0.259307    27A      0.259314    28A      0.282560  
      29A      0.285875    30A      0.285881    31A      0.350328  
      32A      0.389943    33A      0.389951    34A      0.425756  
      35A      0.425775    36A      0.459433    37A      0.482179  
      38A      0.482185    39A      0.523348    40A      0.523355  
      41A      0.524352    42A      0.549486    43A      0.549488  
      44A      0.562519    45A      0.569264    46A      0.659791  
      47A      0.678678    48A      0.705661    49A      0.705669  
      50A      0.716622    51A      0.742704    52A      0.742740  
      53A      0.747657    54A      0.747666    55A      0.794731  
      56A      0.817943    57A      0.817960    58A      0.856138  
      59A      0.856142    60A      0.864750    61A      0.864776  
      62A      0.871752    63A      0.876293    64A      0.930925  
      65A      1.055327    66A      1.055337    67A      1.094284  
      68A      1.094293    69A      1.116990    70A      1.167358  
      71A      1.190568    72A      1.190614    73A      1.196042  
      74A      1.409120    75A      1.409130    76A      1.416257  
      77A      1.420485    78A      1.420514    79A      1.444173  
      80A      1.463891    81A      1.463898    82A      1.497452  
      83A      1.513788    84A      1.513789    85A      1.570567  
      86A      1.570595    87A      1.579649    88A      1.697569  
      89A      1.697605    90A      1.698935    91A      1.698952  
      92A      1.701604    93A      1.731548    94A      1.791581  
      95A      1.814733    96A      1.814769    97A      1.862546  
      98A      1.896544    99A      1.899302   100A      1.899309  
     101A      1.925653   102A      2.011879   103A      2.011897  
     104A      2.014318   105A      2.014339   106A      2.074204  
     107A      2.074222   108A      2.106778   109A      2.113568  
     110A      2.113582   111A      2.115760   112A      2.133858  
     113A      2.133888   114A      2.211914   115A      2.213066  
     116A      2.240291   117A      2.262374   118A      2.262400  
     119A      2.589193   120A      2.712735   121A      2.712924  
     122A      2.844147   123A      2.951365   124A      2.951398  
     125A      3.020233   126A      3.020236   127A      3.076743  
     128A      3.076754   129A      3.148453   130A      3.159287  
     131A      3.159351   132A      3.162927   133A      3.183393  
     134A      3.236729   135A      3.236740   136A      3.320406  
     137A      3.382543   138A      3.382623   139A      3.450913  
     140A      3.451000   141A      3.566818   142A      3.667352  
     143A      3.811060   144A      3.958083   145A      3.958106  
     146A      3.977039   147A      3.977062   148A      4.006036  
     149A      4.073921   150A      4.120605   151A      4.120622  
     152A      4.131930   153A      4.193236   154A      4.193276  
     155A      4.343339   156A      4.343351   157A      4.554335  
     158A      4.630646   159A      4.908196   160A      4.908222  
     161A      5.055126   162A      5.055167   163A      5.080917  
     164A      5.166116   165A      5.166185   166A      5.185041  
     167A      5.239988   168A      6.018099   169A      6.018204  
     170A      6.389348   171A      6.443242   172A      6.443274  
     173A      6.587797   174A      6.607763   175A      6.607822  
     176A      6.831284   177A      6.831332   178A      7.160928  
     179A      7.194718   180A      7.194896   181A      7.419890  
     182A      7.419924   183A      7.432480   184A      7.432577  
     185A      7.511401   186A      7.631384   187A      7.806374  
     188A      7.806494   189A      7.861154   190A      7.863587  
     191A      8.049551   192A      8.211306   193A      8.211487  
     194A      8.530436   195A      8.530596   196A      8.649802  
     197A      8.649893   198A      8.703467   199A      8.706649  
     200A      8.706798   201A      8.765646   202A      8.949816  
     203A      8.963884   204A      8.986735   205A      9.022802  
     206A      9.022937   207A      9.134925   208A      9.237442  
     209A      9.237692   210A      9.460483   211A      9.596563  
     212A      9.596680   213A      9.989690   214A      9.989818  
     215A     10.118000   216A     11.002972   217A     11.003512  
     218A     19.050688  

    Final Occupation by Irrep:
              A 
    DOCC [     4 ]

  @DF-RKS Final Energy:   -26.58557719226353

   => Energetics <=

    Nuclear Repulsion Energy =              7.5053806738882116
    One-Electron Energy =                 -49.2173213016666864
    Two-Electron Energy =                  18.4638121655842333
    DFT Exchange-Correlation Energy =      -3.3712918913018974
    Empirical Dispersion Energy =           0.0000000000000000
    VV10 Nonlocal Energy =                  0.0338431612326115
    Total Energy =                        -26.5855771922635284

Computation Completed


Properties will be evaluated at   0.000000,   0.000000,   0.000000 [a0]

Properties computed using the SCF density matrix

  Nuclear Dipole Moment: [e a0]
     X:    -0.0001      Y:     0.0002      Z:    -0.0002

  Electronic Dipole Moment: [e a0]
     X:     0.0001      Y:    -0.0002      Z:     0.0003

  Dipole Moment: [e a0]
     X:     0.0000      Y:    -0.0001      Z:     0.0001     Total:     0.0001

  Dipole Moment: [D]
     X:     0.0001      Y:    -0.0002      Z:     0.0002     Total:     0.0003


*** tstop() called on bp1-compute00143.data.bp.acrc.priv at Mon Apr 19 15:49:53 2021
Module time:
	user time   =     105.78 seconds =       1.76 minutes
	system time =       6.26 seconds =       0.10 minutes
	total time  =          5 seconds =       0.08 minutes
Total time:
	user time   =     105.78 seconds =       1.76 minutes
	system time =       6.26 seconds =       0.10 minutes
	total time  =          5 seconds =       0.08 minutes

  //>>>>>>>>>>>>>>>>>>>>>>>>>>>>>>>>>>>//
  //    Loading displacement 2 of 13   //
  //<<<<<<<<<<<<<<<<<<<<<<<<<<<<<<<<<<<//

*** tstart() called on bp1-compute00143.data.bp.acrc.priv
*** at Mon Apr 19 15:49:53 2021

   => Loading Basis Set <=

    Name: AUG-CC-PV(Q+D)Z
    Role: ORBITAL
    Keyword: BASIS
    atoms 1   entry B          line   259 file /work/zw18965/.conda/envs/p4env/share/psi4/basis/aug-cc-pv_qpd_z.gbs 
    atoms 2-4 entry H          line    56 file /work/zw18965/.conda/envs/p4env/share/psi4/basis/aug-cc-pv_qpd_z.gbs 


         ---------------------------------------------------------
                                   SCF
               by Justin Turney, Rob Parrish, Andy Simmonett
                          and Daniel G. A. Smith
                              RKS Reference
                       24 Threads, 137329 MiB Core
         ---------------------------------------------------------

  ==> Geometry <==

    Molecular point group: c1
    Full point group: C1

    Geometry (in Angstrom), charge = 0, multiplicity = 1:

       Center              X                  Y                   Z               Mass       
    ------------   -----------------  -----------------  -----------------  -----------------
         B           -0.000362763027    -0.000015096788     0.000017537099    11.009305360000
         H           -0.398292928437    -1.029821059494     0.413974732328     1.007825032230
         H           -0.169805246762     0.990471924508     0.617599451823     1.007825032230
         H            0.572060935412     0.039514049670    -1.031765756371     1.007825032230

  Running in c1 symmetry.

  Rotational constants: A =      8.01261  B =      8.01223  C =      4.00622 [cm^-1]
  Rotational constants: A = 240212.11345  B = 240200.54900  C = 120103.43574 [MHz]
  Nuclear repulsion =    7.505376816307760

  Charge       = 0
  Multiplicity = 1
  Electrons    = 8
  Nalpha       = 4
  Nbeta        = 4

  ==> Algorithm <==

  SCF Algorithm Type is DF.
  DIIS enabled.
  MOM disabled.
  Fractional occupation disabled.
  Guess Type is SAD.
  Energy threshold   = 1.00e-08
  Density threshold  = 1.00e-08
  Integral threshold = 0.00e+00

  ==> Primary Basis <==

  Basis Set: AUG-CC-PV(Q+D)Z
    Blend: AUG-CC-PV(Q+D)Z
    Number of shells: 62
    Number of basis function: 218
    Number of Cartesian functions: 270
    Spherical Harmonics?: true
    Max angular momentum: 4

  ==> DFT Potential <==

   => Composite Functional: WB97M-V <= 

    wB97M-V Hyb-GGA Exchange-Correlation Functional

    N. Mardirossian and M. Head-Gordon, J. Chem. Phys. 144, 214110 (2016)

    Deriv               =              1
    GGA                 =           TRUE
    Meta                =           TRUE

    Exchange Hybrid     =           TRUE
    MP2 Hybrid          =          FALSE

   => Exchange-Correlation Functionals <=

    1.0000   wB97M-V exchange-correlation functional

   => Exact (HF) Exchange <=

    0.8500            HF,LR [omega = 0.3000]
    0.1500               HF 

   => VV10 Non-Local Parameters <=

    VV10 B              =     6.0000E+00
    VV10 C              =     1.0000E-02

   => Molecular Quadrature <=

    Radial Scheme          =       TREUTLER
    Pruning Scheme         =           FLAT
    Nuclear Scheme         =       TREUTLER

    BS radius alpha        =              1
    Pruning alpha          =              1
    Radial Points          =             75
    Spherical Points       =            302
    Total Points           =          90600
    Total Blocks           =            741
    Max Points             =            256
    Max Functions          =            218

   => Loading Basis Set <=

    Name: (AUG-CC-PV(Q+D)Z AUX)
    Role: JKFIT
    Keyword: DF_BASIS_SCF
    atoms 1   entry B          line   108 file /work/zw18965/.conda/envs/p4env/share/psi4/basis/aug-cc-pvqz-jkfit.gbs 
    atoms 2-4 entry H          line    70 file /work/zw18965/.conda/envs/p4env/share/psi4/basis/aug-cc-pvqz-jkfit.gbs 

  ==> Pre-Iterations <==

   -------------------------------------------------------
    Irrep   Nso     Nmo     Nalpha   Nbeta   Ndocc  Nsocc
   -------------------------------------------------------
     A        218     218       0       0       0       0
   -------------------------------------------------------
    Total     218     218       4       4       4       0
   -------------------------------------------------------

  ==> Integral Setup <==

  ==> DiskDFJK: Density-Fitted J/K Matrices <==

    J tasked:                  Yes
    K tasked:                  Yes
    wK tasked:                 Yes
    Omega:               3.000E-01
    OpenMP threads:             24
    Integrals threads:          24
    Memory [MiB]:           101636
    Algorithm:                Core
    Integral Cache:           NONE
    Schwarz Cutoff:          1E-12
    Fitting Condition:       1E-10

   => Auxiliary Basis Set <=

  Basis Set: (AUG-CC-PV(Q+D)Z AUX)
    Blend: AUG-CC-PVQZ-JKFIT
    Number of shells: 88
    Number of basis function: 370
    Number of Cartesian functions: 501
    Spherical Harmonics?: true
    Max angular momentum: 5

  Cached 100.0% of DFT collocation blocks in 1.328 [GiB].

  Minimum eigenvalue in the overlap matrix is 2.6448479058E-05.
  Using Symmetric Orthogonalization.

  SCF Guess: Superposition of Atomic Densities via on-the-fly atomic UHF.

  ==> Iterations <==

                           Total Energy        Delta E     RMS |[F,P]|

   @DF-RKS iter SAD:   -25.91086944080608   -2.59109e+01   0.00000e+00 
   @DF-RKS iter   1:   -26.56336914203368   -6.52500e-01   8.74660e-04 DIIS
   @DF-RKS iter   2:   -26.58323141834172   -1.98623e-02   2.89878e-04 DIIS
   @DF-RKS iter   3:   -26.58553498448490   -2.30357e-03   2.57097e-05 DIIS
   @DF-RKS iter   4:   -26.58557408486777   -3.91004e-05   4.85150e-06 DIIS
   @DF-RKS iter   5:   -26.58557613054280   -2.04568e-06   6.81160e-07 DIIS
   @DF-RKS iter   6:   -26.58557616606394   -3.55211e-08   6.38828e-08 DIIS
   @DF-RKS iter   7:   -26.58557616641505   -3.51115e-10   8.67300e-09 DIIS
  Energy and wave function converged.


  ==> Post-Iterations <==

    Orbital Energies [Eh]
    ---------------------

    Doubly Occupied:                                                      

       1A     -6.914502     2A     -0.628632     3A     -0.454151  
       4A     -0.453766  

    Virtual:                                                              

       5A     -0.006940     6A      0.017271     7A      0.030789  
       8A      0.030805     9A      0.053403    10A      0.067402  
      11A      0.067439    12A      0.087617    13A      0.105800  
      14A      0.105826    15A      0.115192    16A      0.120604  
      17A      0.120644    18A      0.192621    19A      0.192688  
      20A      0.211810    21A      0.222396    22A      0.232294  
      23A      0.248402    24A      0.248449    25A      0.250278  
      26A      0.259278    27A      0.259342    28A      0.282563  
      29A      0.285873    30A      0.285883    31A      0.350328  
      32A      0.389922    33A      0.389970    34A      0.425648  
      35A      0.425886    36A      0.459433    37A      0.482156  
      38A      0.482207    39A      0.523330    40A      0.523372  
      41A      0.524352    42A      0.549467    43A      0.549506  
      44A      0.562517    45A      0.569264    46A      0.659791  
      47A      0.678679    48A      0.705626    49A      0.705703  
      50A      0.716623    51A      0.742500    52A      0.742906  
      53A      0.747641    54A      0.747715    55A      0.794727  
      56A      0.817842    57A      0.818056    58A      0.856139  
      59A      0.856152    60A      0.864637    61A      0.864892  
      62A      0.871753    63A      0.876289    64A      0.930934  
      65A      1.055260    66A      1.055403    67A      1.094238  
      68A      1.094334    69A      1.116990    70A      1.167351  
      71A      1.190299    72A      1.190882    73A      1.196049  
      74A      1.409095    75A      1.409137    76A      1.416254  
      77A      1.420387    78A      1.420626    79A      1.444175  
      80A      1.463828    81A      1.463958    82A      1.497453  
      83A      1.513754    84A      1.513825    85A      1.570390  
      86A      1.570766    87A      1.579650    88A      1.697369  
      89A      1.697792    90A      1.698886    91A      1.699015  
      92A      1.701599    93A      1.731559    94A      1.791581  
      95A      1.814571    96A      1.814923    97A      1.862546  
      98A      1.896538    99A      1.899211   100A      1.899406  
     101A      1.925644   102A      2.011848   103A      2.011920  
     104A      2.014292   105A      2.014366   106A      2.074196  
     107A      2.074230   108A      2.106778   109A      2.113541  
     110A      2.113584   111A      2.115777   112A      2.133733  
     113A      2.134017   114A      2.211903   115A      2.213064  
     116A      2.240295   117A      2.262197   118A      2.262580  
     119A      2.589204   120A      2.711724   121A      2.713913  
     122A      2.844150   123A      2.951130   124A      2.951635  
     125A      3.020163   126A      3.020308   127A      3.076641  
     128A      3.076853   129A      3.148441   130A      3.159186  
     131A      3.159447   132A      3.162927   133A      3.183386  
     134A      3.236569   135A      3.236930   136A      3.320403  
     137A      3.382196   138A      3.382975   139A      3.450376  
     140A      3.451541   141A      3.566812   142A      3.667352  
     143A      3.811053   144A      3.957951   145A      3.958171  
     146A      3.977049   147A      3.977106   148A      4.006037  
     149A      4.073925   150A      4.120473   151A      4.120744  
     152A      4.131931   153A      4.193054   154A      4.193469  
     155A      4.343330   156A      4.343359   157A      4.554330  
     158A      4.630637   159A      4.907763   160A      4.908655  
     161A      5.054667   162A      5.055589   163A      5.080916  
     164A      5.165926   165A      5.166374   166A      5.185062  
     167A      5.239993   168A      6.017561   169A      6.018713  
     170A      6.389346   171A      6.443060   172A      6.443468  
     173A      6.587802   174A      6.607629   175A      6.607947  
     176A      6.831265   177A      6.831340   178A      7.160886  
     179A      7.193813   180A      7.195822   181A      7.419550  
     182A      7.420210   183A      7.431950   184A      7.433170  
     185A      7.511405   186A      7.631381   187A      7.805861  
     188A      7.807003   189A      7.860962   190A      7.863753  
     191A      8.049569   192A      8.210377   193A      8.212406  
     194A      8.530298   195A      8.530725   196A      8.648973  
     197A      8.650625   198A      8.703520   199A      8.705822  
     200A      8.707655   201A      8.765639   202A      8.949726  
     203A      8.963975   204A      8.986743   205A      9.022251  
     206A      9.023498   207A      9.134905   208A      9.236546  
     209A      9.238591   210A      9.460491   211A      9.596463  
     212A      9.596782   213A      9.989386   214A      9.990054  
     215A     10.118021   216A     10.999593   217A     11.006874  
     218A     19.050698  

    Final Occupation by Irrep:
              A 
    DOCC [     4 ]

  @DF-RKS Final Energy:   -26.58557616641505

   => Energetics <=

    Nuclear Repulsion Energy =              7.5053768163077601
    One-Electron Energy =                 -49.2173119182204388
    Two-Electron Energy =                  18.4638070861792798
    DFT Exchange-Correlation Energy =      -3.3712913141550542
    Empirical Dispersion Energy =           0.0000000000000000
    VV10 Nonlocal Energy =                  0.0338431634734008
    Total Energy =                        -26.5855761664150556

Computation Completed


Properties will be evaluated at   0.000000,   0.000000,   0.000000 [a0]

Properties computed using the SCF density matrix

  Nuclear Dipole Moment: [e a0]
     X:     0.0041      Y:     0.0002      Z:    -0.0002

  Electronic Dipole Moment: [e a0]
     X:    -0.0056      Y:    -0.0003      Z:     0.0004

  Dipole Moment: [e a0]
     X:    -0.0015      Y:    -0.0001      Z:     0.0002     Total:     0.0016

  Dipole Moment: [D]
     X:    -0.0039      Y:    -0.0003      Z:     0.0005     Total:     0.0040


*** tstop() called on bp1-compute00143.data.bp.acrc.priv at Mon Apr 19 15:49:59 2021
Module time:
	user time   =     114.06 seconds =       1.90 minutes
	system time =       4.35 seconds =       0.07 minutes
	total time  =          6 seconds =       0.10 minutes
Total time:
	user time   =     219.99 seconds =       3.67 minutes
	system time =      10.61 seconds =       0.18 minutes
	total time  =         11 seconds =       0.18 minutes

  //>>>>>>>>>>>>>>>>>>>>>>>>>>>>>>>>>>>//
  //    Loading displacement 3 of 13   //
  //<<<<<<<<<<<<<<<<<<<<<<<<<<<<<<<<<<<//

*** tstart() called on bp1-compute00143.data.bp.acrc.priv
*** at Mon Apr 19 15:49:59 2021

   => Loading Basis Set <=

    Name: AUG-CC-PV(Q+D)Z
    Role: ORBITAL
    Keyword: BASIS
    atoms 1   entry B          line   259 file /work/zw18965/.conda/envs/p4env/share/psi4/basis/aug-cc-pv_qpd_z.gbs 
    atoms 2-4 entry H          line    56 file /work/zw18965/.conda/envs/p4env/share/psi4/basis/aug-cc-pv_qpd_z.gbs 


         ---------------------------------------------------------
                                   SCF
               by Justin Turney, Rob Parrish, Andy Simmonett
                          and Daniel G. A. Smith
                              RKS Reference
                       24 Threads, 137329 MiB Core
         ---------------------------------------------------------

  ==> Geometry <==

    Molecular point group: c1
    Full point group: C1

    Geometry (in Angstrom), charge = 0, multiplicity = 1:

       Center              X                  Y                   Z               Mass       
    ------------   -----------------  -----------------  -----------------  -----------------
         B            0.000377528031    -0.000015096790     0.000017537101    11.009305360000
         H           -0.400988924369    -1.029820973746     0.413974566910     1.007825032230
         H           -0.172500799472     0.990471945414     0.617599432405     1.007825032230
         H            0.569365673293     0.039513943044    -1.031765571555     1.007825032230

  Running in c1 symmetry.

  Rotational constants: A =      8.01261  B =      8.01223  C =      4.00622 [cm^-1]
  Rotational constants: A = 240212.00447  B = 240200.46725  C = 120103.45154 [MHz]
  Nuclear repulsion =    7.505375539775251

  Charge       = 0
  Multiplicity = 1
  Electrons    = 8
  Nalpha       = 4
  Nbeta        = 4

  ==> Algorithm <==

  SCF Algorithm Type is DF.
  DIIS enabled.
  MOM disabled.
  Fractional occupation disabled.
  Guess Type is SAD.
  Energy threshold   = 1.00e-08
  Density threshold  = 1.00e-08
  Integral threshold = 0.00e+00

  ==> Primary Basis <==

  Basis Set: AUG-CC-PV(Q+D)Z
    Blend: AUG-CC-PV(Q+D)Z
    Number of shells: 62
    Number of basis function: 218
    Number of Cartesian functions: 270
    Spherical Harmonics?: true
    Max angular momentum: 4

  ==> DFT Potential <==

   => Composite Functional: WB97M-V <= 

    wB97M-V Hyb-GGA Exchange-Correlation Functional

    N. Mardirossian and M. Head-Gordon, J. Chem. Phys. 144, 214110 (2016)

    Deriv               =              1
    GGA                 =           TRUE
    Meta                =           TRUE

    Exchange Hybrid     =           TRUE
    MP2 Hybrid          =          FALSE

   => Exchange-Correlation Functionals <=

    1.0000   wB97M-V exchange-correlation functional

   => Exact (HF) Exchange <=

    0.8500            HF,LR [omega = 0.3000]
    0.1500               HF 

   => VV10 Non-Local Parameters <=

    VV10 B              =     6.0000E+00
    VV10 C              =     1.0000E-02

   => Molecular Quadrature <=

    Radial Scheme          =       TREUTLER
    Pruning Scheme         =           FLAT
    Nuclear Scheme         =       TREUTLER

    BS radius alpha        =              1
    Pruning alpha          =              1
    Radial Points          =             75
    Spherical Points       =            302
    Total Points           =          90600
    Total Blocks           =            743
    Max Points             =            254
    Max Functions          =            218

   => Loading Basis Set <=

    Name: (AUG-CC-PV(Q+D)Z AUX)
    Role: JKFIT
    Keyword: DF_BASIS_SCF
    atoms 1   entry B          line   108 file /work/zw18965/.conda/envs/p4env/share/psi4/basis/aug-cc-pvqz-jkfit.gbs 
    atoms 2-4 entry H          line    70 file /work/zw18965/.conda/envs/p4env/share/psi4/basis/aug-cc-pvqz-jkfit.gbs 

  ==> Pre-Iterations <==

   -------------------------------------------------------
    Irrep   Nso     Nmo     Nalpha   Nbeta   Ndocc  Nsocc
   -------------------------------------------------------
     A        218     218       0       0       0       0
   -------------------------------------------------------
    Total     218     218       4       4       4       0
   -------------------------------------------------------

  ==> Integral Setup <==

  ==> DiskDFJK: Density-Fitted J/K Matrices <==

    J tasked:                  Yes
    K tasked:                  Yes
    wK tasked:                 Yes
    Omega:               3.000E-01
    OpenMP threads:             24
    Integrals threads:          24
    Memory [MiB]:           101636
    Algorithm:                Core
    Integral Cache:           NONE
    Schwarz Cutoff:          1E-12
    Fitting Condition:       1E-10

   => Auxiliary Basis Set <=

  Basis Set: (AUG-CC-PV(Q+D)Z AUX)
    Blend: AUG-CC-PVQZ-JKFIT
    Number of shells: 88
    Number of basis function: 370
    Number of Cartesian functions: 501
    Spherical Harmonics?: true
    Max angular momentum: 5

  Cached 100.0% of DFT collocation blocks in 1.329 [GiB].

  Minimum eigenvalue in the overlap matrix is 2.6448486021E-05.
  Using Symmetric Orthogonalization.

  SCF Guess: Superposition of Atomic Densities via on-the-fly atomic UHF.

  ==> Iterations <==

                           Total Energy        Delta E     RMS |[F,P]|

   @DF-RKS iter SAD:   -25.91086953110358   -2.59109e+01   0.00000e+00 
   @DF-RKS iter   1:   -26.56336920762908   -6.52500e-01   8.74659e-04 DIIS
   @DF-RKS iter   2:   -26.58323147415377   -1.98623e-02   2.89878e-04 DIIS
   @DF-RKS iter   3:   -26.58553503398787   -2.30356e-03   2.57098e-05 DIIS
   @DF-RKS iter   4:   -26.58557413447362   -3.91005e-05   4.85152e-06 DIIS
   @DF-RKS iter   5:   -26.58557618016244   -2.04569e-06   6.81181e-07 DIIS
   @DF-RKS iter   6:   -26.58557621568522   -3.55228e-08   6.38940e-08 DIIS
   @DF-RKS iter   7:   -26.58557621603642   -3.51193e-10   8.69036e-09 DIIS
  Energy and wave function converged.


  ==> Post-Iterations <==

    Orbital Energies [Eh]
    ---------------------

    Doubly Occupied:                                                      

       1A     -6.914502     2A     -0.628632     3A     -0.454122  
       4A     -0.453795  

    Virtual:                                                              

       5A     -0.006940     6A      0.017271     7A      0.030791  
       8A      0.030803     9A      0.053403    10A      0.067404  
      11A      0.067436    12A      0.087617    13A      0.105803  
      14A      0.105823    15A      0.115192    16A      0.120608  
      17A      0.120640    18A      0.192625    19A      0.192684  
      20A      0.211810    21A      0.222396    22A      0.232294  
      23A      0.248401    24A      0.248449    25A      0.250278  
      26A      0.259283    27A      0.259337    28A      0.282563  
      29A      0.285868    30A      0.285887    31A      0.350328  
      32A      0.389927    33A      0.389964    34A      0.425664  
      35A      0.425871    36A      0.459433    37A      0.482155  
      38A      0.482208    39A      0.523335    40A      0.523368  
      41A      0.524352    42A      0.549469    43A      0.549504  
      44A      0.562517    45A      0.569263    46A      0.659791  
      47A      0.678679    48A      0.705630    49A      0.705698  
      50A      0.716623    51A      0.742527    52A      0.742870  
      53A      0.747651    54A      0.747712    55A      0.794727  
      56A      0.817853    57A      0.818042    58A      0.856142  
      59A      0.856153    60A      0.864659    61A      0.864871  
      62A      0.871753    63A      0.876288    64A      0.930935  
      65A      1.055269    66A      1.055395    67A      1.094244  
      68A      1.094326    69A      1.116989    70A      1.167350  
      71A      1.190335    72A      1.190847    73A      1.196050  
      74A      1.409084    75A      1.409144    76A      1.416254  
      77A      1.420412    78A      1.420605    79A      1.444175  
      80A      1.463827    81A      1.463959    82A      1.497452  
      83A      1.513755    84A      1.513825    85A      1.570417  
      86A      1.570739    87A      1.579649    88A      1.697399  
      89A      1.697760    90A      1.698901    91A      1.699002  
      92A      1.701596    93A      1.731562    94A      1.791581  
      95A      1.814603    96A      1.814889    97A      1.862546  
      98A      1.896536    99A      1.899220   100A      1.899399  
     101A      1.925642   102A      2.011861   103A      2.011907  
     104A      2.014288   105A      2.014371   106A      2.074184  
     107A      2.074242   108A      2.106778   109A      2.113540  
     110A      2.113589   111A      2.115771   112A      2.133765  
     113A      2.133985   114A      2.211900   115A      2.213064  
     116A      2.240298   117A      2.262208   118A      2.262568  
     119A      2.589210   120A      2.711864   121A      2.713765  
     122A      2.844150   123A      2.951160   124A      2.951607  
     125A      3.020162   126A      3.020312   127A      3.076639  
     128A      3.076855   129A      3.148438   130A      3.159249  
     131A      3.159383   132A      3.162927   133A      3.183385  
     134A      3.236579   135A      3.236924   136A      3.320403  
     137A      3.382268   138A      3.382904   139A      3.450443  
     140A      3.451474   141A      3.566811   142A      3.667352  
     143A      3.811052   144A      3.957967   145A      3.958142  
     146A      3.977066   147A      3.977103   148A      4.006037  
     149A      4.073925   150A      4.120480   151A      4.120739  
     152A      4.131929   153A      4.193086   154A      4.193438  
     155A      4.343334   156A      4.343354   157A      4.554328  
     158A      4.630638   159A      4.907777   160A      4.908638  
     161A      5.054713   162A      5.055543   163A      5.080915  
     164A      5.165990   165A      5.166310   166A      5.185058  
     167A      5.239994   168A      6.017646   169A      6.018623  
     170A      6.389347   171A      6.443090   172A      6.443438  
     173A      6.587801   174A      6.607605   175A      6.607973  
     176A      6.831217   177A      6.831383   178A      7.160891  
     179A      7.193930   180A      7.195701   181A      7.419548  
     182A      7.420201   183A      7.432048   184A      7.433088  
     185A      7.511402   186A      7.631379   187A      7.805949  
     188A      7.806915   189A      7.860920   190A      7.863786  
     191A      8.049577   192A      8.210542   193A      8.212235  
     194A      8.530267   195A      8.530762   196A      8.649047  
     197A      8.650554   198A      8.703505   199A      8.705972  
     200A      8.707511   201A      8.765632   202A      8.949703  
     203A      8.963991   204A      8.986742   205A      9.022344  
     206A      9.023406   207A      9.134909   208A      9.236795  
     209A      9.238340   210A      9.460501   211A      9.596560  
     212A      9.596678   213A      9.989429   214A      9.989992  
     215A     10.118026   216A     11.000022   217A     11.006438  
     218A     19.050701  

    Final Occupation by Irrep:
              A 
    DOCC [     4 ]

  @DF-RKS Final Energy:   -26.58557621603642

   => Energetics <=

    Nuclear Repulsion Energy =              7.5053755397752511
    One-Electron Energy =                 -49.2173098432865430
    Two-Electron Energy =                  18.4638060764594094
    DFT Exchange-Correlation Energy =      -3.3712911461577661
    Empirical Dispersion Energy =           0.0000000000000000
    VV10 Nonlocal Energy =                  0.0338431571732346
    Total Energy =                        -26.5855762160364151

Computation Completed


Properties will be evaluated at   0.000000,   0.000000,   0.000000 [a0]

Properties computed using the SCF density matrix

  Nuclear Dipole Moment: [e a0]
     X:    -0.0042      Y:     0.0002      Z:    -0.0002

  Electronic Dipole Moment: [e a0]
     X:     0.0058      Y:    -0.0002      Z:     0.0001

  Dipole Moment: [e a0]
     X:     0.0016      Y:    -0.0000      Z:    -0.0001     Total:     0.0016

  Dipole Moment: [D]
     X:     0.0041      Y:    -0.0001      Z:    -0.0001     Total:     0.0041


*** tstop() called on bp1-compute00143.data.bp.acrc.priv at Mon Apr 19 15:50:04 2021
Module time:
	user time   =     107.23 seconds =       1.79 minutes
	system time =       2.98 seconds =       0.05 minutes
	total time  =          5 seconds =       0.08 minutes
Total time:
	user time   =     327.37 seconds =       5.46 minutes
	system time =      13.59 seconds =       0.23 minutes
	total time  =         16 seconds =       0.27 minutes

  //>>>>>>>>>>>>>>>>>>>>>>>>>>>>>>>>>>>//
  //    Loading displacement 4 of 13   //
  //<<<<<<<<<<<<<<<<<<<<<<<<<<<<<<<<<<<//

*** tstart() called on bp1-compute00143.data.bp.acrc.priv
*** at Mon Apr 19 15:50:04 2021

   => Loading Basis Set <=

    Name: AUG-CC-PV(Q+D)Z
    Role: ORBITAL
    Keyword: BASIS
    atoms 1   entry B          line   259 file /work/zw18965/.conda/envs/p4env/share/psi4/basis/aug-cc-pv_qpd_z.gbs 
    atoms 2-4 entry H          line    56 file /work/zw18965/.conda/envs/p4env/share/psi4/basis/aug-cc-pv_qpd_z.gbs 


         ---------------------------------------------------------
                                   SCF
               by Justin Turney, Rob Parrish, Andy Simmonett
                          and Daniel G. A. Smith
                              RKS Reference
                       24 Threads, 137329 MiB Core
         ---------------------------------------------------------

  ==> Geometry <==

    Molecular point group: c1
    Full point group: C1

    Geometry (in Angstrom), charge = 0, multiplicity = 1:

       Center              X                  Y                   Z               Mass       
    ------------   -----------------  -----------------  -----------------  -----------------
         B            0.000007382502    -0.000385242319     0.000017537102    11.009305360000
         H           -0.399640835497    -1.028473204989     0.413974761812     1.007825032230
         H           -0.171153118355     0.991819790259     0.617599329934     1.007825032230
         H            0.570713308685     0.040861734820    -1.031765663995     1.007825032230

  Running in c1 symmetry.

  Rotational constants: A =      8.01263  B =      8.01222  C =      4.00621 [cm^-1]
  Rotational constants: A = 240212.63702  B = 240200.43938  C = 120103.28372 [MHz]
  Nuclear repulsion =    7.505384021429273

  Charge       = 0
  Multiplicity = 1
  Electrons    = 8
  Nalpha       = 4
  Nbeta        = 4

  ==> Algorithm <==

  SCF Algorithm Type is DF.
  DIIS enabled.
  MOM disabled.
  Fractional occupation disabled.
  Guess Type is SAD.
  Energy threshold   = 1.00e-08
  Density threshold  = 1.00e-08
  Integral threshold = 0.00e+00

  ==> Primary Basis <==

  Basis Set: AUG-CC-PV(Q+D)Z
    Blend: AUG-CC-PV(Q+D)Z
    Number of shells: 62
    Number of basis function: 218
    Number of Cartesian functions: 270
    Spherical Harmonics?: true
    Max angular momentum: 4

  ==> DFT Potential <==

   => Composite Functional: WB97M-V <= 

    wB97M-V Hyb-GGA Exchange-Correlation Functional

    N. Mardirossian and M. Head-Gordon, J. Chem. Phys. 144, 214110 (2016)

    Deriv               =              1
    GGA                 =           TRUE
    Meta                =           TRUE

    Exchange Hybrid     =           TRUE
    MP2 Hybrid          =          FALSE

   => Exchange-Correlation Functionals <=

    1.0000   wB97M-V exchange-correlation functional

   => Exact (HF) Exchange <=

    0.8500            HF,LR [omega = 0.3000]
    0.1500               HF 

   => VV10 Non-Local Parameters <=

    VV10 B              =     6.0000E+00
    VV10 C              =     1.0000E-02

   => Molecular Quadrature <=

    Radial Scheme          =       TREUTLER
    Pruning Scheme         =           FLAT
    Nuclear Scheme         =       TREUTLER

    BS radius alpha        =              1
    Pruning alpha          =              1
    Radial Points          =             75
    Spherical Points       =            302
    Total Points           =          90600
    Total Blocks           =            739
    Max Points             =            256
    Max Functions          =            218

   => Loading Basis Set <=

    Name: (AUG-CC-PV(Q+D)Z AUX)
    Role: JKFIT
    Keyword: DF_BASIS_SCF
    atoms 1   entry B          line   108 file /work/zw18965/.conda/envs/p4env/share/psi4/basis/aug-cc-pvqz-jkfit.gbs 
    atoms 2-4 entry H          line    70 file /work/zw18965/.conda/envs/p4env/share/psi4/basis/aug-cc-pvqz-jkfit.gbs 

  ==> Pre-Iterations <==

   -------------------------------------------------------
    Irrep   Nso     Nmo     Nalpha   Nbeta   Ndocc  Nsocc
   -------------------------------------------------------
     A        218     218       0       0       0       0
   -------------------------------------------------------
    Total     218     218       4       4       4       0
   -------------------------------------------------------

  ==> Integral Setup <==

  ==> DiskDFJK: Density-Fitted J/K Matrices <==

    J tasked:                  Yes
    K tasked:                  Yes
    wK tasked:                 Yes
    Omega:               3.000E-01
    OpenMP threads:             24
    Integrals threads:          24
    Memory [MiB]:           101636
    Algorithm:                Core
    Integral Cache:           NONE
    Schwarz Cutoff:          1E-12
    Fitting Condition:       1E-10

   => Auxiliary Basis Set <=

  Basis Set: (AUG-CC-PV(Q+D)Z AUX)
    Blend: AUG-CC-PVQZ-JKFIT
    Number of shells: 88
    Number of basis function: 370
    Number of Cartesian functions: 501
    Spherical Harmonics?: true
    Max angular momentum: 5

  Cached 100.0% of DFT collocation blocks in 1.329 [GiB].

  Minimum eigenvalue in the overlap matrix is 2.6448387775E-05.
  Using Symmetric Orthogonalization.

  SCF Guess: Superposition of Atomic Densities via on-the-fly atomic UHF.

  ==> Iterations <==

                           Total Energy        Delta E     RMS |[F,P]|

   @DF-RKS iter SAD:   -25.91086817684201   -2.59109e+01   0.00000e+00 
   @DF-RKS iter   1:   -26.56336771394797   -6.52500e-01   8.74661e-04 DIIS
   @DF-RKS iter   2:   -26.58323006596612   -1.98624e-02   2.89879e-04 DIIS
   @DF-RKS iter   3:   -26.58553365831925   -2.30359e-03   2.57096e-05 DIIS
   @DF-RKS iter   4:   -26.58557275888040   -3.91006e-05   4.85147e-06 DIIS
   @DF-RKS iter   5:   -26.58557480453642   -2.04566e-06   6.81085e-07 DIIS
   @DF-RKS iter   6:   -26.58557484005257   -3.55161e-08   6.38392e-08 DIIS
   @DF-RKS iter   7:   -26.58557484040349   -3.50919e-10   8.60278e-09 DIIS
  Energy and wave function converged.


  ==> Post-Iterations <==

    Orbital Energies [Eh]
    ---------------------

    Doubly Occupied:                                                      

       1A     -6.914502     2A     -0.628633     3A     -0.454325  
       4A     -0.453593  

    Virtual:                                                              

       5A     -0.006939     6A      0.017271     7A      0.030783  
       8A      0.030811     9A      0.053403    10A      0.067385  
      11A      0.067455    12A      0.087616    13A      0.105789  
      14A      0.105838    15A      0.115192    16A      0.120587  
      17A      0.120660    18A      0.192590    19A      0.192720  
      20A      0.211812    21A      0.222396    22A      0.232293  
      23A      0.248377    24A      0.248474    25A      0.250279  
      26A      0.259249    27A      0.259371    28A      0.282560  
      29A      0.285862    30A      0.285894    31A      0.350327  
      32A      0.389902    33A      0.389992    34A      0.425537  
      35A      0.425994    36A      0.459433    37A      0.482126  
      38A      0.482237    39A      0.523311    40A      0.523391  
      41A      0.524353    42A      0.549450    43A      0.549523  
      44A      0.562519    45A      0.569265    46A      0.659792  
      47A      0.678678    48A      0.705587    49A      0.705740  
      50A      0.716623    51A      0.742333    52A      0.743108  
      53A      0.747589    54A      0.747734    55A      0.794723  
      56A      0.817747    57A      0.818163    58A      0.856122  
      59A      0.856152    60A      0.864521    61A      0.865007  
      62A      0.871752    63A      0.876296    64A      0.930932  
      65A      1.055194    66A      1.055469    67A      1.094197  
      68A      1.094380    69A      1.116991    70A      1.167356  
      71A      1.190024    72A      1.191151    73A      1.196042  
      74A      1.409069    75A      1.409177    76A      1.416254  
      77A      1.420271    78A      1.420723    79A      1.444178  
      80A      1.463759    81A      1.464029    82A      1.497453  
      83A      1.513719    84A      1.513859    85A      1.570217  
      86A      1.570927    87A      1.579660    88A      1.697181  
      89A      1.697989    90A      1.698823    91A      1.699062  
      92A      1.701616    93A      1.731548    94A      1.791580  
      95A      1.814427    96A      1.815082    97A      1.862545  
      98A      1.896544    99A      1.899119   100A      1.899488  
     101A      1.925649   102A      2.011817   103A      2.011952  
     104A      2.014262   105A      2.014395   106A      2.074161  
     107A      2.074266   108A      2.106776   109A      2.113478  
     110A      2.113606   111A      2.115830   112A      2.133622  
     113A      2.134123   114A      2.211915   115A      2.213065  
     116A      2.240278   117A      2.262007   118A      2.262776  
     119A      2.589172   120A      2.710720   121A      2.714951  
     122A      2.844149   123A      2.950893   124A      2.951862  
     125A      3.020084   126A      3.020377   127A      3.076526  
     128A      3.076965   129A      3.148459   130A      3.159120  
     131A      3.159526   132A      3.162927   133A      3.183373  
     134A      3.236382   135A      3.237095   136A      3.320403  
     137A      3.381851   138A      3.383316   139A      3.449828  
     140A      3.452087   141A      3.566819   142A      3.667353  
     143A      3.811057   144A      3.957884   145A      3.958289  
     146A      3.977008   147A      3.977087   148A      4.006036  
     149A      4.073931   150A      4.120345   151A      4.120862  
     152A      4.131944   153A      4.192865   154A      4.193660  
     155A      4.343335   156A      4.343366   157A      4.554338  
     158A      4.630624   159A      4.907336   160A      4.909106  
     161A      5.054228   162A      5.055994   163A      5.080923  
     164A      5.165746   165A      5.166551   166A      5.185114  
     167A      5.239986   168A      6.017043   169A      6.019243  
     170A      6.389356   171A      6.442872   172A      6.443628  
     173A      6.587795   174A      6.607437   175A      6.608161  
     176A      6.831180   177A      6.831426   178A      7.160820  
     179A      7.192898   180A      7.196817   181A      7.419220  
     182A      7.420568   183A      7.431365   184A      7.433683  
     185A      7.511425   186A      7.631398   187A      7.805327  
     188A      7.807531   189A      7.861144   190A      7.863599  
     191A      8.049529   192A      8.209502   193A      8.213309  
     194A      8.530003   195A      8.530983   196A      8.648127  
     197A      8.651359   198A      8.703692   199A      8.704994  
     200A      8.708438   201A      8.765661   202A      8.949816  
     203A      8.963920   204A      8.986720   205A      9.021667  
     206A      9.024080   207A      9.134882   208A      9.235735  
     209A      9.239412   210A      9.460424   211A      9.596411  
     212A      9.596850   213A      9.989129   214A      9.990440  
     215A     10.118005   216A     10.996221   217A     11.010282  
     218A     19.050684  

    Final Occupation by Irrep:
              A 
    DOCC [     4 ]

  @DF-RKS Final Energy:   -26.58557484040349

   => Energetics <=

    Nuclear Repulsion Energy =              7.5053840214292729
    One-Electron Energy =                 -49.2173218000991568
    Two-Electron Energy =                  18.4638118866885641
    DFT Exchange-Correlation Energy =      -3.3712921034520029
    Empirical Dispersion Energy =           0.0000000000000000
    VV10 Nonlocal Energy =                  0.0338431550298373
    Total Energy =                        -26.5855748404034848

Computation Completed


Properties will be evaluated at   0.000000,   0.000000,   0.000000 [a0]

Properties computed using the SCF density matrix

  Nuclear Dipole Moment: [e a0]
     X:    -0.0001      Y:     0.0043      Z:    -0.0002

  Electronic Dipole Moment: [e a0]
     X:     0.0001      Y:    -0.0062      Z:     0.0002

  Dipole Moment: [e a0]
     X:    -0.0000      Y:    -0.0019      Z:     0.0001     Total:     0.0019

  Dipole Moment: [D]
     X:    -0.0000      Y:    -0.0047      Z:     0.0001     Total:     0.0047


*** tstop() called on bp1-compute00143.data.bp.acrc.priv at Mon Apr 19 15:50:08 2021
Module time:
	user time   =     105.73 seconds =       1.76 minutes
	system time =       3.03 seconds =       0.05 minutes
	total time  =          4 seconds =       0.07 minutes
Total time:
	user time   =     433.23 seconds =       7.22 minutes
	system time =      16.62 seconds =       0.28 minutes
	total time  =         20 seconds =       0.33 minutes

  //>>>>>>>>>>>>>>>>>>>>>>>>>>>>>>>>>>>//
  //    Loading displacement 5 of 13   //
  //<<<<<<<<<<<<<<<<<<<<<<<<<<<<<<<<<<<//

*** tstart() called on bp1-compute00143.data.bp.acrc.priv
*** at Mon Apr 19 15:50:08 2021

   => Loading Basis Set <=

    Name: AUG-CC-PV(Q+D)Z
    Role: ORBITAL
    Keyword: BASIS
    atoms 1   entry B          line   259 file /work/zw18965/.conda/envs/p4env/share/psi4/basis/aug-cc-pv_qpd_z.gbs 
    atoms 2-4 entry H          line    56 file /work/zw18965/.conda/envs/p4env/share/psi4/basis/aug-cc-pv_qpd_z.gbs 


         ---------------------------------------------------------
                                   SCF
               by Justin Turney, Rob Parrish, Andy Simmonett
                          and Daniel G. A. Smith
                              RKS Reference
                       24 Threads, 137329 MiB Core
         ---------------------------------------------------------

  ==> Geometry <==

    Molecular point group: c1
    Full point group: C1

    Geometry (in Angstrom), charge = 0, multiplicity = 1:

       Center              X                  Y                   Z               Mass       
    ------------   -----------------  -----------------  -----------------  -----------------
         B            0.000007382502     0.000355048741     0.000017537098    11.009305360000
         H           -0.399641017309    -1.031168828251     0.413974537426     1.007825032230
         H           -0.171152927879     0.989124079663     0.617599554294     1.007825032230
         H            0.570713300021     0.038166257894    -1.031765663931     1.007825032230

  Running in c1 symmetry.

  Rotational constants: A =      8.01263  B =      8.01223  C =      4.00622 [cm^-1]
  Rotational constants: A = 240212.63859  B = 240200.58955  C = 120103.31098 [MHz]
  Nuclear repulsion =    7.505384006987323

  Charge       = 0
  Multiplicity = 1
  Electrons    = 8
  Nalpha       = 4
  Nbeta        = 4

  ==> Algorithm <==

  SCF Algorithm Type is DF.
  DIIS enabled.
  MOM disabled.
  Fractional occupation disabled.
  Guess Type is SAD.
  Energy threshold   = 1.00e-08
  Density threshold  = 1.00e-08
  Integral threshold = 0.00e+00

  ==> Primary Basis <==

  Basis Set: AUG-CC-PV(Q+D)Z
    Blend: AUG-CC-PV(Q+D)Z
    Number of shells: 62
    Number of basis function: 218
    Number of Cartesian functions: 270
    Spherical Harmonics?: true
    Max angular momentum: 4

  ==> DFT Potential <==

   => Composite Functional: WB97M-V <= 

    wB97M-V Hyb-GGA Exchange-Correlation Functional

    N. Mardirossian and M. Head-Gordon, J. Chem. Phys. 144, 214110 (2016)

    Deriv               =              1
    GGA                 =           TRUE
    Meta                =           TRUE

    Exchange Hybrid     =           TRUE
    MP2 Hybrid          =          FALSE

   => Exchange-Correlation Functionals <=

    1.0000   wB97M-V exchange-correlation functional

   => Exact (HF) Exchange <=

    0.8500            HF,LR [omega = 0.3000]
    0.1500               HF 

   => VV10 Non-Local Parameters <=

    VV10 B              =     6.0000E+00
    VV10 C              =     1.0000E-02

   => Molecular Quadrature <=

    Radial Scheme          =       TREUTLER
    Pruning Scheme         =           FLAT
    Nuclear Scheme         =       TREUTLER

    BS radius alpha        =              1
    Pruning alpha          =              1
    Radial Points          =             75
    Spherical Points       =            302
    Total Points           =          90600
    Total Blocks           =            737
    Max Points             =            254
    Max Functions          =            218

   => Loading Basis Set <=

    Name: (AUG-CC-PV(Q+D)Z AUX)
    Role: JKFIT
    Keyword: DF_BASIS_SCF
    atoms 1   entry B          line   108 file /work/zw18965/.conda/envs/p4env/share/psi4/basis/aug-cc-pvqz-jkfit.gbs 
    atoms 2-4 entry H          line    70 file /work/zw18965/.conda/envs/p4env/share/psi4/basis/aug-cc-pvqz-jkfit.gbs 

  ==> Pre-Iterations <==

   -------------------------------------------------------
    Irrep   Nso     Nmo     Nalpha   Nbeta   Ndocc  Nsocc
   -------------------------------------------------------
     A        218     218       0       0       0       0
   -------------------------------------------------------
    Total     218     218       4       4       4       0
   -------------------------------------------------------

  ==> Integral Setup <==

  ==> DiskDFJK: Density-Fitted J/K Matrices <==

    J tasked:                  Yes
    K tasked:                  Yes
    wK tasked:                 Yes
    Omega:               3.000E-01
    OpenMP threads:             24
    Integrals threads:          24
    Memory [MiB]:           101636
    Algorithm:                Core
    Integral Cache:           NONE
    Schwarz Cutoff:          1E-12
    Fitting Condition:       1E-10

   => Auxiliary Basis Set <=

  Basis Set: (AUG-CC-PV(Q+D)Z AUX)
    Blend: AUG-CC-PVQZ-JKFIT
    Number of shells: 88
    Number of basis function: 370
    Number of Cartesian functions: 501
    Spherical Harmonics?: true
    Max angular momentum: 5

  Cached 100.0% of DFT collocation blocks in 1.329 [GiB].

  Minimum eigenvalue in the overlap matrix is 2.6448406342E-05.
  Using Symmetric Orthogonalization.

  SCF Guess: Superposition of Atomic Densities via on-the-fly atomic UHF.

  ==> Iterations <==

                           Total Energy        Delta E     RMS |[F,P]|

   @DF-RKS iter SAD:   -25.91086835548532   -2.59109e+01   0.00000e+00 
   @DF-RKS iter   1:   -26.56336800199991   -6.52500e-01   8.74661e-04 DIIS
   @DF-RKS iter   2:   -26.58323034504780   -1.98623e-02   2.89880e-04 DIIS
   @DF-RKS iter   3:   -26.58553393932556   -2.30359e-03   2.57096e-05 DIIS
   @DF-RKS iter   4:   -26.58557303980125   -3.91005e-05   4.85146e-06 DIIS
   @DF-RKS iter   5:   -26.58557508545123   -2.04565e-06   6.81080e-07 DIIS
   @DF-RKS iter   6:   -26.58557512096502   -3.55138e-08   6.38370e-08 DIIS
   @DF-RKS iter   7:   -26.58557512131569   -3.50667e-10   8.59980e-09 DIIS
  Energy and wave function converged.


  ==> Post-Iterations <==

    Orbital Energies [Eh]
    ---------------------

    Doubly Occupied:                                                      

       1A     -6.914502     2A     -0.628633     3A     -0.454301  
       4A     -0.453617  

    Virtual:                                                              

       5A     -0.006939     6A      0.017271     7A      0.030784  
       8A      0.030811     9A      0.053403    10A      0.067387  
      11A      0.067453    12A      0.087616    13A      0.105791  
      14A      0.105835    15A      0.115192    16A      0.120589  
      17A      0.120659    18A      0.192594    19A      0.192715  
      20A      0.211812    21A      0.222396    22A      0.232293  
      23A      0.248379    24A      0.248472    25A      0.250279  
      26A      0.259254    27A      0.259366    28A      0.282560  
      29A      0.285867    30A      0.285890    31A      0.350327  
      32A      0.389908    33A      0.389986    34A      0.425552  
      35A      0.425979    36A      0.459433    37A      0.482133  
      38A      0.482230    39A      0.523317    40A      0.523385  
      41A      0.524353    42A      0.549450    43A      0.549523  
      44A      0.562519    45A      0.569265    46A      0.659792  
      47A      0.678678    48A      0.705596    49A      0.705732  
      50A      0.716623    51A      0.742358    52A      0.743085  
      53A      0.747596    54A      0.747727    55A      0.794724  
      56A      0.817760    57A      0.818149    58A      0.856127  
      59A      0.856148    60A      0.864542    61A      0.864986  
      62A      0.871752    63A      0.876295    64A      0.930931  
      65A      1.055200    66A      1.055462    67A      1.094204  
      68A      1.094373    69A      1.116991    70A      1.167357  
      71A      1.190062    72A      1.191114    73A      1.196042  
      74A      1.409075    75A      1.409172    76A      1.416255  
      77A      1.420295    78A      1.420700    79A      1.444177  
      80A      1.463769    81A      1.464020    82A      1.497453  
      83A      1.513718    84A      1.513860    85A      1.570236  
      86A      1.570911    87A      1.579659    88A      1.697205  
      89A      1.697965    90A      1.698835    91A      1.699050  
      92A      1.701615    93A      1.731548    94A      1.791580  
      95A      1.814447    96A      1.815061    97A      1.862545  
      98A      1.896545    99A      1.899117   100A      1.899491  
     101A      1.925650   102A      2.011835   103A      2.011936  
     104A      2.014243   105A      2.014414   106A      2.074177  
     107A      2.074251   108A      2.106777   109A      2.113496  
     110A      2.113592   111A      2.115825   112A      2.133621  
     113A      2.134124   114A      2.211915   115A      2.213065  
     116A      2.240278   117A      2.262035   118A      2.262749  
     119A      2.589173   120A      2.710878   121A      2.714793  
     122A      2.844149   123A      2.950916   124A      2.951840  
     125A      3.020084   126A      3.020378   127A      3.076540  
     128A      3.076952   129A      3.148460   130A      3.159127  
     131A      3.159517   132A      3.162928   133A      3.183375  
     134A      3.236389   135A      3.237087   136A      3.320403  
     137A      3.381907   138A      3.383259   139A      3.449903  
     140A      3.452012   141A      3.566820   142A      3.667353  
     143A      3.811058   144A      3.957898   145A      3.958279  
     146A      3.976997   147A      3.977097   148A      4.006036  
     149A      4.073930   150A      4.120333   151A      4.120878  
     152A      4.131941   153A      4.192894   154A      4.193629  
     155A      4.343324   156A      4.343376   157A      4.554337  
     158A      4.630627   159A      4.907355   160A      4.909084  
     161A      5.054259   162A      5.055972   163A      5.080922  
     164A      5.165789   165A      5.166508   166A      5.185106  
     167A      5.239987   168A      6.017128   169A      6.019161  
     170A      6.389356   171A      6.442874   172A      6.443624  
     173A      6.587794   174A      6.607487   175A      6.608113  
     176A      6.831180   177A      6.831426   178A      7.160831  
     179A      7.193049   180A      7.196658   181A      7.419254  
     182A      7.420540   183A      7.431419   184A      7.433627  
     185A      7.511422   186A      7.631396   187A      7.805435  
     188A      7.807422   189A      7.861151   190A      7.863591  
     191A      8.049529   192A      8.209593   193A      8.213217  
     194A      8.530109   195A      8.530878   196A      8.648240  
     197A      8.651276   198A      8.703663   199A      8.705085  
     200A      8.708351   201A      8.765663   202A      8.949820  
     203A      8.963914   204A      8.986723   205A      9.021786  
     206A      9.023961   207A      9.134885   208A      9.235852  
     209A      9.239295   210A      9.460432   211A      9.596458  
     212A      9.596799   213A      9.989236   214A      9.990328  
     215A     10.118003   216A     10.996649   217A     11.009852  
     218A     19.050685  

    Final Occupation by Irrep:
              A 
    DOCC [     4 ]

  @DF-RKS Final Energy:   -26.58557512131569

   => Energetics <=

    Nuclear Repulsion Energy =              7.5053840069873230
    One-Electron Energy =                 -49.2173225631012556
    Two-Electron Energy =                  18.4638124360272826
    DFT Exchange-Correlation Energy =      -3.3712921633799322
    Empirical Dispersion Energy =           0.0000000000000000
    VV10 Nonlocal Energy =                  0.0338431621509033
    Total Energy =                        -26.5855751213156850

Computation Completed


Properties will be evaluated at   0.000000,   0.000000,   0.000000 [a0]

Properties computed using the SCF density matrix

  Nuclear Dipole Moment: [e a0]
     X:    -0.0001      Y:    -0.0040      Z:    -0.0002

  Electronic Dipole Moment: [e a0]
     X:     0.0001      Y:     0.0057      Z:     0.0003

  Dipole Moment: [e a0]
     X:     0.0001      Y:     0.0017      Z:     0.0001     Total:     0.0017

  Dipole Moment: [D]
     X:     0.0002      Y:     0.0044      Z:     0.0002     Total:     0.0044


*** tstop() called on bp1-compute00143.data.bp.acrc.priv at Mon Apr 19 15:50:13 2021
Module time:
	user time   =     103.21 seconds =       1.72 minutes
	system time =       2.46 seconds =       0.04 minutes
	total time  =          5 seconds =       0.08 minutes
Total time:
	user time   =     536.58 seconds =       8.94 minutes
	system time =      19.10 seconds =       0.32 minutes
	total time  =         25 seconds =       0.42 minutes

  //>>>>>>>>>>>>>>>>>>>>>>>>>>>>>>>>>>>//
  //    Loading displacement 6 of 13   //
  //<<<<<<<<<<<<<<<<<<<<<<<<<<<<<<<<<<<//

*** tstart() called on bp1-compute00143.data.bp.acrc.priv
*** at Mon Apr 19 15:50:13 2021

   => Loading Basis Set <=

    Name: AUG-CC-PV(Q+D)Z
    Role: ORBITAL
    Keyword: BASIS
    atoms 1   entry B          line   259 file /work/zw18965/.conda/envs/p4env/share/psi4/basis/aug-cc-pv_qpd_z.gbs 
    atoms 2-4 entry H          line    56 file /work/zw18965/.conda/envs/p4env/share/psi4/basis/aug-cc-pv_qpd_z.gbs 


         ---------------------------------------------------------
                                   SCF
               by Justin Turney, Rob Parrish, Andy Simmonett
                          and Daniel G. A. Smith
                              RKS Reference
                       24 Threads, 137329 MiB Core
         ---------------------------------------------------------

  ==> Geometry <==

    Molecular point group: c1
    Full point group: C1

    Geometry (in Angstrom), charge = 0, multiplicity = 1:

       Center              X                  Y                   Z               Mass       
    ------------   -----------------  -----------------  -----------------  -----------------
         B            0.000007382502    -0.000015096789    -0.000352608431    11.009305360000
         H           -0.399640930728    -1.029820990108     0.415322513188     1.007825032230
         H           -0.171153094394     0.990471985415     0.618947143262     1.007825032230
         H            0.570713379955     0.039513919391    -1.030417823285     1.007825032230

  Running in c1 symmetry.

  Rotational constants: A =      8.01261  B =      8.01224  C =      4.00622 [cm^-1]
  Rotational constants: A = 240212.10648  B = 240200.99320  C = 120103.34835 [MHz]
  Nuclear repulsion =    7.505382045529150

  Charge       = 0
  Multiplicity = 1
  Electrons    = 8
  Nalpha       = 4
  Nbeta        = 4

  ==> Algorithm <==

  SCF Algorithm Type is DF.
  DIIS enabled.
  MOM disabled.
  Fractional occupation disabled.
  Guess Type is SAD.
  Energy threshold   = 1.00e-08
  Density threshold  = 1.00e-08
  Integral threshold = 0.00e+00

  ==> Primary Basis <==

  Basis Set: AUG-CC-PV(Q+D)Z
    Blend: AUG-CC-PV(Q+D)Z
    Number of shells: 62
    Number of basis function: 218
    Number of Cartesian functions: 270
    Spherical Harmonics?: true
    Max angular momentum: 4

  ==> DFT Potential <==

   => Composite Functional: WB97M-V <= 

    wB97M-V Hyb-GGA Exchange-Correlation Functional

    N. Mardirossian and M. Head-Gordon, J. Chem. Phys. 144, 214110 (2016)

    Deriv               =              1
    GGA                 =           TRUE
    Meta                =           TRUE

    Exchange Hybrid     =           TRUE
    MP2 Hybrid          =          FALSE

   => Exchange-Correlation Functionals <=

    1.0000   wB97M-V exchange-correlation functional

   => Exact (HF) Exchange <=

    0.8500            HF,LR [omega = 0.3000]
    0.1500               HF 

   => VV10 Non-Local Parameters <=

    VV10 B              =     6.0000E+00
    VV10 C              =     1.0000E-02

   => Molecular Quadrature <=

    Radial Scheme          =       TREUTLER
    Pruning Scheme         =           FLAT
    Nuclear Scheme         =       TREUTLER

    BS radius alpha        =              1
    Pruning alpha          =              1
    Radial Points          =             75
    Spherical Points       =            302
    Total Points           =          90600
    Total Blocks           =            741
    Max Points             =            256
    Max Functions          =            218

   => Loading Basis Set <=

    Name: (AUG-CC-PV(Q+D)Z AUX)
    Role: JKFIT
    Keyword: DF_BASIS_SCF
    atoms 1   entry B          line   108 file /work/zw18965/.conda/envs/p4env/share/psi4/basis/aug-cc-pvqz-jkfit.gbs 
    atoms 2-4 entry H          line    70 file /work/zw18965/.conda/envs/p4env/share/psi4/basis/aug-cc-pvqz-jkfit.gbs 

  ==> Pre-Iterations <==

   -------------------------------------------------------
    Irrep   Nso     Nmo     Nalpha   Nbeta   Ndocc  Nsocc
   -------------------------------------------------------
     A        218     218       0       0       0       0
   -------------------------------------------------------
    Total     218     218       4       4       4       0
   -------------------------------------------------------

  ==> Integral Setup <==

  ==> DiskDFJK: Density-Fitted J/K Matrices <==

    J tasked:                  Yes
    K tasked:                  Yes
    wK tasked:                 Yes
    Omega:               3.000E-01
    OpenMP threads:             24
    Integrals threads:          24
    Memory [MiB]:           101636
    Algorithm:                Core
    Integral Cache:           NONE
    Schwarz Cutoff:          1E-12
    Fitting Condition:       1E-10

   => Auxiliary Basis Set <=

  Basis Set: (AUG-CC-PV(Q+D)Z AUX)
    Blend: AUG-CC-PVQZ-JKFIT
    Number of shells: 88
    Number of basis function: 370
    Number of Cartesian functions: 501
    Spherical Harmonics?: true
    Max angular momentum: 5

  Cached 100.0% of DFT collocation blocks in 1.329 [GiB].

  Minimum eigenvalue in the overlap matrix is 2.6448428702E-05.
  Using Symmetric Orthogonalization.

  SCF Guess: Superposition of Atomic Densities via on-the-fly atomic UHF.

  ==> Iterations <==

                           Total Energy        Delta E     RMS |[F,P]|

   @DF-RKS iter SAD:   -25.91086878473554   -2.59109e+01   0.00000e+00 
   @DF-RKS iter   1:   -26.56336838459874   -6.52500e-01   8.74661e-04 DIIS
   @DF-RKS iter   2:   -26.58323071112872   -1.98623e-02   2.89879e-04 DIIS
   @DF-RKS iter   3:   -26.58553429157437   -2.30358e-03   2.57095e-05 DIIS
   @DF-RKS iter   4:   -26.58557339172340   -3.91001e-05   4.85145e-06 DIIS
   @DF-RKS iter   5:   -26.58557543736185   -2.04564e-06   6.81099e-07 DIIS
   @DF-RKS iter   6:   -26.58557547287863   -3.55168e-08   6.38488e-08 DIIS
   @DF-RKS iter   7:   -26.58557547322961   -3.50976e-10   8.61893e-09 DIIS
  Energy and wave function converged.


  ==> Post-Iterations <==

    Orbital Energies [Eh]
    ---------------------

    Doubly Occupied:                                                      

       1A     -6.914502     2A     -0.628633     3A     -0.454263  
       4A     -0.453655  

    Virtual:                                                              

       5A     -0.006940     6A      0.017271     7A      0.030785  
       8A      0.030809     9A      0.053403    10A      0.067391  
      11A      0.067450    12A      0.087616    13A      0.105793  
      14A      0.105833    15A      0.115192    16A      0.120594  
      17A      0.120654    18A      0.192600    19A      0.192709  
      20A      0.211811    21A      0.222396    22A      0.232293  
      23A      0.248383    24A      0.248468    25A      0.250279  
      26A      0.259260    27A      0.259360    28A      0.282561  
      29A      0.285863    30A      0.285893    31A      0.350327  
      32A      0.389911    33A      0.389982    34A      0.425575  
      35A      0.425957    36A      0.459432    37A      0.482134  
      38A      0.482230    39A      0.523320    40A      0.523383  
      41A      0.524352    42A      0.549455    43A      0.549518  
      44A      0.562519    45A      0.569265    46A      0.659792  
      47A      0.678678    48A      0.705601    49A      0.705727  
      50A      0.716623    51A      0.742395    52A      0.743039  
      53A      0.747606    54A      0.747725    55A      0.794725  
      56A      0.817777    57A      0.818129    58A      0.856128  
      59A      0.856152    60A      0.864564    61A      0.864963  
      62A      0.871753    63A      0.876294    64A      0.930931  
      65A      1.055215    66A      1.055447    67A      1.094211  
      68A      1.094364    69A      1.116990    70A      1.167355  
      71A      1.190115    72A      1.191061    73A      1.196044  
      74A      1.409072    75A      1.409172    76A      1.416254  
      77A      1.420317    78A      1.420682    79A      1.444175  
      80A      1.463776    81A      1.464012    82A      1.497454  
      83A      1.513727    84A      1.513851    85A      1.570280  
      86A      1.570870    87A      1.579657    88A      1.697245  
      89A      1.697921    90A      1.698848    91A      1.699041  
      92A      1.701610    93A      1.731551    94A      1.791580  
      95A      1.814483    96A      1.815021    97A      1.862546  
      98A      1.896542    99A      1.899145   100A      1.899466  
     101A      1.925648   102A      2.011836   103A      2.011933  
     104A      2.014261   105A      2.014396   106A      2.074164  
     107A      2.074261   108A      2.106778   109A      2.113495  
     110A      2.113608   111A      2.115806   112A      2.133665  
     113A      2.134080   114A      2.211912   115A      2.213065  
     116A      2.240283   117A      2.262059   118A      2.262723  
     119A      2.589182   120A      2.711064   121A      2.714599  
     122A      2.844148   123A      2.950970   124A      2.951788  
     125A      3.020099   126A      3.020363   127A      3.076555  
     128A      3.076936   129A      3.148451   130A      3.159170  
     131A      3.159468   132A      3.162927   133A      3.183385  
     134A      3.236430   135A      3.237057   136A      3.320403  
     137A      3.381985   138A      3.383183   139A      3.450010  
     140A      3.451905   141A      3.566817   142A      3.667352  
     143A      3.811055   144A      3.957917   145A      3.958246  
     146A      3.977023   147A      3.977087   148A      4.006036  
     149A      4.073928   150A      4.120373   151A      4.120841  
     152A      4.131937   153A      4.192930   154A      4.193593  
     155A      4.343335   156A      4.343362   157A      4.554337  
     158A      4.630631   159A      4.907436   160A      4.908997  
     161A      5.054378   162A      5.055861   163A      5.080921  
     164A      5.165837   165A      5.166463   166A      5.185093  
     167A      5.239989   168A      6.017235   169A      6.019049  
     170A      6.389344   171A      6.442943   172A      6.443584  
     173A      6.587803   174A      6.607466   175A      6.608110  
     176A      6.831179   177A      6.831434   178A      7.160844  
     179A      7.193174   180A      7.196497   181A      7.419309  
     182A      7.420475   183A      7.431562   184A      7.433504  
     185A      7.511420   186A      7.631394   187A      7.805531  
     188A      7.807338   189A      7.861100   190A      7.863645  
     191A      8.049545   192A      8.209816   193A      8.212988  
     194A      8.530073   195A      8.530920   196A      8.648436  
     197A      8.651094   198A      8.703625   199A      8.705295  
     200A      8.708154   201A      8.765653   202A      8.949797  
     203A      8.963931   204A      8.986740   205A      9.021880  
     206A      9.023869   207A      9.134886   208A      9.236097  
     209A      9.239045   210A      9.460446   211A      9.596493  
     212A      9.596781   213A      9.989220   214A      9.990294  
     215A     10.118007   216A     10.997334   217A     11.009164  
     218A     19.050689  

    Final Occupation by Irrep:
              A 
    DOCC [     4 ]

  @DF-RKS Final Energy:   -26.58557547322961

   => Energetics <=

    Nuclear Repulsion Energy =              7.5053820455291502
    One-Electron Energy =                 -49.2173193462082352
    Two-Electron Energy =                  18.4638105399027808
    DFT Exchange-Correlation Energy =      -3.3712918695336365
    Empirical Dispersion Energy =           0.0000000000000000
    VV10 Nonlocal Energy =                  0.0338431570803289
    Total Energy =                        -26.5855754732296070

Computation Completed


Properties will be evaluated at   0.000000,   0.000000,   0.000000 [a0]

Properties computed using the SCF density matrix

  Nuclear Dipole Moment: [e a0]
     X:    -0.0001      Y:     0.0002      Z:     0.0039

  Electronic Dipole Moment: [e a0]
     X:     0.0002      Y:    -0.0003      Z:    -0.0056

  Dipole Moment: [e a0]
     X:     0.0002      Y:    -0.0001      Z:    -0.0017     Total:     0.0017

  Dipole Moment: [D]
     X:     0.0004      Y:    -0.0002      Z:    -0.0042     Total:     0.0042


*** tstop() called on bp1-compute00143.data.bp.acrc.priv at Mon Apr 19 15:50:18 2021
Module time:
	user time   =     104.21 seconds =       1.74 minutes
	system time =       2.98 seconds =       0.05 minutes
	total time  =          5 seconds =       0.08 minutes
Total time:
	user time   =     640.92 seconds =      10.68 minutes
	system time =      22.08 seconds =       0.37 minutes
	total time  =         30 seconds =       0.50 minutes

  //>>>>>>>>>>>>>>>>>>>>>>>>>>>>>>>>>>>//
  //    Loading displacement 7 of 13   //
  //<<<<<<<<<<<<<<<<<<<<<<<<<<<<<<<<<<<//

*** tstart() called on bp1-compute00143.data.bp.acrc.priv
*** at Mon Apr 19 15:50:18 2021

   => Loading Basis Set <=

    Name: AUG-CC-PV(Q+D)Z
    Role: ORBITAL
    Keyword: BASIS
[...]
     149A      4.072245   150A      4.116828   151A      4.119381  
     152A      4.130536   153A      4.192365   154A      4.192492  
     155A      4.341877   156A      4.342584   157A      4.551778  
     158A      4.628327   159A      4.905785   160A      4.910042  
     161A      5.052034   162A      5.054737   163A      5.079945  
     164A      5.163284   165A      5.165291   166A      5.181810  
     167A      5.236103   168A      6.014255   169A      6.014864  
     170A      6.389148   171A      6.442545   172A      6.442593  
     173A      6.585954   174A      6.605426   175A      6.607152  
     176A      6.826887   177A      6.829940   178A      7.157774  
     179A      7.192258   180A      7.192319   181A      7.416918  
     182A      7.418769   183A      7.427747   184A      7.429129  
     185A      7.508289   186A      7.629779   187A      7.806031  
     188A      7.806842   189A      7.858477   190A      7.858666  
     191A      8.047945   192A      8.208065   193A      8.210357  
     194A      8.528347   195A      8.528515   196A      8.644526  
     197A      8.646475   198A      8.701499   199A      8.706054  
     200A      8.706525   201A      8.765334   202A      8.946328  
     203A      8.961118   204A      8.987638   205A      9.022090  
     206A      9.022440   207A      9.129284   208A      9.233196  
     209A      9.236636   210A      9.451526   211A      9.589810  
     212A      9.595093   213A      9.984753   214A      9.986967  
     215A     10.118222   216A     10.990877   217A     10.998631  
     218A     19.036733  

    Final Occupation by Irrep:
              A 
    DOCC [     4 ]

  @DF-RKS Final Energy:   -26.58559137871887

   => Energetics <=

    Nuclear Repulsion Energy =              7.4985436500372371
    One-Electron Energy =                 -49.2042670946531118
    Two-Electron Energy =                  18.4568292310376911
    DFT Exchange-Correlation Energy =      -3.3705394435131502
    Empirical Dispersion Energy =           0.0000000000000000
    VV10 Nonlocal Energy =                  0.0338422783724698
    Total Energy =                        -26.5855913787188669

Computation Completed


Properties will be evaluated at   0.000000,   0.000000,   0.000000 [a0]

Properties computed using the SCF density matrix

  Nuclear Dipole Moment: [e a0]
     X:    -0.0001      Y:     0.0002      Z:    -0.0002

  Electronic Dipole Moment: [e a0]
     X:    -0.0001      Y:    -0.0008      Z:     0.0005

  Dipole Moment: [e a0]
     X:    -0.0002      Y:    -0.0006      Z:     0.0003     Total:     0.0007

  Dipole Moment: [D]
     X:    -0.0005      Y:    -0.0015      Z:     0.0007     Total:     0.0017


*** tstop() called on bp1-compute00143.data.bp.acrc.priv at Mon Apr 19 15:50:46 2021
Module time:
	user time   =     103.29 seconds =       1.72 minutes
	system time =       2.41 seconds =       0.04 minutes
	total time  =          5 seconds =       0.08 minutes
Total time:
	user time   =    1265.58 seconds =      21.09 minutes
	system time =      36.87 seconds =       0.61 minutes
	total time  =         58 seconds =       0.97 minutes

  //>>>>>>>>>>>>>>>>>>>>>>>>>>>>>>>>>>>//
  //   Loading displacement 13 of 13   //
  //<<<<<<<<<<<<<<<<<<<<<<<<<<<<<<<<<<<//

*** tstart() called on bp1-compute00143.data.bp.acrc.priv
*** at Mon Apr 19 15:50:46 2021

   => Loading Basis Set <=

    Name: AUG-CC-PV(Q+D)Z
    Role: ORBITAL
    Keyword: BASIS
    atoms 1   entry B          line   259 file /work/zw18965/.conda/envs/p4env/share/psi4/basis/aug-cc-pv_qpd_z.gbs 
    atoms 2-4 entry H          line    56 file /work/zw18965/.conda/envs/p4env/share/psi4/basis/aug-cc-pv_qpd_z.gbs 


         ---------------------------------------------------------
                                   SCF
               by Justin Turney, Rob Parrish, Andy Simmonett
                          and Daniel G. A. Smith
                              RKS Reference
                       24 Threads, 137329 MiB Core
         ---------------------------------------------------------

  ==> Geometry <==

    Molecular point group: c1
    Full point group: C1

    Geometry (in Angstrom), charge = 0, multiplicity = 1:

       Center              X                  Y                   Z               Mass       
    ------------   -----------------  -----------------  -----------------  -----------------
         B            0.000007382502    -0.000015096789     0.000017537100    11.009305360000
         H           -0.399640926403    -1.029821016620     0.413974649619     1.007825032230
         H           -0.170476385391     0.989604590005     0.616095097445     1.007825032230
         H            0.570036666627     0.040381341313    -1.030261319294     1.007825032230

  Running in c1 symmetry.

  Rotational constants: A =      8.04195  B =      8.01225  C =      4.01354 [cm^-1]
  Rotational constants: A = 241091.49818  B = 240201.24224  C = 120322.77426 [MHz]
  Nuclear repulsion =    7.512233303271907

  Charge       = 0
  Multiplicity = 1
  Electrons    = 8
  Nalpha       = 4
  Nbeta        = 4

  ==> Algorithm <==

  SCF Algorithm Type is DF.
  DIIS enabled.
  MOM disabled.
  Fractional occupation disabled.
  Guess Type is SAD.
  Energy threshold   = 1.00e-08
  Density threshold  = 1.00e-08
  Integral threshold = 0.00e+00

  ==> Primary Basis <==

  Basis Set: AUG-CC-PV(Q+D)Z
    Blend: AUG-CC-PV(Q+D)Z
    Number of shells: 62
    Number of basis function: 218
    Number of Cartesian functions: 270
    Spherical Harmonics?: true
    Max angular momentum: 4

  ==> DFT Potential <==

   => Composite Functional: WB97M-V <= 

    wB97M-V Hyb-GGA Exchange-Correlation Functional

    N. Mardirossian and M. Head-Gordon, J. Chem. Phys. 144, 214110 (2016)

    Deriv               =              1
    GGA                 =           TRUE
    Meta                =           TRUE

    Exchange Hybrid     =           TRUE
    MP2 Hybrid          =          FALSE

   => Exchange-Correlation Functionals <=

    1.0000   wB97M-V exchange-correlation functional

   => Exact (HF) Exchange <=

    0.8500            HF,LR [omega = 0.3000]
    0.1500               HF 

   => VV10 Non-Local Parameters <=

    VV10 B              =     6.0000E+00
    VV10 C              =     1.0000E-02

   => Molecular Quadrature <=

    Radial Scheme          =       TREUTLER
    Pruning Scheme         =           FLAT
    Nuclear Scheme         =       TREUTLER

    BS radius alpha        =              1
    Pruning alpha          =              1
    Radial Points          =             75
    Spherical Points       =            302
    Total Points           =          90600
    Total Blocks           =            748
    Max Points             =            256
    Max Functions          =            218

   => Loading Basis Set <=

    Name: (AUG-CC-PV(Q+D)Z AUX)
    Role: JKFIT
    Keyword: DF_BASIS_SCF
    atoms 1   entry B          line   108 file /work/zw18965/.conda/envs/p4env/share/psi4/basis/aug-cc-pvqz-jkfit.gbs 
    atoms 2-4 entry H          line    70 file /work/zw18965/.conda/envs/p4env/share/psi4/basis/aug-cc-pvqz-jkfit.gbs 

  ==> Pre-Iterations <==

   -------------------------------------------------------
    Irrep   Nso     Nmo     Nalpha   Nbeta   Ndocc  Nsocc
   -------------------------------------------------------
     A        218     218       0       0       0       0
   -------------------------------------------------------
    Total     218     218       4       4       4       0
   -------------------------------------------------------

  ==> Integral Setup <==

  ==> DiskDFJK: Density-Fitted J/K Matrices <==

    J tasked:                  Yes
    K tasked:                  Yes
    wK tasked:                 Yes
    Omega:               3.000E-01
    OpenMP threads:             24
    Integrals threads:          24
    Memory [MiB]:           101636
    Algorithm:                Core
    Integral Cache:           NONE
    Schwarz Cutoff:          1E-12
    Fitting Condition:       1E-10

   => Auxiliary Basis Set <=

  Basis Set: (AUG-CC-PV(Q+D)Z AUX)
    Blend: AUG-CC-PVQZ-JKFIT
    Number of shells: 88
    Number of basis function: 370
    Number of Cartesian functions: 501
    Spherical Harmonics?: true
    Max angular momentum: 5

  Cached 100.0% of DFT collocation blocks in 1.329 [GiB].

  Minimum eigenvalue in the overlap matrix is 2.6361473416E-05.
  Using Symmetric Orthogonalization.

  SCF Guess: Superposition of Atomic Densities via on-the-fly atomic UHF.

  ==> Iterations <==

                           Total Energy        Delta E     RMS |[F,P]|

   @DF-RKS iter SAD:   -25.91125210040641   -2.59113e+01   0.00000e+00 
   @DF-RKS iter   1:   -26.56324993468402   -6.51998e-01   8.76921e-04 DIIS
   @DF-RKS iter   2:   -26.58320519412525   -1.99553e-02   2.90527e-04 DIIS
   @DF-RKS iter   3:   -26.58551692911862   -2.31173e-03   2.57017e-05 DIIS
   @DF-RKS iter   4:   -26.58555597778767   -3.90487e-05   4.84757e-06 DIIS
   @DF-RKS iter   5:   -26.58555801878058   -2.04099e-06   6.81227e-07 DIIS
   @DF-RKS iter   6:   -26.58555805430499   -3.55244e-08   6.38394e-08 DIIS
   @DF-RKS iter   7:   -26.58555805465575   -3.50763e-10   8.62078e-09 DIIS
  Energy and wave function converged.


  ==> Post-Iterations <==

    Orbital Energies [Eh]
    ---------------------

    Doubly Occupied:                                                      

       1A     -6.914131     2A     -0.628811     3A     -0.454111  
       4A     -0.454071  

    Virtual:                                                              

       5A     -0.006899     6A      0.017275     7A      0.030792  
       8A      0.030799     9A      0.053421    10A      0.067443  
      11A      0.067455    12A      0.087611    13A      0.105797  
      14A      0.105825    15A      0.115208    16A      0.120599  
      17A      0.120623    18A      0.192711    19A      0.192722  
      20A      0.211936    21A      0.222312    22A      0.232347  
      23A      0.248472    24A      0.248506    25A      0.250342  
      26A      0.259364    27A      0.259377    28A      0.282712  
      29A      0.285902    30A      0.285916    31A      0.350428  
      32A      0.389753    33A      0.389927    34A      0.425955  
      35A      0.426068    36A      0.459649    37A      0.482171  
      38A      0.482219    39A      0.523261    40A      0.523528  
      41A      0.524319    42A      0.549538    43A      0.549692  
      44A      0.562498    45A      0.569410    46A      0.659937  
      47A      0.678833    48A      0.705685    49A      0.705772  
      50A      0.716746    51A      0.742744    52A      0.742789  
      53A      0.747570    54A      0.747604    55A      0.794954  
      56A      0.818257    57A      0.818405    58A      0.855932  
      59A      0.856142    60A      0.864997    61A      0.865203  
      62A      0.871810    63A      0.876445    64A      0.931263  
      65A      1.055119    66A      1.055417    67A      1.094349  
      68A      1.094415    69A      1.117211    70A      1.167249  
      71A      1.190115    72A      1.190237    73A      1.196116  
      74A      1.409193    75A      1.409501    76A      1.416886  
      77A      1.420826    78A      1.421627    79A      1.444418  
      80A      1.464062    81A      1.464225    82A      1.497763  
      83A      1.513814    84A      1.514278    85A      1.570994  
      86A      1.571376    87A      1.580132    88A      1.697922  
      89A      1.697944    90A      1.698845    91A      1.699247  
      92A      1.702253    93A      1.731979    94A      1.792262  
      95A      1.815033    96A      1.815328    97A      1.863405  
      98A      1.896591    99A      1.899175   100A      1.899819  
     101A      1.925775   102A      2.011313   103A      2.011992  
     104A      2.014436   105A      2.015622   106A      2.074108  
     107A      2.074142   108A      2.107515   109A      2.113718  
     110A      2.114230   111A      2.116302   112A      2.134612  
     113A      2.134762   114A      2.212634   115A      2.212767  
     116A      2.239612   117A      2.260701   118A      2.261368  
     119A      2.590899   120A      2.713625   121A      2.714068  
     122A      2.842342   123A      2.952011   124A      2.952591  
     125A      3.020921   126A      3.022044   127A      3.077086  
     128A      3.077823   129A      3.148842   130A      3.158925  
     131A      3.159826   132A      3.163348   133A      3.183779  
     134A      3.237602   135A      3.239380   136A      3.322046  
     137A      3.383126   138A      3.384071   139A      3.452400  
     140A      3.453031   141A      3.567966   142A      3.668246  
     143A      3.812276   144A      3.958611   145A      3.958974  
     146A      3.977798   147A      3.977867   148A      4.006780  
     149A      4.075601   150A      4.121852   151A      4.124214  
     152A      4.133532   153A      4.193983   154A      4.194192  
     155A      4.344089   156A      4.344827   157A      4.556877  
     158A      4.632984   159A      4.906373   160A      4.910623  
     161A      5.055542   162A      5.058254   163A      5.081897  
     164A      5.166954   165A      5.168948   166A      5.188317  
     167A      5.244009   168A      6.021309   169A      6.022130  
     170A      6.389519   171A      6.443981   172A      6.443996  
     173A      6.589656   174A      6.608414   175A      6.610116  
     176A      6.832662   177A      6.835859   178A      7.163794  
     179A      7.197126   180A      7.197645   181A      7.421067  
     182A      7.422855   183A      7.435984   184A      7.437202  
     185A      7.514650   186A      7.632981   187A      7.805888  
     188A      7.807004   189A      7.863656   190A      7.868692  
     191A      8.051170   192A      8.212605   193A      8.214595  
     194A      8.532440   195A      8.532617   196A      8.653167  
     197A      8.655262   198A      8.705506   199A      8.707113  
     200A      8.707224   201A      8.765950   202A      8.953274  
     203A      8.966715   204A      8.985862   205A      9.023159  
     206A      9.023804   207A      9.140593   208A      9.238181  
     209A      9.242096   210A      9.469543   211A      9.597941  
     212A      9.603745   213A      9.992326   214A      9.995009  
     215A     10.117740   216A     11.008386   217A     11.015119  
     218A     19.064637  

    Final Occupation by Irrep:
              A 
    DOCC [     4 ]

  @DF-RKS Final Energy:   -26.58555805465575

   => Energetics <=

    Nuclear Repulsion Energy =              7.5122333032719073
    One-Electron Energy =                 -49.2303919669898775
    Two-Electron Energy =                  18.4708019668834069
    DFT Exchange-Correlation Energy =      -3.3720454127730974
    Empirical Dispersion Energy =           0.0000000000000000
    VV10 Nonlocal Energy =                  0.0338440549519092
    Total Energy =                        -26.5855580546557526

Computation Completed


Properties will be evaluated at   0.000000,   0.000000,   0.000000 [a0]

Properties computed using the SCF density matrix

  Nuclear Dipole Moment: [e a0]
     X:    -0.0001      Y:     0.0002      Z:    -0.0002

  Electronic Dipole Moment: [e a0]
     X:     0.0003      Y:     0.0003      Z:     0.0001

  Dipole Moment: [e a0]
     X:     0.0002      Y:     0.0004      Z:    -0.0001     Total:     0.0005

  Dipole Moment: [D]
     X:     0.0006      Y:     0.0011      Z:    -0.0003     Total:     0.0013


*** tstop() called on bp1-compute00143.data.bp.acrc.priv at Mon Apr 19 15:50:50 2021
Module time:
	user time   =     103.73 seconds =       1.73 minutes
	system time =       2.43 seconds =       0.04 minutes
	total time  =          4 seconds =       0.07 minutes
Total time:
	user time   =    1369.45 seconds =      22.82 minutes
	system time =      39.30 seconds =       0.65 minutes
	total time  =         62 seconds =       1.03 minutes

         ----------------------------------------------------------
                                   FINDIF
                     R. A. King and Jonathon Misiewicz
         ---------------------------------------------------------

  Computing gradient from energies.
    Using 3-point formula.
    Energy without displacement:  -26.5855771923
    Check energies below for precision!
    Forces are for mass-weighted, symmetry-adapted cartesians (in au).

     Coord      Energy(-1)        Energy(+1)            Force
        0    -26.5855761664    -26.5855762160     -0.0000049621
        1    -26.5855748404    -26.5855751213     -0.0000280912
        2    -26.5855754732    -26.5855752293      0.0000243929
        3    -26.5855882490    -26.5855614670      0.0026781996
        4    -26.5855852684    -26.5855649325      0.0020335863
        5    -26.5855913787    -26.5855580547      0.0033324063


-------------------------------------------------------------
  ## New Matrix (Symmetry 0) ##
  Irrep: 1 Size: 4 x 3

                 1                   2                   3

    1    -0.00000764240375    -0.00004326451956     0.00003756860415
    2     0.00093560660743     0.00242150980877    -0.00097851074119
    3     0.00039438002829    -0.00229137638360    -0.00143849921637
    4    -0.00132234423197    -0.00008686890561     0.00237944135340




			-----------------------------------------
			 OPTKING 2.0: for geometry optimizations 
			  - R.A. King,  Bethel University        
			-----------------------------------------

	Internal coordinates to be generated automatically.
	Detected frag 1 with atoms:  1 2 3 4
	---Fragment 1 Bond Connectivity---
	 1 : 2 3 4
	 2 : 1
	 3 : 1
	 4 : 1

	---Fragment 1 Geometry and Gradient---
	 B           0.0000139509       -0.0000285288        0.0000331403
	 H          -0.7552118994       -1.9460796797        0.7822987107
	 H          -0.3234323392        1.8717206920        1.1670938008
	 H           1.0784918414        0.0746706312       -1.9497545305
	            -0.0000076424       -0.0000432645        0.0000375686
	             0.0009356066        0.0024215098       -0.0009785107
	             0.0003943800       -0.0022913764       -0.0014384992
	            -0.0013223442       -0.0000868689        0.0023794414

	Previous optimization step data not found.  Starting new optimization.

	---Fragment 1 Intrafragment Coordinates---
	 - Coordinate -           - BOHR/RAD -       - ANG/DEG -
	 R(1,2)           =         2.229220	       1.179652
	 R(1,3)           =         2.229371	       1.179732
	 R(1,4)           =         2.229432	       1.179765
	 B(2,1,3)         =         2.094492	     120.005524
	 B(2,1,4)         =         2.094434	     120.002233
	 B(3,1,4)         =         2.094260	     119.992242

	Current energy   :       -26.5855771923

	Generating empirical Hessian (Schlegel '84) for each fragment.
	Taking RFO optimization step.
	Going to follow RFO solution 1.
	Using RFO vector 1.
	Norm of target step-size    0.48289
	Projected energy change by RFO approximation:        -0.0407136754

	Back-transformation to cartesian coordinates...
	Could not converge backtransformation.
	Using first guess instead.

	--- Internal Coordinate Step in ANG or DEG, aJ/ANG or AJ/DEG ---
	 ---------------------------------------------------------------------------
	   Coordinate                Previous        Force       Change         New 
	   ----------                --------       ------       ------       ------
	    1 R(1,2)          =      1.179652     0.022856  1423.180835  1424.360487
	    2 R(1,3)          =      1.179732     0.022525  1423.120808  1424.300540
	    3 R(1,4)          =      1.179765     0.022439  1423.099182  1424.278946
	    4 B(2,1,3)        =    120.005524     0.004424  -119.916390     0.089134
	    5 B(2,1,4)        =    120.002233     0.004425  -119.913099     0.089135
	    6 B(3,1,4)        =    119.992242     0.004425  -119.903107     0.089135
