
    -----------------------------------------------------------------------
          Psi4: An Open-Source Ab Initio Electronic Structure Package
                               Psi4 1.3.2 release

                         Git: Rev {HEAD} ecbda83 


    R. M. Parrish, L. A. Burns, D. G. A. Smith, A. C. Simmonett,
    A. E. DePrince III, E. G. Hohenstein, U. Bozkaya, A. Yu. Sokolov,
    R. Di Remigio, R. M. Richard, J. F. Gonthier, A. M. James,
    H. R. McAlexander, A. Kumar, M. Saitow, X. Wang, B. P. Pritchard,
    P. Verma, H. F. Schaefer III, K. Patkowski, R. A. King, E. F. Valeev,
    F. A. Evangelista, J. M. Turney, T. D. Crawford, and C. D. Sherrill,
    J. Chem. Theory Comput. 13(7) pp 3185--3197 (2017).
    (doi: 10.1021/acs.jctc.7b00174)


                         Additional Contributions by
    P. Kraus, H. Kruse, M. H. Lechner, M. C. Schieber, R. A. Shaw,
    A. Alenaizan, R. Galvelis, Z. L. Glick, S. Lehtola, and J. P. Misiewicz

    -----------------------------------------------------------------------


    Psi4 started on: Monday, 19 April 2021 03:54PM

    Process ID: 7378
    Host:       bp1-compute00191.data.bp.acrc.priv
    PSIDATADIR: /work/zw18965/.conda/envs/p4env/share/psi4
    Memory:     500.0 MiB
    Threads:    24
    
  ==> Input File <==

--------------------------------------------------------------------------
memory 144 GB

molecule {
0 1
S     1.553518053089   0.000503575617   0.000000000000
C     0.000000000000  -0.000008265748   0.000000000000
S    -1.553517799084  -0.000495315161   0.000000000000}

set basis aug-cc-pV(Q+d)Z
 
optimize("WB97M-V")
frequencies("WB97M-V")--------------------------------------------------------------------------

  Memory set to 134.110 GiB by Python driver.
gradient() will perform gradient computation by finite difference of analytic energies.

         ----------------------------------------------------------
                                   FINDIF
                     R. A. King and Jonathon Misiewicz
         ---------------------------------------------------------

  Using finite-differences of energies to determine gradients.
    Generating geometries for use with 3-point formula.
    Displacement size will be 5.00e-03.
    Number of atoms is 3.
    Number of symmetric SALCs is 3.
    Translations projected? 1. Rotations projected? 1.
    Number of geometries (including reference) is 7.

  //>>>>>>>>>>>>>>>>>>>>>>>>>>>>>>>>>>>//
  //    Loading displacement 1 of 7    //
  //<<<<<<<<<<<<<<<<<<<<<<<<<<<<<<<<<<<//

*** tstart() called on bp1-compute00191.data.bp.acrc.priv
*** at Mon Apr 19 15:54:54 2021

   => Loading Basis Set <=

    Name: AUG-CC-PV(Q+D)Z
    Role: ORBITAL
    Keyword: BASIS
    atoms 1, 3 entry S          line  1148 file /work/zw18965/.conda/envs/p4env/share/psi4/basis/aug-cc-pv_qpd_z.gbs 
    atoms 2    entry C          line   319 file /work/zw18965/.conda/envs/p4env/share/psi4/basis/aug-cc-pv_qpd_z.gbs 


         ---------------------------------------------------------
                                   SCF
               by Justin Turney, Rob Parrish, Andy Simmonett
                          and Daniel G. A. Smith
                              RKS Reference
                       24 Threads, 137329 MiB Core
         ---------------------------------------------------------

  ==> Geometry <==

    Molecular point group: cs
    Full point group: C_inf_v

    Geometry (in Angstrom), charge = 0, multiplicity = 1:

       Center              X                  Y                   Z               Mass       
    ------------   -----------------  -----------------  -----------------  -----------------
         S           -0.000010437241     0.000000000000     1.553518027034    31.972071174400
         C           -0.000010437241     0.000000000000    -0.000000110374    12.000000000000
         S            0.000014354626     0.000000000000    -1.553517985608    31.972071174400

  Running in cs symmetry.

  Rotational constants: A = ************  B =      0.10924  C =      0.10924 [cm^-1]
  Rotational constants: A = ************  B =   3274.79297  C =   3274.79297 [MHz]
  Nuclear repulsion =  109.002088625142150

  Charge       = 0
  Multiplicity = 1
  Electrons    = 38
  Nalpha       = 19
  Nbeta        = 19

  ==> Algorithm <==

  SCF Algorithm Type is DF.
  DIIS enabled.
  MOM disabled.
  Fractional occupation disabled.
  Guess Type is SAD.
  Energy threshold   = 1.00e-08
  Density threshold  = 1.00e-08
  Integral threshold = 0.00e+00

  ==> Primary Basis <==

  Basis Set: AUG-CC-PV(Q+D)Z
    Blend: AUG-CC-PV(Q+D)Z
    Number of shells: 66
    Number of basis function: 258
    Number of Cartesian functions: 335
    Spherical Harmonics?: true
    Max angular momentum: 4

  ==> DFT Potential <==

   => Composite Functional: WB97M-V <= 

    wB97M-V Hyb-GGA Exchange-Correlation Functional

    N. Mardirossian and M. Head-Gordon, J. Chem. Phys. 144, 214110 (2016)

    Deriv               =              1
    GGA                 =           TRUE
    Meta                =           TRUE

    Exchange Hybrid     =           TRUE
    MP2 Hybrid          =          FALSE

   => Exchange-Correlation Functionals <=

    1.0000   wB97M-V exchange-correlation functional

   => Exact (HF) Exchange <=

    0.8500            HF,LR [omega = 0.3000]
    0.1500               HF 

   => VV10 Non-Local Parameters <=

    VV10 B              =     6.0000E+00
    VV10 C              =     1.0000E-02

   => Molecular Quadrature <=

    Radial Scheme          =       TREUTLER
    Pruning Scheme         =           FLAT
    Nuclear Scheme         =       TREUTLER

    BS radius alpha        =              1
    Pruning alpha          =              1
    Radial Points          =             75
    Spherical Points       =            302
    Total Points           =          67950
    Total Blocks           =            612
    Max Points             =            255
    Max Functions          =            258

   => Loading Basis Set <=

    Name: (AUG-CC-PV(Q+D)Z AUX)
    Role: JKFIT
    Keyword: DF_BASIS_SCF
    atoms 1, 3 entry S          line   810 file /work/zw18965/.conda/envs/p4env/share/psi4/basis/aug-cc-pvqz-jkfit.gbs 
    atoms 2    entry C          line   178 file /work/zw18965/.conda/envs/p4env/share/psi4/basis/aug-cc-pvqz-jkfit.gbs 

  ==> Pre-Iterations <==

   -------------------------------------------------------
    Irrep   Nso     Nmo     Nalpha   Nbeta   Ndocc  Nsocc
   -------------------------------------------------------
     A'       162     162       0       0       0       0
     A"        96      96       0       0       0       0
   -------------------------------------------------------
    Total     258     258      19      19      19       0
   -------------------------------------------------------

  ==> Integral Setup <==

  ==> DiskDFJK: Density-Fitted J/K Matrices <==

    J tasked:                  Yes
    K tasked:                  Yes
    wK tasked:                 Yes
    Omega:               3.000E-01
    OpenMP threads:             24
    Integrals threads:          24
    Memory [MiB]:           101869
    Algorithm:                Core
    Integral Cache:           NONE
    Schwarz Cutoff:          1E-12
    Fitting Condition:       1E-10

   => Auxiliary Basis Set <=

  Basis Set: (AUG-CC-PV(Q+D)Z AUX)
    Blend: AUG-CC-PVQZ-JKFIT
    Number of shells: 126
    Number of basis function: 510
    Number of Cartesian functions: 692
    Spherical Harmonics?: true
    Max angular momentum: 5

  Cached 100.0% of DFT collocation blocks in 1.101 [GiB].

  Minimum eigenvalue in the overlap matrix is 1.9890754528E-05.
  Using Symmetric Orthogonalization.

  SCF Guess: Superposition of Atomic Densities via on-the-fly atomic UHF.

  ==> Iterations <==

                           Total Energy        Delta E     RMS |[F,P]|

   @DF-RKS iter SAD:  -834.10616672874266   -8.34106e+02   0.00000e+00 
   @DF-RKS iter   1:  -834.46458445162898   -3.58418e-01   1.72158e-03 DIIS
   @DF-RKS iter   2:  -834.48648620282052   -2.19018e-02   9.05473e-04 DIIS
   @DF-RKS iter   3:  -834.49541466383789   -8.92846e-03   3.90339e-04 DIIS
   @DF-RKS iter   4:  -834.49794706359910   -2.53240e-03   5.26899e-05 DIIS
   @DF-RKS iter   5:  -834.49803038192363   -8.33183e-05   1.14715e-05 DIIS
   @DF-RKS iter   6:  -834.49803378992283   -3.40800e-06   3.99579e-06 DIIS
   @DF-RKS iter   7:  -834.49803421948241   -4.29560e-07   3.35740e-07 DIIS
   @DF-RKS iter   8:  -834.49803422404239   -4.55998e-09   5.29708e-08 DIIS
   @DF-RKS iter   9:  -834.49803422412435   -8.19682e-11   4.37183e-09 DIIS
  Energy and wave function converged.


  ==> Post-Iterations <==

    Orbital Energies [Eh]
    ---------------------

    Doubly Occupied:                                                      

       1Ap   -89.236541     2Ap   -89.236540     3Ap   -10.478381  
       4Ap    -8.152092     5Ap    -8.152072     6Ap    -6.061157  
       7Ap    -6.061156     1App   -6.057593     8Ap    -6.057593  
       2App   -6.057591     9Ap    -6.057591    10Ap    -0.984592  
      11Ap    -0.890020    12Ap    -0.616518    13Ap    -0.531592  
       3App   -0.496788    14Ap    -0.496788    15Ap    -0.359029  
       4App   -0.359029  

    Virtual:                                                              

       5App   -0.003656    16Ap    -0.003656    17Ap     0.029421  
      18Ap     0.031742    19Ap     0.054136     6App    0.059541  
      20Ap     0.059541     7App    0.070563    21Ap     0.070563  
      22Ap     0.098239     8App    0.105858    23Ap     0.105858  
      24Ap     0.124331     9App    0.145790    25Ap     0.145791  
      26Ap     0.151348    27Ap     0.185209    28Ap     0.198481  
      10App    0.201881    29Ap     0.201885    11App    0.214683  
      30Ap     0.214683    31Ap     0.215135    12App    0.268769  
      32Ap     0.268769    33Ap     0.297991    13App    0.298011  
      34Ap     0.300922    14App    0.332663    35Ap     0.332663  
      36Ap     0.338369    15App    0.349879    37Ap     0.349879  
      38Ap     0.413604    16App    0.427796    39Ap     0.427796  
      40Ap     0.430289    41Ap     0.431546    17App    0.431548  
      18App    0.456041    42Ap     0.456044    43Ap     0.475877  
      19App    0.476524    44Ap     0.476524    20App    0.492221  
      45Ap     0.492221    46Ap     0.522512    21App    0.537105  
      47Ap     0.537105    22App    0.557762    48Ap     0.557762  
      23App    0.568119    49Ap     0.568122    24App    0.631889  
      50Ap     0.631889    51Ap     0.638126    25App    0.638151  
      52Ap     0.658796    53Ap     0.672491    26App    0.698360  
      54Ap     0.698360    55Ap     0.773475    27App    0.821289  
      56Ap     0.821289    28App    0.832159    57Ap     0.832159  
      58Ap     0.880385    59Ap     0.882415    60Ap     0.921917  
      29App    0.921935    61Ap     0.982078    30App    1.025172  
      62Ap     1.025172    63Ap     1.028355    31App    1.074134  
      64Ap     1.074159    65Ap     1.126326    32App    1.140274  
      66Ap     1.140274    33App    1.158820    67Ap     1.158820  
      34App    1.173683    68Ap     1.173688    35App    1.248064  
      69Ap     1.248064    70Ap     1.323774    36App    1.323774  
      37App    1.343231    71Ap     1.343235    72Ap     1.359265  
      73Ap     1.363840    38App    1.364997    74Ap     1.364997  
      39App    1.368622    75Ap     1.368625    40App    1.373914  
      76Ap     1.373914    41App    1.422633    77Ap     1.422633  
      42App    1.490171    78Ap     1.490171    79Ap     1.506385  
      43App    1.506399    44App    1.510629    80Ap     1.510629  
      45App    1.534409    81Ap     1.534409    82Ap     1.559893  
      46App    1.574472    83Ap     1.574473    84Ap     1.610514  
      47App    1.672586    85Ap     1.672586    48App    1.757504  
      86Ap     1.757504    87Ap     1.783454    88Ap     1.850208  
      49App    1.850257    89Ap     1.852694    50App    1.902549  
      90Ap     1.902588    51App    1.979102    91Ap     1.979102  
      92Ap     1.995043    93Ap     2.003110    94Ap     2.005842  
      52App    2.005842    95Ap     2.075603    53App    2.075618  
      96Ap     2.145212    54App    2.145226    97Ap     2.188133  
      55App    2.188133    56App    2.298402    98Ap     2.298402  
      99Ap     2.377240   100Ap     2.523982    57App    2.558864  
     101Ap     2.558864   102Ap     2.624189    58App    2.624189  
     103Ap     2.671438    59App    2.714962   104Ap     2.714984  
      60App    2.742716   105Ap     2.742731   106Ap     2.811015  
      61App    2.929166   107Ap     2.929177   108Ap     2.961092  
      62App    2.961092   109Ap     2.978001    63App    3.121905  
     110Ap     3.121928    64App    3.175687   111Ap     3.175687  
     112Ap     3.249346   113Ap     3.267817    65App    3.267817  
      66App    3.328735   114Ap     3.328735   115Ap     3.400424  
      67App    3.400424   116Ap     3.409594    68App    3.409594  
     117Ap     3.526680   118Ap     3.569912    69App    3.569913  
     119Ap     3.577323    70App    3.577325    71App    3.616297  
     120Ap     3.616308    72App    3.671393   121Ap     3.671393  
      73App    3.731625   122Ap     3.731625    74App    3.736178  
     123Ap     3.736178    75App    3.762556   124Ap     3.762606  
     125Ap     3.823067   126Ap     3.894790    76App    4.031354  
     127Ap     4.031364    77App    4.070825   128Ap     4.070825  
     129Ap     4.112104    78App    4.293350   130Ap     4.293409  
     131Ap     4.377528    79App    4.377528   132Ap     4.386942  
     133Ap     4.405611    80App    4.706015   134Ap     4.706015  
     135Ap     4.858322   136Ap     5.664864    81App    5.664864  
      82App    5.746531   137Ap     5.746531    83App    5.914298  
     138Ap     5.914298    84App    6.036734   139Ap     6.036734  
      85App    6.158980   140Ap     6.158980    86App    6.187518  
     141Ap     6.187518   142Ap     6.228772    87App    6.228787  
     143Ap     6.348962   144Ap     6.351234    88App    6.351234  
     145Ap     6.375436    89App    6.473936   146Ap     6.474042  
     147Ap     6.515248    90App    6.515248   148Ap     6.827790  
      91App    7.061567   149Ap     7.061567   150Ap     7.642347  
      92App    7.642347   151Ap     8.264885   152Ap     8.704323  
     153Ap     8.784606   154Ap     8.844151    93App    8.844183  
     155Ap     8.888172    94App    8.888204    95App    9.179422  
     156Ap     9.179422   157Ap     9.272049    96App    9.272049  
     158Ap     9.497190   159Ap    10.315903   160Ap    20.114295  
     161Ap    21.456623   162Ap    23.208820  

    Final Occupation by Irrep:
             Ap   App 
    DOCC [    15,    4 ]

  @DF-RKS Final Energy:  -834.49803422412435

   => Energetics <=

    Nuclear Repulsion Energy =            109.0020886251421501
    One-Electron Energy =               -1367.1255381281166592
    Two-Electron Energy =                 466.9028075844867089
    DFT Exchange-Correlation Energy =     -43.4344037899184059
    Empirical Dispersion Energy =           0.0000000000000000
    VV10 Nonlocal Energy =                  0.1570114842819704
    Total Energy =                       -834.4980342241243534

Computation Completed


Properties will be evaluated at   0.000000,   0.000000,   0.000000 [a0]

Properties computed using the SCF density matrix

  Nuclear Dipole Moment: [e a0]
     X:     0.0000      Y:     0.0000      Z:     0.0000

  Electronic Dipole Moment: [e a0]
     X:     0.0000      Y:     0.0000      Z:    -0.0000

  Dipole Moment: [e a0]
     X:     0.0000      Y:     0.0000      Z:    -0.0000     Total:     0.0000

  Dipole Moment: [D]
     X:     0.0000      Y:     0.0000      Z:    -0.0000     Total:     0.0000


*** tstop() called on bp1-compute00191.data.bp.acrc.priv at Mon Apr 19 15:55:01 2021
Module time:
	user time   =     138.16 seconds =       2.30 minutes
	system time =       8.01 seconds =       0.13 minutes
	total time  =          7 seconds =       0.12 minutes
Total time:
	user time   =     138.16 seconds =       2.30 minutes
	system time =       8.01 seconds =       0.13 minutes
	total time  =          7 seconds =       0.12 minutes

  //>>>>>>>>>>>>>>>>>>>>>>>>>>>>>>>>>>>//
  //    Loading displacement 2 of 7    //
  //<<<<<<<<<<<<<<<<<<<<<<<<<<<<<<<<<<<//

*** tstart() called on bp1-compute00191.data.bp.acrc.priv
*** at Mon Apr 19 15:55:01 2021

   => Loading Basis Set <=

    Name: AUG-CC-PV(Q+D)Z
    Role: ORBITAL
    Keyword: BASIS
    atoms 1, 3 entry S          line  1148 file /work/zw18965/.conda/envs/p4env/share/psi4/basis/aug-cc-pv_qpd_z.gbs 
    atoms 2    entry C          line   319 file /work/zw18965/.conda/envs/p4env/share/psi4/basis/aug-cc-pv_qpd_z.gbs 


         ---------------------------------------------------------
                                   SCF
               by Justin Turney, Rob Parrish, Andy Simmonett
                          and Daniel G. A. Smith
                              RKS Reference
                       24 Threads, 137329 MiB Core
         ---------------------------------------------------------

  ==> Geometry <==

    Molecular point group: cs
    Full point group: Cs

    Geometry (in Angstrom), charge = 0, multiplicity = 1:

       Center              X                  Y                   Z               Mass       
    ------------   -----------------  -----------------  -----------------  -----------------
         S           -0.000141964025     0.000000000000     1.553518032627    31.972071174400
         C            0.000690426764     0.000000000000    -0.000000104781    12.000000000000
         S           -0.000117172180     0.000000000000    -1.553517993299    31.972071174400

  Running in cs symmetry.

  Rotational constants: A = 2481341.27341  B =      0.10924  C =      0.10924 [cm^-1]
  Rotational constants: A = 74388739949.36121  B =   3274.79294  C =   3274.79280 [MHz]
  Nuclear repulsion =  109.002079050627273

  Charge       = 0
  Multiplicity = 1
  Electrons    = 38
  Nalpha       = 19
  Nbeta        = 19

  ==> Algorithm <==

  SCF Algorithm Type is DF.
  DIIS enabled.
  MOM disabled.
  Fractional occupation disabled.
  Guess Type is SAD.
  Energy threshold   = 1.00e-08
  Density threshold  = 1.00e-08
  Integral threshold = 0.00e+00

  ==> Primary Basis <==

  Basis Set: AUG-CC-PV(Q+D)Z
    Blend: AUG-CC-PV(Q+D)Z
    Number of shells: 66
    Number of basis function: 258
    Number of Cartesian functions: 335
    Spherical Harmonics?: true
    Max angular momentum: 4

  ==> DFT Potential <==

   => Composite Functional: WB97M-V <= 

    wB97M-V Hyb-GGA Exchange-Correlation Functional

    N. Mardirossian and M. Head-Gordon, J. Chem. Phys. 144, 214110 (2016)

    Deriv               =              1
    GGA                 =           TRUE
    Meta                =           TRUE

    Exchange Hybrid     =           TRUE
    MP2 Hybrid          =          FALSE

   => Exchange-Correlation Functionals <=

    1.0000   wB97M-V exchange-correlation functional

   => Exact (HF) Exchange <=

    0.8500            HF,LR [omega = 0.3000]
    0.1500               HF 

   => VV10 Non-Local Parameters <=

    VV10 B              =     6.0000E+00
    VV10 C              =     1.0000E-02

   => Molecular Quadrature <=

    Radial Scheme          =       TREUTLER
    Pruning Scheme         =           FLAT
    Nuclear Scheme         =       TREUTLER

    BS radius alpha        =              1
    Pruning alpha          =              1
    Radial Points          =             75
    Spherical Points       =            302
    Total Points           =          67950
    Total Blocks           =            610
    Max Points             =            256
    Max Functions          =            253

   => Loading Basis Set <=

    Name: (AUG-CC-PV(Q+D)Z AUX)
    Role: JKFIT
    Keyword: DF_BASIS_SCF
    atoms 1, 3 entry S          line   810 file /work/zw18965/.conda/envs/p4env/share/psi4/basis/aug-cc-pvqz-jkfit.gbs 
    atoms 2    entry C          line   178 file /work/zw18965/.conda/envs/p4env/share/psi4/basis/aug-cc-pvqz-jkfit.gbs 

  ==> Pre-Iterations <==

   -------------------------------------------------------
    Irrep   Nso     Nmo     Nalpha   Nbeta   Ndocc  Nsocc
   -------------------------------------------------------
     A'       162     162       0       0       0       0
     A"        96      96       0       0       0       0
   -------------------------------------------------------
    Total     258     258      19      19      19       0
   -------------------------------------------------------

  ==> Integral Setup <==

  ==> DiskDFJK: Density-Fitted J/K Matrices <==

    J tasked:                  Yes
    K tasked:                  Yes
    wK tasked:                 Yes
    Omega:               3.000E-01
    OpenMP threads:             24
    Integrals threads:          24
    Memory [MiB]:           101866
    Algorithm:                Core
    Integral Cache:           NONE
    Schwarz Cutoff:          1E-12
    Fitting Condition:       1E-10

   => Auxiliary Basis Set <=

  Basis Set: (AUG-CC-PV(Q+D)Z AUX)
    Blend: AUG-CC-PVQZ-JKFIT
    Number of shells: 126
    Number of basis function: 510
    Number of Cartesian functions: 692
    Spherical Harmonics?: true
    Max angular momentum: 5

  Cached 100.0% of DFT collocation blocks in 1.104 [GiB].

  Minimum eigenvalue in the overlap matrix is 1.9890795115E-05.
  Using Symmetric Orthogonalization.

  SCF Guess: Superposition of Atomic Densities via on-the-fly atomic UHF.

  ==> Iterations <==

                           Total Energy        Delta E     RMS |[F,P]|

   @DF-RKS iter SAD:  -834.10615795508500   -8.34106e+02   0.00000e+00 
   @DF-RKS iter   1:  -834.46458468216724   -3.58427e-01   1.72158e-03 DIIS
   @DF-RKS iter   2:  -834.48648621996517   -2.19015e-02   9.05469e-04 DIIS
   @DF-RKS iter   3:  -834.49541459803788   -8.92838e-03   3.90338e-04 DIIS
   @DF-RKS iter   4:  -834.49794698672383   -2.53239e-03   5.26904e-05 DIIS
   @DF-RKS iter   5:  -834.49803030620831   -8.33195e-05   1.14717e-05 DIIS
   @DF-RKS iter   6:  -834.49803371427402   -3.40807e-06   3.99583e-06 DIIS
   @DF-RKS iter   7:  -834.49803414383928   -4.29565e-07   3.35777e-07 DIIS
   @DF-RKS iter   8:  -834.49803414839937   -4.56009e-09   5.30912e-08 DIIS
   @DF-RKS iter   9:  -834.49803414848077   -8.13998e-11   5.14827e-09 DIIS
  Energy and wave function converged.


  ==> Post-Iterations <==

    Orbital Energies [Eh]
    ---------------------

    Doubly Occupied:                                                      

       1Ap   -89.236541     2Ap   -89.236540     3Ap   -10.478381  
       4Ap    -8.152092     5Ap    -8.152072     6Ap    -6.061157  
       7Ap    -6.061156     1App   -6.057593     8Ap    -6.057593  
       2App   -6.057591     9Ap    -6.057591    10Ap    -0.984592  
      11Ap    -0.890020    12Ap    -0.616518    13Ap    -0.531592  
      14Ap    -0.496788     3App   -0.496788     4App   -0.359029  
      15Ap    -0.359029  

    Virtual:                                                              

      16Ap    -0.003656     5App   -0.003656    17Ap     0.029421  
      18Ap     0.031742    19Ap     0.054136     6App    0.059541  
      20Ap     0.059541    21Ap     0.070563     7App    0.070563  
      22Ap     0.098239    23Ap     0.105858     8App    0.105858  
      24Ap     0.124331     9App    0.145791    25Ap     0.145791  
      26Ap     0.151348    27Ap     0.185209    28Ap     0.198481  
      10App    0.201881    29Ap     0.201885    11App    0.214683  
      30Ap     0.214683    31Ap     0.215135    32Ap     0.268769  
      12App    0.268769    33Ap     0.297991    13App    0.298011  
      34Ap     0.300922    35Ap     0.332663    14App    0.332663  
      36Ap     0.338369    15App    0.349879    37Ap     0.349879  
      38Ap     0.413604    16App    0.427796    39Ap     0.427797  
      40Ap     0.430289    41Ap     0.431546    17App    0.431548  
      18App    0.456041    42Ap     0.456044    43Ap     0.475877  
      19App    0.476524    44Ap     0.476524    20App    0.492221  
      45Ap     0.492222    46Ap     0.522512    21App    0.537105  
      47Ap     0.537105    48Ap     0.557762    22App    0.557762  
      23App    0.568119    49Ap     0.568122    50Ap     0.631889  
      24App    0.631889    51Ap     0.638126    25App    0.638150  
      52Ap     0.658796    53Ap     0.672491    26App    0.698360  
      54Ap     0.698360    55Ap     0.773475    27App    0.821289  
      56Ap     0.821289    28App    0.832159    57Ap     0.832159  
      58Ap     0.880385    59Ap     0.882414    60Ap     0.921917  
      29App    0.921935    61Ap     0.982078    62Ap     1.025172  
      30App    1.025172    63Ap     1.028354    31App    1.074133  
      64Ap     1.074158    65Ap     1.126326    32App    1.140274  
      66Ap     1.140275    33App    1.158820    67Ap     1.158820  
      34App    1.173683    68Ap     1.173688    69Ap     1.248064  
      35App    1.248064    70Ap     1.323773    36App    1.323774  
      37App    1.343231    71Ap     1.343235    72Ap     1.359265  
      73Ap     1.363841    38App    1.364997    74Ap     1.364997  
      39App    1.368622    75Ap     1.368625    40App    1.373914  
      76Ap     1.373914    41App    1.422633    77Ap     1.422633  
      42App    1.490168    78Ap     1.490168    79Ap     1.506388  
      43App    1.506401    80Ap     1.510629    44App    1.510629  
      45App    1.534409    81Ap     1.534409    82Ap     1.559893  
      46App    1.574472    83Ap     1.574473    84Ap     1.610514  
      47App    1.672585    85Ap     1.672585    48App    1.757504  
      86Ap     1.757505    87Ap     1.783455    88Ap     1.850209  
      49App    1.850258    89Ap     1.852693    50App    1.902548  
      90Ap     1.902586    51App    1.979103    91Ap     1.979104  
      92Ap     1.995043    93Ap     2.003110    52App    2.005841  
      94Ap     2.005841    95Ap     2.075604    53App    2.075618  
      96Ap     2.145212    54App    2.145226    97Ap     2.188134  
      55App    2.188134    98Ap     2.298402    56App    2.298403  
      99Ap     2.377240   100Ap     2.523981    57App    2.558863  
     101Ap     2.558863   102Ap     2.624180    58App    2.624189  
     103Ap     2.671447    59App    2.714962   104Ap     2.714984  
      60App    2.742716   105Ap     2.742730   106Ap     2.811014  
      61App    2.929166   107Ap     2.929177   108Ap     2.961084  
      62App    2.961092   109Ap     2.978008    63App    3.121905  
     110Ap     3.121928    64App    3.175687   111Ap     3.175688  
     112Ap     3.249347   113Ap     3.267816    65App    3.267816  
      66App    3.328735   114Ap     3.328735   115Ap     3.400424  
      67App    3.400424   116Ap     3.409594    68App    3.409594  
     117Ap     3.526680   118Ap     3.569912    69App    3.569913  
     119Ap     3.577323    70App    3.577325    71App    3.616296  
     120Ap     3.616307    72App    3.671391   121Ap     3.671391  
      73App    3.731625   122Ap     3.731625    74App    3.736178  
     123Ap     3.736179    75App    3.762556   124Ap     3.762607  
     125Ap     3.823065   126Ap     3.894790    76App    4.031347  
     127Ap     4.031356    77App    4.070834   128Ap     4.070835  
     129Ap     4.112106    78App    4.293347   130Ap     4.293406  
     131Ap     4.377520    79App    4.377528   132Ap     4.386939  
     133Ap     4.405619   134Ap     4.706014    80App    4.706015  
     135Ap     4.858322   136Ap     5.664864    81App    5.664864  
      82App    5.746530   137Ap     5.746534    83App    5.914299  
     138Ap     5.914299    84App    6.036733   139Ap     6.036733  
      85App    6.158979   140Ap     6.158980    86App    6.187517  
     141Ap     6.187517   142Ap     6.228774    87App    6.228789  
     143Ap     6.348963   144Ap     6.351235    88App    6.351236  
     145Ap     6.375436    89App    6.473935   146Ap     6.474042  
     147Ap     6.515249    90App    6.515249   148Ap     6.827789  
      91App    7.061567   149Ap     7.061568   150Ap     7.642344  
      92App    7.642345   151Ap     8.264883   152Ap     8.704324  
     153Ap     8.784595   154Ap     8.844151    93App    8.844183  
     155Ap     8.888172    94App    8.888203    95App    9.179422  
     156Ap     9.179428   157Ap     9.272047    96App    9.272048  
     158Ap     9.497192   159Ap    10.315900   160Ap    20.114304  
     161Ap    21.456618   162Ap    23.208812  

    Final Occupation by Irrep:
             Ap   App 
    DOCC [    15,    4 ]

  @DF-RKS Final Energy:  -834.49803414848077

   => Energetics <=

    Nuclear Repulsion Energy =            109.0020790506272732
    One-Electron Energy =               -1367.1255188005156924
    Two-Electron Energy =                 466.9027976881100699
    DFT Exchange-Correlation Energy =     -43.4344035709287297
    Empirical Dispersion Energy =           0.0000000000000000
    VV10 Nonlocal Energy =                  0.1570114842262064
    Total Energy =                       -834.4980341484807695

Computation Completed


Properties will be evaluated at   0.000000,   0.000000,   0.000000 [a0]

Properties computed using the SCF density matrix

  Nuclear Dipole Moment: [e a0]
     X:    -0.0000      Y:     0.0000      Z:     0.0000

  Electronic Dipole Moment: [e a0]
     X:    -0.0003      Y:     0.0000      Z:    -0.0000

  Dipole Moment: [e a0]
     X:    -0.0003      Y:     0.0000      Z:    -0.0000     Total:     0.0003

  Dipole Moment: [D]
     X:    -0.0007      Y:     0.0000      Z:    -0.0000     Total:     0.0007


*** tstop() called on bp1-compute00191.data.bp.acrc.priv at Mon Apr 19 15:55:08 2021
Module time:
	user time   =     140.85 seconds =       2.35 minutes
	system time =       4.48 seconds =       0.07 minutes
	total time  =          7 seconds =       0.12 minutes
Total time:
	user time   =     279.15 seconds =       4.65 minutes
	system time =      12.49 seconds =       0.21 minutes
	total time  =         14 seconds =       0.23 minutes

  //>>>>>>>>>>>>>>>>>>>>>>>>>>>>>>>>>>>//
  //    Loading displacement 3 of 7    //
  //<<<<<<<<<<<<<<<<<<<<<<<<<<<<<<<<<<<//

*** tstart() called on bp1-compute00191.data.bp.acrc.priv
*** at Mon Apr 19 15:55:08 2021

   => Loading Basis Set <=

    Name: AUG-CC-PV(Q+D)Z
    Role: ORBITAL
    Keyword: BASIS
    atoms 1, 3 entry S          line  1148 file /work/zw18965/.conda/envs/p4env/share/psi4/basis/aug-cc-pv_qpd_z.gbs 
    atoms 2    entry C          line   319 file /work/zw18965/.conda/envs/p4env/share/psi4/basis/aug-cc-pv_qpd_z.gbs 


         ---------------------------------------------------------
                                   SCF
               by Justin Turney, Rob Parrish, Andy Simmonett
                          and Daniel G. A. Smith
                              RKS Reference
                       24 Threads, 137329 MiB Core
         ---------------------------------------------------------

  ==> Geometry <==

    Molecular point group: cs
    Full point group: Cs

    Geometry (in Angstrom), charge = 0, multiplicity = 1:

       Center              X                  Y                   Z               Mass       
    ------------   -----------------  -----------------  -----------------  -----------------
         S            0.000121089542     0.000000000000     1.553518021442    31.972071174400
         C           -0.000711301247     0.000000000000    -0.000000115966    12.000000000000
         S            0.000145881431     0.000000000000    -1.553517977917    31.972071174400

  Running in cs symmetry.

  Rotational constants: A = 2337838.97244  B =      0.10924  C =      0.10924 [cm^-1]
  Rotational constants: A = 70086649195.49590  B =   3274.79300  C =   3274.79285 [MHz]
  Nuclear repulsion =  109.002079423446929

  Charge       = 0
  Multiplicity = 1
  Electrons    = 38
  Nalpha       = 19
  Nbeta        = 19

  ==> Algorithm <==

  SCF Algorithm Type is DF.
  DIIS enabled.
  MOM disabled.
  Fractional occupation disabled.
  Guess Type is SAD.
  Energy threshold   = 1.00e-08
  Density threshold  = 1.00e-08
  Integral threshold = 0.00e+00

  ==> Primary Basis <==

  Basis Set: AUG-CC-PV(Q+D)Z
    Blend: AUG-CC-PV(Q+D)Z
    Number of shells: 66
    Number of basis function: 258
    Number of Cartesian functions: 335
    Spherical Harmonics?: true
    Max angular momentum: 4

  ==> DFT Potential <==

   => Composite Functional: WB97M-V <= 

    wB97M-V Hyb-GGA Exchange-Correlation Functional

    N. Mardirossian and M. Head-Gordon, J. Chem. Phys. 144, 214110 (2016)

    Deriv               =              1
    GGA                 =           TRUE
    Meta                =           TRUE

    Exchange Hybrid     =           TRUE
    MP2 Hybrid          =          FALSE

   => Exchange-Correlation Functionals <=

    1.0000   wB97M-V exchange-correlation functional

   => Exact (HF) Exchange <=

    0.8500            HF,LR [omega = 0.3000]
    0.1500               HF 

   => VV10 Non-Local Parameters <=

    VV10 B              =     6.0000E+00
    VV10 C              =     1.0000E-02

   => Molecular Quadrature <=

    Radial Scheme          =       TREUTLER
    Pruning Scheme         =           FLAT
    Nuclear Scheme         =       TREUTLER

    BS radius alpha        =              1
    Pruning alpha          =              1
    Radial Points          =             75
    Spherical Points       =            302
    Total Points           =          67950
    Total Blocks           =            614
    Max Points             =            256
    Max Functions          =            253

   => Loading Basis Set <=

    Name: (AUG-CC-PV(Q+D)Z AUX)
    Role: JKFIT
    Keyword: DF_BASIS_SCF
    atoms 1, 3 entry S          line   810 file /work/zw18965/.conda/envs/p4env/share/psi4/basis/aug-cc-pvqz-jkfit.gbs 
    atoms 2    entry C          line   178 file /work/zw18965/.conda/envs/p4env/share/psi4/basis/aug-cc-pvqz-jkfit.gbs 

  ==> Pre-Iterations <==

   -------------------------------------------------------
    Irrep   Nso     Nmo     Nalpha   Nbeta   Ndocc  Nsocc
   -------------------------------------------------------
     A'       162     162       0       0       0       0
     A"        96      96       0       0       0       0
   -------------------------------------------------------
    Total     258     258      19      19      19       0
   -------------------------------------------------------

  ==> Integral Setup <==

  ==> DiskDFJK: Density-Fitted J/K Matrices <==

    J tasked:                  Yes
    K tasked:                  Yes
    wK tasked:                 Yes
    Omega:               3.000E-01
    OpenMP threads:             24
    Integrals threads:          24
    Memory [MiB]:           101867
    Algorithm:                Core
    Integral Cache:           NONE
    Schwarz Cutoff:          1E-12
    Fitting Condition:       1E-10

   => Auxiliary Basis Set <=

  Basis Set: (AUG-CC-PV(Q+D)Z AUX)
    Blend: AUG-CC-PVQZ-JKFIT
    Number of shells: 126
    Number of basis function: 510
    Number of Cartesian functions: 692
    Spherical Harmonics?: true
    Max angular momentum: 5

  Cached 100.0% of DFT collocation blocks in 1.103 [GiB].

  Minimum eigenvalue in the overlap matrix is 1.9890797044E-05.
  Using Symmetric Orthogonalization.

  SCF Guess: Superposition of Atomic Densities via on-the-fly atomic UHF.

  ==> Iterations <==

                           Total Energy        Delta E     RMS |[F,P]|

   @DF-RKS iter SAD:  -834.10616174313941   -8.34106e+02   0.00000e+00 
   @DF-RKS iter   1:  -834.46458451065155   -3.58423e-01   1.72158e-03 DIIS
   @DF-RKS iter   2:  -834.48648616582398   -2.19017e-02   9.05470e-04 DIIS
   @DF-RKS iter   3:  -834.49541456611166   -8.92840e-03   3.90338e-04 DIIS
   @DF-RKS iter   4:  -834.49794695588275   -2.53239e-03   5.26902e-05 DIIS
   @DF-RKS iter   5:  -834.49803027489588   -8.33190e-05   1.14716e-05 DIIS
   @DF-RKS iter   6:  -834.49803368293237   -3.40804e-06   3.99582e-06 DIIS
   @DF-RKS iter   7:  -834.49803411249559   -4.29563e-07   3.35780e-07 DIIS
   @DF-RKS iter   8:  -834.49803411705579   -4.56021e-09   5.30993e-08 DIIS
   @DF-RKS iter   9:  -834.49803411713822   -8.24230e-11   5.19179e-09 DIIS
  Energy and wave function converged.


  ==> Post-Iterations <==

    Orbital Energies [Eh]
    ---------------------

    Doubly Occupied:                                                      

       1Ap   -89.236541     2Ap   -89.236540     3Ap   -10.478381  
       4Ap    -8.152092     5Ap    -8.152072     6Ap    -6.061157  
       7Ap    -6.061156     1App   -6.057593     8Ap    -6.057593  
       2App   -6.057591     9Ap    -6.057591    10Ap    -0.984592  
      11Ap    -0.890020    12Ap    -0.616518    13Ap    -0.531592  
      14Ap    -0.496788     3App   -0.496788     4App   -0.359029  
      15Ap    -0.359029  

    Virtual:                                                              

      16Ap    -0.003656     5App   -0.003656    17Ap     0.029421  
      18Ap     0.031742    19Ap     0.054136     6App    0.059541  
      20Ap     0.059541    21Ap     0.070563     7App    0.070563  
      22Ap     0.098239    23Ap     0.105858     8App    0.105858  
      24Ap     0.124331     9App    0.145791    25Ap     0.145791  
      26Ap     0.151348    27Ap     0.185209    28Ap     0.198481  
      10App    0.201881    29Ap     0.201885    11App    0.214683  
      30Ap     0.214683    31Ap     0.215135    32Ap     0.268769  
      12App    0.268769    33Ap     0.297991    13App    0.298011  
      34Ap     0.300922    35Ap     0.332663    14App    0.332663  
      36Ap     0.338369    15App    0.349879    37Ap     0.349879  
      38Ap     0.413604    16App    0.427796    39Ap     0.427797  
      40Ap     0.430289    41Ap     0.431546    17App    0.431548  
      18App    0.456041    42Ap     0.456044    43Ap     0.475877  
      19App    0.476524    44Ap     0.476524    20App    0.492221  
      45Ap     0.492222    46Ap     0.522512    21App    0.537105  
      47Ap     0.537105    48Ap     0.557762    22App    0.557762  
      23App    0.568119    49Ap     0.568122    50Ap     0.631889  
      24App    0.631889    51Ap     0.638126    25App    0.638150  
      52Ap     0.658796    53Ap     0.672491    26App    0.698360  
      54Ap     0.698360    55Ap     0.773475    27App    0.821289  
      56Ap     0.821289    28App    0.832159    57Ap     0.832159  
      58Ap     0.880385    59Ap     0.882414    60Ap     0.921917  
      29App    0.921935    61Ap     0.982078    62Ap     1.025172  
      30App    1.025172    63Ap     1.028354    31App    1.074133  
      64Ap     1.074158    65Ap     1.126326    32App    1.140274  
      66Ap     1.140275    33App    1.158820    67Ap     1.158820  
      34App    1.173683    68Ap     1.173688    69Ap     1.248064  
      35App    1.248064    70Ap     1.323773    36App    1.323774  
      37App    1.343231    71Ap     1.343235    72Ap     1.359265  
      73Ap     1.363841    38App    1.364997    74Ap     1.364997  
      39App    1.368622    75Ap     1.368625    40App    1.373914  
      76Ap     1.373914    41App    1.422633    77Ap     1.422633  
      42App    1.490168    78Ap     1.490168    79Ap     1.506388  
      43App    1.506401    80Ap     1.510628    44App    1.510629  
      45App    1.534409    81Ap     1.534409    82Ap     1.559893  
      46App    1.574472    83Ap     1.574473    84Ap     1.610514  
      47App    1.672585    85Ap     1.672585    48App    1.757504  
      86Ap     1.757505    87Ap     1.783455    88Ap     1.850209  
      49App    1.850258    89Ap     1.852693    50App    1.902548  
      90Ap     1.902586    51App    1.979103    91Ap     1.979104  
      92Ap     1.995043    93Ap     2.003110    52App    2.005841  
      94Ap     2.005841    95Ap     2.075604    53App    2.075618  
      96Ap     2.145212    54App    2.145226    97Ap     2.188134  
      55App    2.188134    98Ap     2.298402    56App    2.298403  
      99Ap     2.377240   100Ap     2.523981    57App    2.558863  
     101Ap     2.558863   102Ap     2.624179    58App    2.624189  
     103Ap     2.671447    59App    2.714962   104Ap     2.714984  
      60App    2.742716   105Ap     2.742730   106Ap     2.811014  
      61App    2.929166   107Ap     2.929177   108Ap     2.961083  
      62App    2.961092   109Ap     2.978009    63App    3.121905  
     110Ap     3.121929    64App    3.175687   111Ap     3.175688  
     112Ap     3.249347   113Ap     3.267815    65App    3.267816  
      66App    3.328735   114Ap     3.328735   115Ap     3.400424  
      67App    3.400424   116Ap     3.409594    68App    3.409594  
     117Ap     3.526680   118Ap     3.569912    69App    3.569913  
     119Ap     3.577323    70App    3.577325    71App    3.616296  
     120Ap     3.616307    72App    3.671391   121Ap     3.671391  
      73App    3.731625   122Ap     3.731625    74App    3.736178  
     123Ap     3.736179    75App    3.762557   124Ap     3.762607  
     125Ap     3.823065   126Ap     3.894790    76App    4.031346  
     127Ap     4.031356    77App    4.070834   128Ap     4.070836  
     129Ap     4.112106    78App    4.293347   130Ap     4.293406  
     131Ap     4.377519    79App    4.377528   132Ap     4.386939  
     133Ap     4.405619   134Ap     4.706014    80App    4.706015  
     135Ap     4.858322   136Ap     5.664864    81App    5.664864  
      82App    5.746530   137Ap     5.746534    83App    5.914299  
     138Ap     5.914299    84App    6.036733   139Ap     6.036733  
      85App    6.158979   140Ap     6.158980    86App    6.187517  
     141Ap     6.187517   142Ap     6.228774    87App    6.228789  
     143Ap     6.348963   144Ap     6.351235    88App    6.351236  
     145Ap     6.375436    89App    6.473935   146Ap     6.474042  
     147Ap     6.515249    90App    6.515249   148Ap     6.827789  
      91App    7.061567   149Ap     7.061568   150Ap     7.642343  
      92App    7.642345   151Ap     8.264883   152Ap     8.704324  
     153Ap     8.784595   154Ap     8.844151    93App    8.844183  
     155Ap     8.888172    94App    8.888203    95App    9.179422  
     156Ap     9.179428   157Ap     9.272047    96App    9.272048  
     158Ap     9.497192   159Ap    10.315900   160Ap    20.114305  
     161Ap    21.456618   162Ap    23.208811  

    Final Occupation by Irrep:
             Ap   App 
    DOCC [    15,    4 ]

  @DF-RKS Final Energy:  -834.49803411713822

   => Energetics <=

    Nuclear Repulsion Energy =            109.0020794234469292
    One-Electron Energy =               -1367.1255195443218327
    Two-Electron Energy =                 466.9027980908571749
    DFT Exchange-Correlation Energy =     -43.4344035713165511
    Empirical Dispersion Energy =           0.0000000000000000
    VV10 Nonlocal Energy =                  0.1570114841960675
    Total Energy =                       -834.4980341171381042

Computation Completed


Properties will be evaluated at   0.000000,   0.000000,   0.000000 [a0]

Properties computed using the SCF density matrix

  Nuclear Dipole Moment: [e a0]
     X:     0.0000      Y:     0.0000      Z:     0.0000

  Electronic Dipole Moment: [e a0]
     X:     0.0003      Y:     0.0000      Z:    -0.0000

  Dipole Moment: [e a0]
     X:     0.0003      Y:     0.0000      Z:    -0.0000     Total:     0.0003

  Dipole Moment: [D]
     X:     0.0007      Y:     0.0000      Z:    -0.0000     Total:     0.0007


*** tstop() called on bp1-compute00191.data.bp.acrc.priv at Mon Apr 19 15:55:14 2021
Module time:
	user time   =     136.44 seconds =       2.27 minutes
	system time =       4.44 seconds =       0.07 minutes
	total time  =          6 seconds =       0.10 minutes
Total time:
	user time   =     415.74 seconds =       6.93 minutes
	system time =      16.93 seconds =       0.28 minutes
	total time  =         20 seconds =       0.33 minutes

  //>>>>>>>>>>>>>>>>>>>>>>>>>>>>>>>>>>>//
  //    Loading displacement 4 of 7    //
  //<<<<<<<<<<<<<<<<<<<<<<<<<<<<<<<<<<<//

*** tstart() called on bp1-compute00191.data.bp.acrc.priv
*** at Mon Apr 19 15:55:14 2021

   => Loading Basis Set <=

    Name: AUG-CC-PV(Q+D)Z
    Role: ORBITAL
    Keyword: BASIS
    atoms 1, 3 entry S          line  1148 file /work/zw18965/.conda/envs/p4env/share/psi4/basis/aug-cc-pv_qpd_z.gbs 
    atoms 2    entry C          line   319 file /work/zw18965/.conda/envs/p4env/share/psi4/basis/aug-cc-pv_qpd_z.gbs 


         ---------------------------------------------------------
                                   SCF
               by Justin Turney, Rob Parrish, Andy Simmonett
                          and Daniel G. A. Smith
                              RKS Reference
                       24 Threads, 137329 MiB Core
         ---------------------------------------------------------

  ==> Geometry <==

    Molecular point group: cs
    Full point group: C_inf_v

    Geometry (in Angstrom), charge = 0, multiplicity = 1:

       Center              X                  Y                   Z               Mass       
    ------------   -----------------  -----------------  -----------------  -----------------
         S           -0.000010437241     0.000000000000     1.553161963850    31.972071174400
         C           -0.000010426233     0.000000000000     0.000258782992    12.000000000000
         S            0.000014350494     0.000000000000    -1.553259092243    31.972071174400

  Running in cs symmetry.

  Rotational constants: A = ************  B =      0.10928  C =      0.10928 [cm^-1]
  Rotational constants: A = ************  B =   3276.08966  C =   3276.08966 [MHz]
  Nuclear repulsion =  109.023669571113842

  Charge       = 0
  Multiplicity = 1
  Electrons    = 38
  Nalpha       = 19
  Nbeta        = 19

  ==> Algorithm <==

  SCF Algorithm Type is DF.
  DIIS enabled.
  MOM disabled.
  Fractional occupation disabled.
  Guess Type is SAD.
  Energy threshold   = 1.00e-08
  Density threshold  = 1.00e-08
  Integral threshold = 0.00e+00

  ==> Primary Basis <==

  Basis Set: AUG-CC-PV(Q+D)Z
    Blend: AUG-CC-PV(Q+D)Z
    Number of shells: 66
    Number of basis function: 258
    Number of Cartesian functions: 335
    Spherical Harmonics?: true
    Max angular momentum: 4

  ==> DFT Potential <==

   => Composite Functional: WB97M-V <= 

    wB97M-V Hyb-GGA Exchange-Correlation Functional

    N. Mardirossian and M. Head-Gordon, J. Chem. Phys. 144, 214110 (2016)

    Deriv               =              1
    GGA                 =           TRUE
    Meta                =           TRUE

    Exchange Hybrid     =           TRUE
    MP2 Hybrid          =          FALSE

   => Exchange-Correlation Functionals <=

    1.0000   wB97M-V exchange-correlation functional

   => Exact (HF) Exchange <=

    0.8500            HF,LR [omega = 0.3000]
    0.1500               HF 

   => VV10 Non-Local Parameters <=

    VV10 B              =     6.0000E+00
    VV10 C              =     1.0000E-02

   => Molecular Quadrature <=

    Radial Scheme          =       TREUTLER
    Pruning Scheme         =           FLAT
    Nuclear Scheme         =       TREUTLER

    BS radius alpha        =              1
    Pruning alpha          =              1
    Radial Points          =             75
    Spherical Points       =            302
    Total Points           =          67950
    Total Blocks           =            610
    Max Points             =            256
    Max Functions          =            258

   => Loading Basis Set <=

    Name: (AUG-CC-PV(Q+D)Z AUX)
    Role: JKFIT
    Keyword: DF_BASIS_SCF
    atoms 1, 3 entry S          line   810 file /work/zw18965/.conda/envs/p4env/share/psi4/basis/aug-cc-pvqz-jkfit.gbs 
    atoms 2    entry C          line   178 file /work/zw18965/.conda/envs/p4env/share/psi4/basis/aug-cc-pvqz-jkfit.gbs 

  ==> Pre-Iterations <==

   -------------------------------------------------------
    Irrep   Nso     Nmo     Nalpha   Nbeta   Ndocc  Nsocc
   -------------------------------------------------------
     A'       162     162       0       0       0       0
     A"        96      96       0       0       0       0
   -------------------------------------------------------
    Total     258     258      19      19      19       0
   -------------------------------------------------------

  ==> Integral Setup <==

  ==> DiskDFJK: Density-Fitted J/K Matrices <==

    J tasked:                  Yes
    K tasked:                  Yes
    wK tasked:                 Yes
    Omega:               3.000E-01
    OpenMP threads:             24
    Integrals threads:          24
    Memory [MiB]:           101868
    Algorithm:                Core
    Integral Cache:           NONE
    Schwarz Cutoff:          1E-12
    Fitting Condition:       1E-10

   => Auxiliary Basis Set <=

  Basis Set: (AUG-CC-PV(Q+D)Z AUX)
    Blend: AUG-CC-PVQZ-JKFIT
    Number of shells: 126
    Number of basis function: 510
    Number of Cartesian functions: 692
    Spherical Harmonics?: true
    Max angular momentum: 5

  Cached 100.0% of DFT collocation blocks in 1.102 [GiB].

  Minimum eigenvalue in the overlap matrix is 1.9877697243E-05.
  Using Symmetric Orthogonalization.

  SCF Guess: Superposition of Atomic Densities via on-the-fly atomic UHF.

  ==> Iterations <==

                           Total Energy        Delta E     RMS |[F,P]|

   @DF-RKS iter SAD:  -834.10709241977906   -8.34107e+02   0.00000e+00 
   @DF-RKS iter   1:  -834.46454415436483   -3.57452e-01   1.72260e-03 DIIS
   @DF-RKS iter   2:  -834.48643969088266   -2.18955e-02   9.07252e-04 DIIS
   @DF-RKS iter   3:  -834.49541364098991   -8.97395e-03   3.91101e-04 DIIS
   @DF-RKS iter   4:  -834.49795500422726   -2.54136e-03   5.25896e-05 DIIS
   @DF-RKS iter   5:  -834.49803811886147   -8.31146e-05   1.14707e-05 DIIS
   @DF-RKS iter   6:  -834.49804152347212   -3.40461e-06   3.99674e-06 DIIS
   @DF-RKS iter   7:  -834.49804195227557   -4.28803e-07   3.87146e-07 DIIS
   @DF-RKS iter   8:  -834.49804195639013   -4.11455e-09   2.47433e-07 DIIS
   @DF-RKS iter   9:  -834.49804195767319   -1.28307e-09   4.26843e-08 DIIS
   @DF-RKS iter  10:  -834.49804195771742   -4.42242e-11   2.64305e-09 DIIS
  Energy and wave function converged.


  ==> Post-Iterations <==

    Orbital Energies [Eh]
    ---------------------

    Doubly Occupied:                                                      

       1Ap   -89.236524     2Ap   -89.236452     3Ap   -10.478278  
       4Ap    -8.152096     5Ap    -8.151995     6Ap    -6.061163  
       7Ap    -6.061072     8Ap    -6.057606     1App   -6.057606  
       9Ap    -6.057506     2App   -6.057506    10Ap    -0.984679  
      11Ap    -0.890074    12Ap    -0.616478    13Ap    -0.531606  
       3App   -0.496852    14Ap    -0.496852     4App   -0.359021  
      15Ap    -0.359021  

    Virtual:                                                              

      16Ap    -0.003606     5App   -0.003606    17Ap     0.029425  
      18Ap     0.031745    19Ap     0.054137     6App    0.059553  
      20Ap     0.059553    21Ap     0.070561     7App    0.070561  
      22Ap     0.098242     8App    0.105857    23Ap     0.105857  
      24Ap     0.124406     9App    0.145787    25Ap     0.145787  
      26Ap     0.151350    27Ap     0.185231    28Ap     0.198494  
      10App    0.201892    29Ap     0.201896    30Ap     0.214692  
      11App    0.214692    31Ap     0.215188    12App    0.268774  
      32Ap     0.268774    33Ap     0.297986    13App    0.298006  
      34Ap     0.300929    35Ap     0.332665    14App    0.332665  
      36Ap     0.338394    37Ap     0.349873    15App    0.349873  
      38Ap     0.413585    39Ap     0.427820    16App    0.427820  
      40Ap     0.430306    41Ap     0.431545    17App    0.431547  
      18App    0.456049    42Ap     0.456053    43Ap     0.475890  
      19App    0.476511    44Ap     0.476511    20App    0.492264  
      45Ap     0.492264    46Ap     0.522568    21App    0.537124  
      47Ap     0.537124    22App    0.557816    48Ap     0.557816  
      23App    0.568139    49Ap     0.568141    50Ap     0.631900  
      24App    0.631900    51Ap     0.638119    25App    0.638144  
      52Ap     0.658821    53Ap     0.672521    26App    0.698391  
      54Ap     0.698391    55Ap     0.773542    27App    0.821347  
      56Ap     0.821347    28App    0.832205    57Ap     0.832205  
      58Ap     0.880448    59Ap     0.882432    60Ap     0.922028  
      29App    0.922046    61Ap     0.982134    30App    1.025203  
      62Ap     1.025203    63Ap     1.028601    31App    1.074201  
      64Ap     1.074226    65Ap     1.126323    66Ap     1.140250  
      32App    1.140250    67Ap     1.158825    33App    1.158825  
      34App    1.173680    68Ap     1.173685    69Ap     1.248210  
      35App    1.248210    70Ap     1.323733    36App    1.323733  
      37App    1.343218    71Ap     1.343221    72Ap     1.359242  
      73Ap     1.364109    74Ap     1.364989    38App    1.364989  
      39App    1.368636    75Ap     1.368639    76Ap     1.373938  
      40App    1.373938    77Ap     1.422680    41App    1.422680  
      42App    1.490273    78Ap     1.490273    79Ap     1.506371  
      43App    1.506384    80Ap     1.510704    44App    1.510704  
      45App    1.534452    81Ap     1.534452    82Ap     1.560006  
      46App    1.574613    83Ap     1.574615    84Ap     1.610617  
      85Ap     1.672710    47App    1.672710    48App    1.757718  
      86Ap     1.757718    87Ap     1.783667    88Ap     1.850258  
      49App    1.850307    89Ap     1.852685    50App    1.902567  
      90Ap     1.902605    91Ap     1.979130    51App    1.979130  
      92Ap     1.994895    93Ap     2.003017    94Ap     2.006049  
      52App    2.006049    95Ap     2.075684    53App    2.075699  
      96Ap     2.145422    54App    2.145436    55App    2.188225  
      97Ap     2.188225    56App    2.298531    98Ap     2.298531  
      99Ap     2.377491   100Ap     2.524391   101Ap     2.559085  
      57App    2.559085   102Ap     2.624250    58App    2.624250  
     103Ap     2.671560    59App    2.715194   104Ap     2.715216  
      60App    2.742751   105Ap     2.742766   106Ap     2.811127  
      61App    2.929360   107Ap     2.929372   108Ap     2.961300  
      62App    2.961300   109Ap     2.978501    63App    3.121880  
     110Ap     3.121903   111Ap     3.175709    64App    3.175709  
     112Ap     3.249358   113Ap     3.268308    65App    3.268308  
      66App    3.328902   114Ap     3.328902   115Ap     3.400437  
      67App    3.400437    68App    3.409594   116Ap     3.409594  
     117Ap     3.527085   118Ap     3.569906    69App    3.569907  
     119Ap     3.577339    70App    3.577340    71App    3.616544  
     120Ap     3.616555    72App    3.671603   121Ap     3.671603  
      73App    3.731727   122Ap     3.731727    74App    3.736474  
     123Ap     3.736474    75App    3.762678   124Ap     3.762728  
     125Ap     3.823132   126Ap     3.895344    76App    4.031707  
     127Ap     4.031716    77App    4.070755   128Ap     4.070755  
     129Ap     4.112023    78App    4.293501   130Ap     4.293560  
     131Ap     4.378238    79App    4.378238   132Ap     4.387639  
     133Ap     4.406580    80App    4.706161   134Ap     4.706161  
     135Ap     4.857458    81App    5.664917   136Ap     5.664917  
      82App    5.747321   137Ap     5.747321    83App    5.914484  
     138Ap     5.914484   139Ap     6.037079    84App    6.037079  
      85App    6.159205   140Ap     6.159205    86App    6.187586  
     141Ap     6.187586   142Ap     6.229181    87App    6.229196  
     143Ap     6.349310   144Ap     6.351559    88App    6.351560  
     145Ap     6.375564    89App    6.474210   146Ap     6.474316  
     147Ap     6.515415    90App    6.515415   148Ap     6.829564  
      91App    7.061726   149Ap     7.061726   150Ap     7.643484  
      92App    7.643484   151Ap     8.266040   152Ap     8.704148  
     153Ap     8.785311   154Ap     8.844193    93App    8.844224  
     155Ap     8.888258    94App    8.888290    95App    9.180159  
     156Ap     9.180159    96App    9.272196   157Ap     9.272196  
     158Ap     9.497788   159Ap    10.317454   160Ap    20.116728  
     161Ap    21.457915   162Ap    23.211822  

    Final Occupation by Irrep:
             Ap   App 
    DOCC [    15,    4 ]

  @DF-RKS Final Energy:  -834.49804195771742

   => Energetics <=

    Nuclear Repulsion Energy =            109.0236695711138424
    One-Electron Energy =               -1367.1690819959057990
    Two-Electron Energy =                 466.9250856630372368
    DFT Exchange-Correlation Energy =     -43.4347261078067248
    Empirical Dispersion Energy =           0.0000000000000000
    VV10 Nonlocal Energy =                  0.1570109118439972
    Total Energy =                       -834.4980419577174189

Computation Completed


Properties will be evaluated at   0.000000,   0.000000,   0.000000 [a0]

Properties computed using the SCF density matrix

  Nuclear Dipole Moment: [e a0]
     X:     0.0000      Y:     0.0000      Z:    -0.0000

  Electronic Dipole Moment: [e a0]
     X:     0.0000      Y:     0.0000      Z:     0.0018

  Dipole Moment: [e a0]
     X:     0.0000      Y:     0.0000      Z:     0.0018     Total:     0.0018

  Dipole Moment: [D]
     X:     0.0000      Y:     0.0000      Z:     0.0047     Total:     0.0047


*** tstop() called on bp1-compute00191.data.bp.acrc.priv at Mon Apr 19 15:55:21 2021
Module time:
	user time   =     142.26 seconds =       2.37 minutes
	system time =       3.53 seconds =       0.06 minutes
	total time  =          7 seconds =       0.12 minutes
Total time:
	user time   =     558.15 seconds =       9.30 minutes
	system time =      20.47 seconds =       0.34 minutes
	total time  =         27 seconds =       0.45 minutes

  //>>>>>>>>>>>>>>>>>>>>>>>>>>>>>>>>>>>//
  //    Loading displacement 5 of 7    //
  //<<<<<<<<<<<<<<<<<<<<<<<<<<<<<<<<<<<//

*** tstart() called on bp1-compute00191.data.bp.acrc.priv
*** at Mon Apr 19 15:55:21 2021

   => Loading Basis Set <=

    Name: AUG-CC-PV(Q+D)Z
    Role: ORBITAL
    Keyword: BASIS
    atoms 1, 3 entry S          line  1148 file /work/zw18965/.conda/envs/p4env/share/psi4/basis/aug-cc-pv_qpd_z.gbs 
    atoms 2    entry C          line   319 file /work/zw18965/.conda/envs/p4env/share/psi4/basis/aug-cc-pv_qpd_z.gbs 


         ---------------------------------------------------------
                                   SCF
               by Justin Turney, Rob Parrish, Andy Simmonett
                          and Daniel G. A. Smith
                              RKS Reference
                       24 Threads, 137329 MiB Core
         ---------------------------------------------------------

  ==> Geometry <==

    Molecular point group: cs
    Full point group: C_inf_v

    Geometry (in Angstrom), charge = 0, multiplicity = 1:

       Center              X                  Y                   Z               Mass       
    ------------   -----------------  -----------------  -----------------  -----------------
         S           -0.000010437241     0.000000000000     1.553874090219    31.972071174400
         C           -0.000010448249     0.000000000000    -0.000259003739    12.000000000000
         S            0.000014358757     0.000000000000    -1.553776878973    31.972071174400

  Running in cs symmetry.

  Rotational constants: A = ************  B =      0.10919  C =      0.10919 [cm^-1]
  Rotational constants: A = ************  B =   3273.49702  C =   3273.49702 [MHz]
  Nuclear repulsion =  108.980521343271349

  Charge       = 0
  Multiplicity = 1
  Electrons    = 38
  Nalpha       = 19
  Nbeta        = 19

  ==> Algorithm <==

  SCF Algorithm Type is DF.
  DIIS enabled.
  MOM disabled.
  Fractional occupation disabled.
  Guess Type is SAD.
  Energy threshold   = 1.00e-08
  Density threshold  = 1.00e-08
  Integral threshold = 0.00e+00

  ==> Primary Basis <==

  Basis Set: AUG-CC-PV(Q+D)Z
    Blend: AUG-CC-PV(Q+D)Z
    Number of shells: 66
    Number of basis function: 258
    Number of Cartesian functions: 335
    Spherical Harmonics?: true
    Max angular momentum: 4

  ==> DFT Potential <==

   => Composite Functional: WB97M-V <= 

    wB97M-V Hyb-GGA Exchange-Correlation Functional

    N. Mardirossian and M. Head-Gordon, J. Chem. Phys. 144, 214110 (2016)

    Deriv               =              1
    GGA                 =           TRUE
    Meta                =           TRUE

    Exchange Hybrid     =           TRUE
    MP2 Hybrid          =          FALSE

   => Exchange-Correlation Functionals <=

    1.0000   wB97M-V exchange-correlation functional

   => Exact (HF) Exchange <=

    0.8500            HF,LR [omega = 0.3000]
    0.1500               HF 

   => VV10 Non-Local Parameters <=

    VV10 B              =     6.0000E+00
    VV10 C              =     1.0000E-02

   => Molecular Quadrature <=

    Radial Scheme          =       TREUTLER
    Pruning Scheme         =           FLAT
    Nuclear Scheme         =       TREUTLER

    BS radius alpha        =              1
    Pruning alpha          =              1
    Radial Points          =             75
    Spherical Points       =            302
    Total Points           =          67950
    Total Blocks           =            612
    Max Points             =            255
    Max Functions          =            258

   => Loading Basis Set <=

    Name: (AUG-CC-PV(Q+D)Z AUX)
    Role: JKFIT
    Keyword: DF_BASIS_SCF
    atoms 1, 3 entry S          line   810 file /work/zw18965/.conda/envs/p4env/share/psi4/basis/aug-cc-pvqz-jkfit.gbs 
    atoms 2    entry C          line   178 file /work/zw18965/.conda/envs/p4env/share/psi4/basis/aug-cc-pvqz-jkfit.gbs 

  ==> Pre-Iterations <==

   -------------------------------------------------------
    Irrep   Nso     Nmo     Nalpha   Nbeta   Ndocc  Nsocc
   -------------------------------------------------------
     A'       162     162       0       0       0       0
     A"        96      96       0       0       0       0
   -------------------------------------------------------
    Total     258     258      19      19      19       0
   -------------------------------------------------------

  ==> Integral Setup <==

  ==> DiskDFJK: Density-Fitted J/K Matrices <==

    J tasked:                  Yes
    K tasked:                  Yes
    wK tasked:                 Yes
    Omega:               3.000E-01
    OpenMP threads:             24
    Integrals threads:          24
    Memory [MiB]:           101869
    Algorithm:                Core
    Integral Cache:           NONE
    Schwarz Cutoff:          1E-12
    Fitting Condition:       1E-10

   => Auxiliary Basis Set <=

  Basis Set: (AUG-CC-PV(Q+D)Z AUX)
    Blend: AUG-CC-PVQZ-JKFIT
    Number of shells: 126
    Number of basis function: 510
    Number of Cartesian functions: 692
    Spherical Harmonics?: true
    Max angular momentum: 5

  Cached 100.0% of DFT collocation blocks in 1.101 [GiB].

  Minimum eigenvalue in the overlap matrix is 1.9902956755E-05.
  Using Symmetric Orthogonalization.

  SCF Guess: Superposition of Atomic Densities via on-the-fly atomic UHF.

  ==> Iterations <==

                           Total Energy        Delta E     RMS |[F,P]|

   @DF-RKS iter SAD:  -834.10524651000003   -8.34105e+02   0.00000e+00 
   @DF-RKS iter   1:  -834.46462354094206   -3.59377e-01   1.72057e-03 DIIS
   @DF-RKS iter   2:  -834.48653158849402   -2.19080e-02   9.03705e-04 DIIS
   @DF-RKS iter   3:  -834.49541501544036   -8.88343e-03   3.89575e-04 DIIS
   @DF-RKS iter   4:  -834.49793843120699   -2.52342e-03   5.27909e-05 DIIS
   @DF-RKS iter   5:  -834.49802195337247   -8.35222e-05   1.14737e-05 DIIS
   @DF-RKS iter   6:  -834.49802536473908   -3.41137e-06   3.99997e-06 DIIS
   @DF-RKS iter   7:  -834.49802579432696   -4.29588e-07   3.87498e-07 DIIS
   @DF-RKS iter   8:  -834.49802579843504   -4.10807e-09   2.48433e-07 DIIS
   @DF-RKS iter   9:  -834.49802579972891   -1.29387e-09   4.26063e-08 DIIS
   @DF-RKS iter  10:  -834.49802579977222   -4.33147e-11   2.64212e-09 DIIS
  Energy and wave function converged.


  ==> Post-Iterations <==

    Orbital Energies [Eh]
    ---------------------

    Doubly Occupied:                                                      

       1Ap   -89.236629     2Ap   -89.236557     3Ap   -10.478484  
       4Ap    -8.152168     5Ap    -8.152068     6Ap    -6.061241  
       7Ap    -6.061149     8Ap    -6.057679     1App   -6.057679  
       2App   -6.057579     9Ap    -6.057579    10Ap    -0.984506  
      11Ap    -0.889965    12Ap    -0.616558    13Ap    -0.531578  
       3App   -0.496724    14Ap    -0.496724     4App   -0.359036  
      15Ap    -0.359036  

    Virtual:                                                              

      16Ap    -0.003707     5App   -0.003707    17Ap     0.029417  
      18Ap     0.031740    19Ap     0.054134     6App    0.059529  
      20Ap     0.059529     7App    0.070566    21Ap     0.070566  
      22Ap     0.098237    23Ap     0.105860     8App    0.105860  
      24Ap     0.124257     9App    0.145794    25Ap     0.145795  
      26Ap     0.151346    27Ap     0.185187    28Ap     0.198467  
      10App    0.201870    29Ap     0.201874    30Ap     0.214674  
      11App    0.214674    31Ap     0.215083    12App    0.268765  
      32Ap     0.268765    33Ap     0.297996    13App    0.298016  
      34Ap     0.300915    35Ap     0.332661    14App    0.332661  
      36Ap     0.338344    15App    0.349885    37Ap     0.349885  
      38Ap     0.413623    39Ap     0.427772    16App    0.427772  
      40Ap     0.430272    41Ap     0.431548    17App    0.431550  
      18App    0.456033    42Ap     0.456036    43Ap     0.475864  
      44Ap     0.476538    19App    0.476538    20App    0.492178  
      45Ap     0.492178    46Ap     0.522456    47Ap     0.537086  
      21App    0.537086    22App    0.557707    48Ap     0.557707  
      23App    0.568099    49Ap     0.568102    50Ap     0.631878  
      24App    0.631878    51Ap     0.638133    25App    0.638158  
      52Ap     0.658771    53Ap     0.672462    26App    0.698329  
      54Ap     0.698329    55Ap     0.773409    27App    0.821231  
      56Ap     0.821231    57Ap     0.832113    28App    0.832113  
      58Ap     0.880322    59Ap     0.882398    60Ap     0.921807  
      29App    0.921824    61Ap     0.982022    30App    1.025141  
      62Ap     1.025141    63Ap     1.028110    31App    1.074067  
      64Ap     1.074092    65Ap     1.126329    66Ap     1.140297  
      32App    1.140297    33App    1.158815    67Ap     1.158815  
      34App    1.173687    68Ap     1.173692    69Ap     1.247918  
      35App    1.247918    70Ap     1.323814    36App    1.323814  
      37App    1.343244    71Ap     1.343248    72Ap     1.359287  
      73Ap     1.363574    74Ap     1.365004    38App    1.365004  
      39App    1.368608    75Ap     1.368611    40App    1.373891  
      76Ap     1.373891    41App    1.422586    77Ap     1.422586  
      42App    1.490068    78Ap     1.490068    79Ap     1.506400  
      43App    1.506413    80Ap     1.510554    44App    1.510554  
      45App    1.534366    81Ap     1.534366    82Ap     1.559780  
      46App    1.574330    83Ap     1.574331    84Ap     1.610412  
      85Ap     1.672462    47App    1.672462    48App    1.757291  
      86Ap     1.757291    87Ap     1.783242    88Ap     1.850157  
      49App    1.850206    89Ap     1.852704    50App    1.902532  
      90Ap     1.902570    51App    1.979075    91Ap     1.979075  
      92Ap     1.995180    93Ap     2.003214    94Ap     2.005635  
      52App    2.005635    95Ap     2.075522    53App    2.075537  
      96Ap     2.145002    54App    2.145017    55App    2.188041  
      97Ap     2.188041    56App    2.298273    98Ap     2.298273  
      99Ap     2.376988   100Ap     2.523572   101Ap     2.558644  
      57App    2.558644   102Ap     2.624127    58App    2.624127  
     103Ap     2.671315    59App    2.714730   104Ap     2.714752  
      60App    2.742681   105Ap     2.742696   106Ap     2.810903  
      61App    2.928972   107Ap     2.928984   108Ap     2.960884  
      62App    2.960884   109Ap     2.977502    63App    3.121930  
     110Ap     3.121953    64App    3.175664   111Ap     3.175664  
     112Ap     3.249334    65App    3.267325   113Ap     3.267325  
     114Ap     3.328568    66App    3.328568   115Ap     3.400411  
      67App    3.400411   116Ap     3.409596    68App    3.409596  
     117Ap     3.526274   118Ap     3.569918    69App    3.569919  
     119Ap     3.577309    70App    3.577310    71App    3.616050  
     120Ap     3.616060   121Ap     3.671183    72App    3.671183  
      73App    3.731523   122Ap     3.731523    74App    3.735883  
     123Ap     3.735883    75App    3.762433   124Ap     3.762483  
     125Ap     3.823000   126Ap     3.894236    76App    4.031002  
     127Ap     4.031012    77App    4.070895   128Ap     4.070895  
     129Ap     4.112186    78App    4.293198   130Ap     4.293258  
     131Ap     4.376818    79App    4.376818   132Ap     4.386242  
     133Ap     4.404651   134Ap     4.705870    80App    4.705870  
     135Ap     4.859186   136Ap     5.664810    81App    5.664811  
      82App    5.745740   137Ap     5.745740    83App    5.914113  
     138Ap     5.914113    84App    6.036389   139Ap     6.036389  
      85App    6.158757   140Ap     6.158757    86App    6.187451  
     141Ap     6.187451   142Ap     6.228362    87App    6.228377  
     143Ap     6.348612   144Ap     6.350908    88App    6.350909  
     145Ap     6.375309    89App    6.473663   146Ap     6.473770  
      90App    6.515081   147Ap     6.515081   148Ap     6.826020  
      91App    7.061407   149Ap     7.061407   150Ap     7.641209  
      92App    7.641209   151Ap     8.263723   152Ap     8.704499  
     153Ap     8.783901   154Ap     8.844109    93App    8.844141  
     155Ap     8.888087    94App    8.888118    95App    9.178688  
     156Ap     9.178688   157Ap     9.271902    96App    9.271902  
     158Ap     9.496595   159Ap    10.314348   160Ap    20.111872  
     161Ap    21.455344   162Ap    23.205822  

    Final Occupation by Irrep:
             Ap   App 
    DOCC [    15,    4 ]

  @DF-RKS Final Energy:  -834.49802579977222

   => Energetics <=

    Nuclear Repulsion Energy =            108.9805213432713487
    One-Electron Energy =               -1367.0820242133288502
    Two-Electron Energy =                 466.8805471302403021
    DFT Exchange-Correlation Energy =     -43.4340821173667422
    Empirical Dispersion Energy =           0.0000000000000000
    VV10 Nonlocal Energy =                  0.1570120574115820
    Total Energy =                       -834.4980257997722219

Computation Completed


Properties will be evaluated at   0.000000,   0.000000,   0.000000 [a0]

Properties computed using the SCF density matrix

  Nuclear Dipole Moment: [e a0]
     X:     0.0000      Y:     0.0000      Z:     0.0000

  Electronic Dipole Moment: [e a0]
     X:     0.0000      Y:     0.0000      Z:    -0.0018

  Dipole Moment: [e a0]
     X:     0.0000      Y:     0.0000      Z:    -0.0018     Total:     0.0018

  Dipole Moment: [D]
     X:     0.0000      Y:     0.0000      Z:    -0.0047     Total:     0.0047


*** tstop() called on bp1-compute00191.data.bp.acrc.priv at Mon Apr 19 15:55:27 2021
Module time:
	user time   =     142.14 seconds =       2.37 minutes
	system time =       3.33 seconds =       0.06 minutes
	total time  =          6 seconds =       0.10 minutes
Total time:
	user time   =     700.43 seconds =      11.67 minutes
	system time =      23.81 seconds =       0.40 minutes
	total time  =         33 seconds =       0.55 minutes

  //>>>>>>>>>>>>>>>>>>>>>>>>>>>>>>>>>>>//
  //    Loading displacement 6 of 7    //
  //<<<<<<<<<<<<<<<<<<<<<<<<<<<<<<<<<<<//

*** tstart() called on bp1-compute00191.data.bp.acrc.priv
*** at Mon Apr 19 15:55:27 2021

   => Loading Basis Set <=

    Name: AUG-CC-PV(Q+D)Z
    Role: ORBITAL
    Keyword: BASIS
    atoms 1, 3 entry S          line  1148 file /work/zw18965/.conda/envs/p4env/share/psi4/basis/aug-cc-pv_qpd_z.gbs 
    atoms 2    entry C          line   319 file /work/zw18965/.conda/envs/p4env/share/psi4/basis/aug-cc-pv_qpd_z.gbs 


         ---------------------------------------------------------
                                   SCF
               by Justin Turney, Rob Parrish, Andy Simmonett
                          and Daniel G. A. Smith
                              RKS Reference
                       24 Threads, 137329 MiB Core
         ---------------------------------------------------------

  ==> Geometry <==

    Molecular point group: cs
    Full point group: C_inf_v

    Geometry (in Angstrom), charge = 0, multiplicity = 1:

       Center              X                  Y                   Z               Mass       
    ------------   -----------------  -----------------  -----------------  -----------------
         S           -0.000010437241     0.000000000000     1.553518027034    31.972071174400
         C           -0.000010447635     0.000000000000     0.000651184168    12.000000000000
         S            0.000014358527     0.000000000000    -1.553762434410    31.972071174400

  Running in cs symmetry.

  Rotational constants: A = ************  B =      0.10922  C =      0.10922 [cm^-1]
  Rotational constants: A = ************  B =   3274.27761  C =   3274.27761 [MHz]
  Nuclear repulsion =  108.993529669098905

  Charge       = 0
  Multiplicity = 1
  Electrons    = 38
  Nalpha       = 19
  Nbeta        = 19

  ==> Algorithm <==

  SCF Algorithm Type is DF.
  DIIS enabled.
  MOM disabled.
  Fractional occupation disabled.
  Guess Type is SAD.
  Energy threshold   = 1.00e-08
  Density threshold  = 1.00e-08
  Integral threshold = 0.00e+00

  ==> Primary Basis <==

  Basis Set: AUG-CC-PV(Q+D)Z
    Blend: AUG-CC-PV(Q+D)Z
    Number of shells: 66
    Number of basis function: 258
    Number of Cartesian functions: 335
    Spherical Harmonics?: true
    Max angular momentum: 4

  ==> DFT Potential <==

   => Composite Functional: WB97M-V <= 

    wB97M-V Hyb-GGA Exchange-Correlation Functional

    N. Mardirossian and M. Head-Gordon, J. Chem. Phys. 144, 214110 (2016)

    Deriv               =              1
    GGA                 =           TRUE
    Meta                =           TRUE

    Exchange Hybrid     =           TRUE
    MP2 Hybrid          =          FALSE

   => Exchange-Correlation Functionals <=

    1.0000   wB97M-V exchange-correlation functional

   => Exact (HF) Exchange <=

    0.8500            HF,LR [omega = 0.3000]
    0.1500               HF 

   => VV10 Non-Local Parameters <=

    VV10 B              =     6.0000E+00
    VV10 C              =     1.0000E-02

   => Molecular Quadrature <=

    Radial Scheme          =       TREUTLER
    Pruning Scheme         =           FLAT
    Nuclear Scheme         =       TREUTLER

    BS radius alpha        =              1
    Pruning alpha          =              1
    Radial Points          =             75
    Spherical Points       =            302
    Total Points           =          67950
    Total Blocks           =            608
    Max Points             =            255
    Max Functions          =            258

   => Loading Basis Set <=

    Name: (AUG-CC-PV(Q+D)Z AUX)
    Role: JKFIT
    Keyword: DF_BASIS_SCF
    atoms 1, 3 entry S          line   810 file /work/zw18965/.conda/envs/p4env/share/psi4/basis/aug-cc-pvqz-jkfit.gbs 
    atoms 2    entry C          line   178 file /work/zw18965/.conda/envs/p4env/share/psi4/basis/aug-cc-pvqz-jkfit.gbs 

  ==> Pre-Iterations <==

   -------------------------------------------------------
    Irrep   Nso     Nmo     Nalpha   Nbeta   Ndocc  Nsocc
   -------------------------------------------------------
     A'       162     162       0       0       0       0
     A"        96      96       0       0       0       0
   -------------------------------------------------------
    Total     258     258      19      19      19       0
   -------------------------------------------------------

  ==> Integral Setup <==

  ==> DiskDFJK: Density-Fitted J/K Matrices <==

    J tasked:                  Yes
    K tasked:                  Yes
    wK tasked:                 Yes
    Omega:               3.000E-01
    OpenMP threads:             24
    Integrals threads:          24
    Memory [MiB]:           101868
    Algorithm:                Core
    Integral Cache:           NONE
    Schwarz Cutoff:          1E-12
    Fitting Condition:       1E-10

   => Auxiliary Basis Set <=

  Basis Set: (AUG-CC-PV(Q+D)Z AUX)
    Blend: AUG-CC-PVQZ-JKFIT
    Number of shells: 126
    Number of basis function: 510
    Number of Cartesian functions: 692
    Spherical Harmonics?: true
    Max angular momentum: 5

  Cached 100.0% of DFT collocation blocks in 1.102 [GiB].

  Minimum eigenvalue in the overlap matrix is 1.9893043573E-05.
  Using Symmetric Orthogonalization.

  SCF Guess: Superposition of Atomic Densities via on-the-fly atomic UHF.

  ==> Iterations <==

                           Total Energy        Delta E     RMS |[F,P]|

   @DF-RKS iter SAD:  -834.10580376710573   -8.34106e+02   0.00000e+00 
   @DF-RKS iter   1:  -834.46459855218541   -3.58795e-01   1.72119e-03 DIIS
   @DF-RKS iter   2:  -834.48650278738751   -2.19042e-02   9.04787e-04 DIIS
   @DF-RKS iter   3:  -834.49541387664863   -8.91109e-03   3.90039e-04 DIIS
   @DF-RKS iter   4:  -834.49794276201010   -2.52889e-03   5.27307e-05 DIIS
   @DF-RKS iter   5:  -834.49802615960209   -8.33976e-05   1.14767e-05 DIIS
   @DF-RKS iter   6:  -834.49802956897861   -3.40938e-06   4.01269e-06 DIIS
   @DF-RKS iter   7:  -834.49802999647306   -4.27494e-07   5.87497e-07 DIIS
   @DF-RKS iter   8:  -834.49803000267275   -6.19968e-09   3.93472e-07 DIIS
   @DF-RKS iter   9:  -834.49803000607335   -3.40060e-09   3.44571e-08 DIIS
   @DF-RKS iter  10:  -834.49803000610507   -3.17186e-11   2.62068e-09 DIIS
  Energy and wave function converged.


  ==> Post-Iterations <==

    Orbital Energies [Eh]
    ---------------------

    Doubly Occupied:                                                      

       1Ap   -89.236652     2Ap   -89.236470     3Ap   -10.478421  
       4Ap    -8.152220     5Ap    -8.151972     6Ap    -6.061286  
       7Ap    -6.061057     1App   -6.057732     8Ap    -6.057732  
       2App   -6.057481     9Ap    -6.057481    10Ap    -0.984559  
      11Ap    -0.889997    12Ap    -0.616534    13Ap    -0.531586  
       3App   -0.496763    14Ap    -0.496763    15Ap    -0.359031  
       4App   -0.359031  

    Virtual:                                                              

      16Ap    -0.003676     5App   -0.003676    17Ap     0.029419  
      18Ap     0.031742    19Ap     0.054135     6App    0.059536  
      20Ap     0.059536     7App    0.070564    21Ap     0.070564  
      22Ap     0.098238    23Ap     0.105859     8App    0.105859  
      24Ap     0.124301     9App    0.145792    25Ap     0.145792  
      26Ap     0.151347    27Ap     0.185200    28Ap     0.198475  
      10App    0.201877    29Ap     0.201881    30Ap     0.214679  
      11App    0.214679    31Ap     0.215115    32Ap     0.268768  
      12App    0.268768    33Ap     0.297993    13App    0.298013  
      34Ap     0.300919    35Ap     0.332662    14App    0.332662  
      36Ap     0.338359    37Ap     0.349881    15App    0.349881  
      38Ap     0.413611    16App    0.427787    39Ap     0.427787  
[...]
    Spherical Harmonics?: true
    Max angular momentum: 4

  ==> DFT Potential <==

   => Composite Functional: WB97M-V <= 

    wB97M-V Hyb-GGA Exchange-Correlation Functional

    N. Mardirossian and M. Head-Gordon, J. Chem. Phys. 144, 214110 (2016)

    Deriv               =              1
    GGA                 =           TRUE
    Meta                =           TRUE

    Exchange Hybrid     =           TRUE
    MP2 Hybrid          =          FALSE

   => Exchange-Correlation Functionals <=

    1.0000   wB97M-V exchange-correlation functional

   => Exact (HF) Exchange <=

    0.8500            HF,LR [omega = 0.3000]
    0.1500               HF 

   => VV10 Non-Local Parameters <=

    VV10 B              =     6.0000E+00
    VV10 C              =     1.0000E-02

   => Molecular Quadrature <=

    Radial Scheme          =       TREUTLER
    Pruning Scheme         =           FLAT
    Nuclear Scheme         =       TREUTLER

    BS radius alpha        =              1
    Pruning alpha          =              1
    Radial Points          =             75
    Spherical Points       =            302
    Total Points           =          67950
    Total Blocks           =            613
    Max Points             =            254
    Max Functions          =            258

   => Loading Basis Set <=

    Name: (AUG-CC-PV(Q+D)Z AUX)
    Role: JKFIT
    Keyword: DF_BASIS_SCF
    atoms 1, 3 entry S          line   810 file /work/zw18965/.conda/envs/p4env/share/psi4/basis/aug-cc-pvqz-jkfit.gbs 
    atoms 2    entry C          line   178 file /work/zw18965/.conda/envs/p4env/share/psi4/basis/aug-cc-pvqz-jkfit.gbs 

  ==> Pre-Iterations <==

   -------------------------------------------------------
    Irrep   Nso     Nmo     Nalpha   Nbeta   Ndocc  Nsocc
   -------------------------------------------------------
     A'       162     162       0       0       0       0
     A"        96      96       0       0       0       0
   -------------------------------------------------------
    Total     258     258      19      19      19       0
   -------------------------------------------------------

  ==> Integral Setup <==

  ==> DiskDFJK: Density-Fitted J/K Matrices <==

    J tasked:                  Yes
    K tasked:                  Yes
    wK tasked:                 Yes
    Omega:               3.000E-01
    OpenMP threads:             24
    Integrals threads:          24
    Memory [MiB]:           101868
    Algorithm:                Core
    Integral Cache:           NONE
    Schwarz Cutoff:          1E-12
    Fitting Condition:       1E-10

   => Auxiliary Basis Set <=

  Basis Set: (AUG-CC-PV(Q+D)Z AUX)
    Blend: AUG-CC-PVQZ-JKFIT
    Number of shells: 126
    Number of basis function: 510
    Number of Cartesian functions: 692
    Spherical Harmonics?: true
    Max angular momentum: 5

  Cached 100.0% of DFT collocation blocks in 1.101 [GiB].

  Minimum eigenvalue in the overlap matrix is 1.9611856109E-05.
  Using Symmetric Orthogonalization.

  SCF Guess: Superposition of Atomic Densities via on-the-fly atomic UHF.

  ==> Iterations <==

                           Total Energy        Delta E     RMS |[F,P]|

   @DF-RKS iter SAD:  -834.12678245265988   -8.34127e+02   0.00000e+00 
   @DF-RKS iter   1:  -834.46356869110491   -3.36786e-01   1.74474e-03 DIIS
   @DF-RKS iter   2:  -834.48532311203360   -2.17544e-02   9.45610e-04 DIIS
   @DF-RKS iter   3:  -834.49531468041073   -9.99157e-03   4.06259e-04 DIIS
   @DF-RKS iter   4:  -834.49803560735791   -2.72093e-03   5.05930e-05 DIIS
   @DF-RKS iter   5:  -834.49811467553127   -7.90682e-05   1.14341e-05 DIIS
   @DF-RKS iter   6:  -834.49811800805071   -3.33252e-06   3.96493e-06 DIIS
   @DF-RKS iter   7:  -834.49811842801819   -4.19967e-07   4.37826e-07 DIIS
   @DF-RKS iter   8:  -834.49811843220255   -4.18436e-09   3.17120e-07 DIIS
   @DF-RKS iter   9:  -834.49811843434372   -2.14118e-09   3.80073e-08 DIIS
   @DF-RKS iter  10:  -834.49811843438113   -3.74030e-11   2.64143e-09 DIIS
   @DF-RKS iter  11:  -834.49811843438067    4.54747e-13   3.39909e-10 DIIS
   @DF-RKS iter  12:  -834.49811843438090   -2.27374e-13   5.83966e-11 DIIS
  Energy and wave function converged.


  ==> Post-Iterations <==

    Orbital Energies [Eh]
    ---------------------

    Doubly Occupied:                                                      

       1Ap   -89.235417     2Ap   -89.235308     3Ap   -10.476080  
       4Ap    -8.151345     5Ap    -8.151194     6Ap    -6.060363  
       7Ap    -6.060224     1App   -6.056849     8Ap    -6.056849  
       9Ap    -6.056698     2App   -6.056698    10Ap    -0.986515  
      11Ap    -0.891242    12Ap    -0.615631    13Ap    -0.531893  
      14Ap    -0.498215     3App   -0.498215     4App   -0.358864  
      15Ap    -0.358864  

    Virtual:                                                              

      16Ap    -0.002538     5App   -0.002538    17Ap     0.029496  
      18Ap     0.031796    19Ap     0.054162    20Ap     0.059810  
       6App    0.059810     7App    0.070505    21Ap     0.070505  
      22Ap     0.098291     8App    0.105828    23Ap     0.105828  
      24Ap     0.125954     9App    0.145705    25Ap     0.145706  
      26Ap     0.151394    27Ap     0.185678    28Ap     0.198781  
      10App    0.202125    29Ap     0.202128    11App    0.214895  
      30Ap     0.214895    31Ap     0.216352    12App    0.268864  
      32Ap     0.268864    33Ap     0.297875    13App    0.297895  
      34Ap     0.301087    14App    0.332707    35Ap     0.332707  
      36Ap     0.338924    15App    0.349757    37Ap     0.349757  
      38Ap     0.413203    16App    0.428328    39Ap     0.428328  
      40Ap     0.430670    41Ap     0.431513    17App    0.431515  
      18App    0.456230    42Ap     0.456233    43Ap     0.476171  
      44Ap     0.476222    19App    0.476222    20App    0.493179  
      45Ap     0.493179    46Ap     0.523753    47Ap     0.537524  
      21App    0.537524    22App    0.558976    48Ap     0.558976  
      23App    0.568563    49Ap     0.568566    24App    0.632152  
      50Ap     0.632152    51Ap     0.637972    25App    0.637996  
      52Ap     0.659360    53Ap     0.673149    26App    0.699050  
      54Ap     0.699050    55Ap     0.774956    27App    0.822597  
      56Ap     0.822597    57Ap     0.833187    28App    0.833187  
      58Ap     0.881809    59Ap     0.882779    60Ap     0.924383  
      29App    0.924401    61Ap     0.983347    30App    1.025886  
      62Ap     1.025886    63Ap     1.033865    31App    1.075629  
      64Ap     1.075654    65Ap     1.126242    32App    1.139736  
      66Ap     1.139736    67Ap     1.158920    33App    1.158920  
      34App    1.173611    68Ap     1.173617    35App    1.251352  
      69Ap     1.251352    70Ap     1.322834    36App    1.322834  
      37App    1.342931    71Ap     1.342934    72Ap     1.358816  
      38App    1.364838    73Ap     1.364838    39App    1.368935  
      74Ap     1.368939    75Ap     1.369908    40App    1.374444  
      76Ap     1.374444    41App    1.423687    77Ap     1.423687  
      42App    1.492361    78Ap     1.492361    79Ap     1.506045  
      43App    1.506058    44App    1.512306    80Ap     1.512306  
      45App    1.535455    81Ap     1.535455    82Ap     1.562407  
      46App    1.577646    83Ap     1.577649    84Ap     1.612838  
      85Ap     1.675340    47App    1.675340    48App    1.762285  
      86Ap     1.762285    87Ap     1.788172    88Ap     1.851243  
      49App    1.851292    89Ap     1.852533    50App    1.902945  
      90Ap     1.902982    51App    1.979793    91Ap     1.979793  
      92Ap     1.991849    93Ap     2.000985    52App    2.010461  
      94Ap     2.010461    95Ap     2.077418    53App    2.077432  
      96Ap     2.149964    54App    2.149978    97Ap     2.190207  
      55App    2.190207    98Ap     2.301201    56App    2.301201  
      99Ap     2.382704   100Ap     2.533126   101Ap     2.563793  
      57App    2.563793   102Ap     2.625541    58App    2.625541  
     103Ap     2.674190    59App    2.720041   104Ap     2.720061  
      60App    2.743502   105Ap     2.743516   106Ap     2.813557  
      61App    2.933597   107Ap     2.933608   108Ap     2.965716  
      62App    2.965716   109Ap     2.989312    63App    3.121255  
     110Ap     3.121279    64App    3.176114   111Ap     3.176114  
     112Ap     3.249584   113Ap     3.278927    65App    3.278927  
     114Ap     3.332487    66App    3.332487   115Ap     3.400707  
      67App    3.400707   116Ap     3.409577    68App    3.409577  
     117Ap     3.535440   118Ap     3.569774    69App    3.569777  
     119Ap     3.577661    70App    3.577664    71App    3.621860  
     120Ap     3.621873    72App    3.676131   121Ap     3.676131  
      73App    3.733918   122Ap     3.733918    74App    3.742847  
     123Ap     3.742847    75App    3.765205   124Ap     3.765259  
     125Ap     3.824289   126Ap     3.907329    76App    4.039345  
     127Ap     4.039353    77App    4.069302   128Ap     4.069302  
     129Ap     4.110362    78App    4.296609   130Ap     4.296669  
     131Ap     4.393447    79App    4.393447   132Ap     4.402503  
     133Ap     4.428187   134Ap     4.709111    80App    4.709111  
     135Ap     4.838636    81App    5.666050   136Ap     5.666058  
      82App    5.764040   137Ap     5.764040    83App    5.918452  
     138Ap     5.918452   139Ap     6.044374    84App    6.044374  
      85App    6.164327   140Ap     6.164327    86App    6.189027  
     141Ap     6.189027   142Ap     6.237966    87App    6.237979  
     143Ap     6.356770   144Ap     6.358665    88App    6.358666  
     145Ap     6.378222    89App    6.480088   146Ap     6.480190  
      90App    6.519021   147Ap     6.519021   148Ap     6.868314  
      91App    7.065124   149Ap     7.065124   150Ap     7.667470  
      92App    7.667470   151Ap     8.289150   152Ap     8.700337  
     153Ap     8.800675   154Ap     8.845095    93App    8.845129  
     155Ap     8.890068    94App    8.890101    95App    9.196395  
     156Ap     9.196395   157Ap     9.275339    96App    9.275339  
     158Ap     9.511375   159Ap    10.349463   160Ap    20.171002  
     161Ap    21.486457   162Ap    23.275753  

    Final Occupation by Irrep:
             Ap   App 
    DOCC [    15,    4 ]

  @DF-RKS Final Energy:  -834.49811843438090

   => Energetics <=

    Nuclear Repulsion Energy =            109.4851078717937298
    One-Electron Energy =               -1368.0999417764305690
    Two-Electron Energy =                 467.4013499179341693
    DFT Exchange-Correlation Energy =     -43.4416331983703401
    Empirical Dispersion Energy =           0.0000000000000000
    VV10 Nonlocal Energy =                  0.1569987506919341
    Total Energy =                       -834.4981184343810128

Computation Completed


Properties will be evaluated at   0.000000,   0.000000,   0.000000 [a0]

Properties computed using the SCF density matrix

  Nuclear Dipole Moment: [e a0]
     X:    -0.0000      Y:     0.0000      Z:     0.0000

  Electronic Dipole Moment: [e a0]
     X:    -0.0000      Y:     0.0000      Z:    -0.0028

  Dipole Moment: [e a0]
     X:    -0.0000      Y:     0.0000      Z:    -0.0028     Total:     0.0028

  Dipole Moment: [D]
     X:    -0.0000      Y:     0.0000      Z:    -0.0071     Total:     0.0071


*** tstop() called on bp1-compute00191.data.bp.acrc.priv at Mon Apr 19 15:58:54 2021
Module time:
	user time   =     150.15 seconds =       2.50 minutes
	system time =       2.45 seconds =       0.04 minutes
	total time  =          7 seconds =       0.12 minutes
Total time:
	user time   =    5288.00 seconds =      88.13 minutes
	system time =     109.43 seconds =       1.82 minutes
	total time  =        240 seconds =       4.00 minutes

         ----------------------------------------------------------
                                   FINDIF
                     R. A. King and Jonathon Misiewicz
         ---------------------------------------------------------

  Computing second-derivative from energies using projected, 
  symmetry-adapted, cartesian coordinates.

  13 energies passed in, including the reference geometry.
    Using 3-point formula.
    Energy without displacement: -834.4981191925
    Check energies below for precision!
    0: -1        :      -834.4981190987
    0: 1         :      -834.4981190939
    1: -1        :      -834.4981188508
    1: 1         :      -834.4981188375
    2: -1        :      -834.4981181463
    2: 1         :      -834.4981181526
    0: 1, 1: 1   :      -834.4981187676
    0: -1, 1: -1 :      -834.4981187620
    0: 1, 2: 1   :      -834.4981180484
    0: -1, 2: -1 :      -834.4981180654
    1: 1, 2: 1   :      -834.4981184356
    1: -1, 2: -1 :      -834.4981184344

-------------------------------------------------------------


  ==> Harmonic Vibrational Analysis <==

  non-mass-weighted Hessian:       Symmetric? True   Hermitian? True   Lin Dep Dim?  6 (0)
  projection of translations (True) and rotations (True) removed 5 degrees of freedom (6)
  total projector:                 Symmetric? True   Hermitian? True   Lin Dep Dim?  5 (5)
  mass-weighted Hessian:           Symmetric? True   Hermitian? True   Lin Dep Dim?  6 (0)
  pre-proj  low-frequency mode:    0.0000i [cm^-1]
  pre-proj  low-frequency mode:    0.0000i [cm^-1]
  pre-proj  low-frequency mode:    0.0000i [cm^-1]
  pre-proj  low-frequency mode:    0.0000i [cm^-1]
  pre-proj  low-frequency mode:    0.0000  [cm^-1]
  pre-proj  low-frequency mode:    0.0000  [cm^-1]
  pre-proj  all modes:['0.0000i' '0.0000i' '0.0000i' '0.0000i' '0.0000' '0.0000' '449.5831'
 '691.2180' '1569.8922']
  projected mass-weighted Hessian: Symmetric? True   Hermitian? True   Lin Dep Dim?  6 (5)
  post-proj low-frequency mode:    0.0000i [cm^-1] (-)
  post-proj low-frequency mode:    0.0000i [cm^-1] (-)
  post-proj low-frequency mode:    0.0000i [cm^-1] (-)
  post-proj low-frequency mode:    0.0000i [cm^-1] (-)
  post-proj low-frequency mode:    0.0000  [cm^-1] (-)
  post-proj low-frequency mode:    0.0000  [cm^-1] (-)
  post-proj  all modes:['0.0000i' '0.0000i' '0.0000i' '0.0000i' '0.0000' '0.0000' '449.5831'
 '691.2180' '1569.8922']

  Vibration                       7                   8                   9           
  Freq [cm^-1]                 449.5831            691.2180           1569.8922       
  Irrep                           Ap                  Ap                  Ap          
  Reduced mass [u]             13.3472             31.7798             13.3147        
  Force const [mDyne/A]         1.5895              8.9460             19.3340        
  Turning point v=0 [a0]        0.1416              0.0740              0.0759        
  RMS dev v=0 [a0 u^1/2]        0.3659              0.2951              0.1958        
  Char temp [K]                646.8500            994.5089           2258.7254       
  ----------------------------------------------------------------------------------
      1   S               -0.18  0.00 -0.03   -0.02 -0.00  0.71    0.00 -0.00 -0.18   
      2   C                0.97  0.00  0.00    0.10 -0.00 -0.01   -0.00 -0.00  0.97   
      3   S               -0.18  0.00  0.03   -0.02  0.00 -0.70    0.00 -0.00 -0.19   

  ==> Thermochemistry Components <==

  Entropy, S
    Electronic S            0.000 [cal/(mol K)]        0.000 [J/(mol K)]       0.00000000 [mEh/K] (multiplicity = 1)
    Translational S        38.898 [cal/(mol K)]      162.748 [J/(mol K)]       0.06198752 [mEh/K] (mol. weight = 75.9441 [u], P = 101325.00 [Pa])
    Rotational S           16.970 [cal/(mol K)]       71.004 [J/(mol K)]       0.02704382 [mEh/K] (symmetry no. = 1)
    Vibrational S           1.122 [cal/(mol K)]        4.696 [J/(mol K)]       0.00178871 [mEh/K]
  Total S                  56.990 [cal/(mol K)]      238.448 [J/(mol K)]       0.09082006 [mEh/K]
  Correction S              0.000 [cal/(mol K)]        0.000 [J/(mol K)]       0.00000000 [mEh/K]

  Constant volume heat capacity, Cv
    Electronic Cv           0.000 [cal/(mol K)]        0.000 [J/(mol K)]       0.00000000 [mEh/K]
    Translational Cv        2.981 [cal/(mol K)]       12.472 [J/(mol K)]       0.00475022 [mEh/K]
    Rotational Cv           1.987 [cal/(mol K)]        8.314 [J/(mol K)]       0.00316681 [mEh/K]
    Vibrational Cv          2.266 [cal/(mol K)]        9.483 [J/(mol K)]       0.00361186 [mEh/K]
  Total Cv                  7.234 [cal/(mol K)]       30.269 [J/(mol K)]       0.01152888 [mEh/K]
  Correction Cv             0.000 [cal/(mol K)]        0.000 [J/(mol K)]       0.00000000 [mEh/K]

  Constant pressure heat capacity, Cp
    Electronic Cp           0.000 [cal/(mol K)]        0.000 [J/(mol K)]       0.00000000 [mEh/K]
    Translational Cp        4.968 [cal/(mol K)]       20.786 [J/(mol K)]       0.00791703 [mEh/K]
    Rotational Cp           1.987 [cal/(mol K)]        8.314 [J/(mol K)]       0.00316681 [mEh/K]
    Vibrational Cp          2.266 [cal/(mol K)]        9.483 [J/(mol K)]       0.00361186 [mEh/K]
  Total Cp                  9.222 [cal/(mol K)]       38.584 [J/(mol K)]       0.01469569 [mEh/K]
  Correction Cp             0.000 [cal/(mol K)]        0.000 [J/(mol K)]       0.00000000 [mEh/K]

  ==> Thermochemistry Energy Analysis <==

  Raw electronic energy, E0
  Total E0, Electronic energy at well bottom at 0 [K]                 -834.49811919 [Eh]

  Zero-point energy, ZPE_vib = Sum_i nu_i / 2
    Electronic ZPE          0.000 [kcal/mol]        0.000 [kJ/mol]       0.00000000 [Eh]
    Translational ZPE       0.000 [kcal/mol]        0.000 [kJ/mol]       0.00000000 [Eh]
    Rotational ZPE          0.000 [kcal/mol]        0.000 [kJ/mol]       0.00000000 [Eh]
    Vibrational ZPE         3.875 [kcal/mol]       16.214 [kJ/mol]       0.00617541 [Eh]        1355.347 [cm^-1]
  Correction ZPE            3.875 [kcal/mol]       16.214 [kJ/mol]       0.00617541 [Eh]        1355.347 [cm^-1]
  Total ZPE, Electronic energy at 0 [K]                               -834.49194378 [Eh]

  Thermal Energy, E (includes ZPE)
    Electronic E            0.000 [kcal/mol]        0.000 [kJ/mol]       0.00000000 [Eh]
    Translational E         0.889 [kcal/mol]        3.718 [kJ/mol]       0.00141628 [Eh]
    Rotational E            0.592 [kcal/mol]        2.479 [kJ/mol]       0.00094418 [Eh]
    Vibrational E           4.116 [kcal/mol]       17.222 [kJ/mol]       0.00655949 [Eh]
  Correction E              5.597 [kcal/mol]       23.419 [kJ/mol]       0.00891995 [Eh]
  Total E, Electronic energy at  298.15 [K]                           -834.48919924 [Eh]

  Enthalpy, H_trans = E_trans + k_B * T
    Electronic H            0.000 [kcal/mol]        0.000 [kJ/mol]       0.00000000 [Eh]
    Translational H         1.481 [kcal/mol]        6.197 [kJ/mol]       0.00236046 [Eh]
    Rotational H            0.592 [kcal/mol]        2.479 [kJ/mol]       0.00094418 [Eh]
    Vibrational H           4.116 [kcal/mol]       17.222 [kJ/mol]       0.00655949 [Eh]
  Correction H              6.190 [kcal/mol]       25.898 [kJ/mol]       0.00986413 [Eh]
  Total H, Enthalpy at  298.15 [K]                                    -834.48825506 [Eh]

  Gibbs free energy, G = H - T * S
    Electronic G            0.000 [kcal/mol]        0.000 [kJ/mol]       0.00000000 [Eh]
    Translational G       -10.116 [kcal/mol]      -42.326 [kJ/mol]      -0.01612112 [Eh]
    Rotational G           -4.467 [kcal/mol]      -18.691 [kJ/mol]      -0.00711893 [Eh]
    Vibrational G           3.781 [kcal/mol]       15.822 [kJ/mol]       0.00602618 [Eh]
  Correction G            -10.802 [kcal/mol]      -45.195 [kJ/mol]      -0.01721387 [Eh]
  Total G, Free enthalpy at  298.15 [K]                               -834.51533306 [Eh]

    Psi4 stopped on: Monday, 19 April 2021 03:58PM
    Psi4 wall time for execution: 0:03:59.47

*** Psi4 exiting successfully. Buy a developer a beer!
