
    -----------------------------------------------------------------------
          Psi4: An Open-Source Ab Initio Electronic Structure Package
                               Psi4 1.3.2 release

                         Git: Rev {HEAD} ecbda83 


    R. M. Parrish, L. A. Burns, D. G. A. Smith, A. C. Simmonett,
    A. E. DePrince III, E. G. Hohenstein, U. Bozkaya, A. Yu. Sokolov,
    R. Di Remigio, R. M. Richard, J. F. Gonthier, A. M. James,
    H. R. McAlexander, A. Kumar, M. Saitow, X. Wang, B. P. Pritchard,
    P. Verma, H. F. Schaefer III, K. Patkowski, R. A. King, E. F. Valeev,
    F. A. Evangelista, J. M. Turney, T. D. Crawford, and C. D. Sherrill,
    J. Chem. Theory Comput. 13(7) pp 3185--3197 (2017).
    (doi: 10.1021/acs.jctc.7b00174)


                         Additional Contributions by
    P. Kraus, H. Kruse, M. H. Lechner, M. C. Schieber, R. A. Shaw,
    A. Alenaizan, R. Galvelis, Z. L. Glick, S. Lehtola, and J. P. Misiewicz

    -----------------------------------------------------------------------


    Psi4 started on: Monday, 19 April 2021 03:56PM

    Process ID: 43912
    Host:       bp1-compute00190.data.bp.acrc.priv
    PSIDATADIR: /work/zw18965/.conda/envs/p4env/share/psi4
    Memory:     500.0 MiB
    Threads:    24
    
  ==> Input File <==

--------------------------------------------------------------------------
memory 144 GB

molecule {
0 1
C    -0.103910856415   0.008245353545   0.001088210600
S     1.501784397759  -0.119456886931  -0.015615823698
H    -0.672538376561   0.271493563704   0.890615697200
H    -0.725339302949  -0.160344325059  -0.876008681061}

set basis aug-cc-pV(Q+d)Z
 
optimize("WB97M-V")
frequencies("WB97M-V")--------------------------------------------------------------------------

  Memory set to 134.110 GiB by Python driver.
gradient() will perform gradient computation by finite difference of analytic energies.

         ----------------------------------------------------------
                                   FINDIF
                     R. A. King and Jonathon Misiewicz
         ---------------------------------------------------------

  Using finite-differences of energies to determine gradients.
    Generating geometries for use with 3-point formula.
    Displacement size will be 5.00e-03.
    Number of atoms is 4.
    Number of symmetric SALCs is 6.
    Translations projected? 1. Rotations projected? 1.
    Number of geometries (including reference) is 13.

  //>>>>>>>>>>>>>>>>>>>>>>>>>>>>>>>>>>>//
  //    Loading displacement 1 of 13   //
  //<<<<<<<<<<<<<<<<<<<<<<<<<<<<<<<<<<<//

*** tstart() called on bp1-compute00190.data.bp.acrc.priv
*** at Mon Apr 19 15:56:59 2021

   => Loading Basis Set <=

    Name: AUG-CC-PV(Q+D)Z
    Role: ORBITAL
    Keyword: BASIS
    atoms 1   entry C          line   319 file /work/zw18965/.conda/envs/p4env/share/psi4/basis/aug-cc-pv_qpd_z.gbs 
    atoms 2   entry S          line  1148 file /work/zw18965/.conda/envs/p4env/share/psi4/basis/aug-cc-pv_qpd_z.gbs 
    atoms 3-4 entry H          line    56 file /work/zw18965/.conda/envs/p4env/share/psi4/basis/aug-cc-pv_qpd_z.gbs 


         ---------------------------------------------------------
                                   SCF
               by Justin Turney, Rob Parrish, Andy Simmonett
                          and Daniel G. A. Smith
                              RKS Reference
                       24 Threads, 137329 MiB Core
         ---------------------------------------------------------

  ==> Geometry <==

    Molecular point group: c1
    Full point group: C1

    Geometry (in Angstrom), charge = 0, multiplicity = 1:

       Center              X                  Y                   Z               Mass       
    ------------   -----------------  -----------------  -----------------  -----------------
         C           -1.090248296876     0.086708055468     0.011340738238    12.000000000000
         S            0.515446957298    -0.040994185008    -0.005363296060    31.972071174400
         H           -1.658875817022     0.349956265627     0.900868224838     1.007825032230
         H           -1.711676743410    -0.081881623136    -0.865756153423     1.007825032230

  Running in c1 symmetry.

  Rotational constants: A =     10.10608  B =      0.58807  C =      0.55573 [cm^-1]
  Rotational constants: A = 302972.64093  B =  17629.77401  C =  16660.32114 [MHz]
  Nuclear repulsion =   44.755277725462982

  Charge       = 0
  Multiplicity = 1
  Electrons    = 24
  Nalpha       = 12
  Nbeta        = 12

  ==> Algorithm <==

  SCF Algorithm Type is DF.
  DIIS enabled.
  MOM disabled.
  Fractional occupation disabled.
  Guess Type is SAD.
  Energy threshold   = 1.00e-08
  Density threshold  = 1.00e-08
  Integral threshold = 0.00e+00

  ==> Primary Basis <==

  Basis Set: AUG-CC-PV(Q+D)Z
    Blend: AUG-CC-PV(Q+D)Z
    Number of shells: 71
    Number of basis function: 261
    Number of Cartesian functions: 330
    Spherical Harmonics?: true
    Max angular momentum: 4

  ==> DFT Potential <==

   => Composite Functional: WB97M-V <= 

    wB97M-V Hyb-GGA Exchange-Correlation Functional

    N. Mardirossian and M. Head-Gordon, J. Chem. Phys. 144, 214110 (2016)

    Deriv               =              1
    GGA                 =           TRUE
    Meta                =           TRUE

    Exchange Hybrid     =           TRUE
    MP2 Hybrid          =          FALSE

   => Exchange-Correlation Functionals <=

    1.0000   wB97M-V exchange-correlation functional

   => Exact (HF) Exchange <=

    0.8500            HF,LR [omega = 0.3000]
    0.1500               HF 

   => VV10 Non-Local Parameters <=

    VV10 B              =     6.0000E+00
    VV10 C              =     1.0000E-02

   => Molecular Quadrature <=

    Radial Scheme          =       TREUTLER
    Pruning Scheme         =           FLAT
    Nuclear Scheme         =       TREUTLER

    BS radius alpha        =              1
    Pruning alpha          =              1
    Radial Points          =             75
    Spherical Points       =            302
    Total Points           =          90600
    Total Blocks           =            740
    Max Points             =            256
    Max Functions          =            261

   => Loading Basis Set <=

    Name: (AUG-CC-PV(Q+D)Z AUX)
    Role: JKFIT
    Keyword: DF_BASIS_SCF
    atoms 1   entry C          line   178 file /work/zw18965/.conda/envs/p4env/share/psi4/basis/aug-cc-pvqz-jkfit.gbs 
    atoms 2   entry S          line   810 file /work/zw18965/.conda/envs/p4env/share/psi4/basis/aug-cc-pvqz-jkfit.gbs 
    atoms 3-4 entry H          line    70 file /work/zw18965/.conda/envs/p4env/share/psi4/basis/aug-cc-pvqz-jkfit.gbs 

  ==> Pre-Iterations <==

   -------------------------------------------------------
    Irrep   Nso     Nmo     Nalpha   Nbeta   Ndocc  Nsocc
   -------------------------------------------------------
     A        261     261       0       0       0       0
   -------------------------------------------------------
    Total     261     261      12      12      12       0
   -------------------------------------------------------

  ==> Integral Setup <==

  ==> DiskDFJK: Density-Fitted J/K Matrices <==

    J tasked:                  Yes
    K tasked:                  Yes
    wK tasked:                 Yes
    Omega:               3.000E-01
    OpenMP threads:             24
    Integrals threads:          24
    Memory [MiB]:           101430
    Algorithm:                Core
    Integral Cache:           NONE
    Schwarz Cutoff:          1E-12
    Fitting Condition:       1E-10

   => Auxiliary Basis Set <=

  Basis Set: (AUG-CC-PV(Q+D)Z AUX)
    Blend: AUG-CC-PVQZ-JKFIT
    Number of shells: 116
    Number of basis function: 478
    Number of Cartesian functions: 647
    Spherical Harmonics?: true
    Max angular momentum: 5

  Cached 100.0% of DFT collocation blocks in 1.529 [GiB].

  Minimum eigenvalue in the overlap matrix is 2.3424680901E-05.
  Using Symmetric Orthogonalization.

  SCF Guess: Superposition of Atomic Densities via on-the-fly atomic UHF.

  ==> Iterations <==

                           Total Energy        Delta E     RMS |[F,P]|

   @DF-RKS iter SAD:  -436.95025600107078   -4.36950e+02   0.00000e+00 
   @DF-RKS iter   1:  -437.39301559543452   -4.42760e-01   1.46186e-03 DIIS
   @DF-RKS iter   2:  -437.41419814303151   -2.11825e-02   1.13880e-03 DIIS
   @DF-RKS iter   3:  -437.45589711049706   -4.16990e-02   2.63314e-04 DIIS
   @DF-RKS iter   4:  -437.45815800075377   -2.26089e-03   4.64807e-05 DIIS
   @DF-RKS iter   5:  -437.45827461096883   -1.16610e-04   1.27687e-05 DIIS
   @DF-RKS iter   6:  -437.45828323258081   -8.62161e-06   4.47960e-06 DIIS
   @DF-RKS iter   7:  -437.45828483571916   -1.60314e-06   1.01041e-06 DIIS
   @DF-RKS iter   8:  -437.45828496338510   -1.27666e-07   1.83006e-07 DIIS
   @DF-RKS iter   9:  -437.45828496742411   -4.03901e-09   4.20081e-08 DIIS
   @DF-RKS iter  10:  -437.45828496756650   -1.42393e-10   6.16146e-09 DIIS
  Energy and wave function converged.


  ==> Post-Iterations <==

    Orbital Energies [Eh]
    ---------------------

    Doubly Occupied:                                                      

       1A    -89.208910     2A    -10.416945     3A     -8.123264  
       4A     -6.033833     5A     -6.031558     6A     -6.024715  
       7A     -0.921828     8A     -0.720284     9A     -0.569467  
      10A     -0.499891    11A     -0.417376    12A     -0.329917  

    Virtual:                                                              

      13A     -0.017546    14A      0.011572    15A      0.029084  
      16A      0.034437    17A      0.054995    18A      0.069807  
      19A      0.074081    20A      0.084692    21A      0.102604  
      22A      0.112114    23A      0.138281    24A      0.150212  
      25A      0.155784    26A      0.179714    27A      0.184632  
      28A      0.208406    29A      0.219715    30A      0.220694  
      31A      0.227063    32A      0.241573    33A      0.245499  
      34A      0.259454    35A      0.266591    36A      0.277347  
      37A      0.291851    38A      0.298492    39A      0.304602  
      40A      0.321193    41A      0.321364    42A      0.364603  
      43A      0.381660    44A      0.417399    45A      0.437550  
      46A      0.443516    47A      0.458949    48A      0.475500  
      49A      0.489839    50A      0.495292    51A      0.504765  
      52A      0.508440    53A      0.530789    54A      0.531940  
      55A      0.546180    56A      0.584761    57A      0.603737  
      58A      0.624083    59A      0.628805    60A      0.632573  
      61A      0.640162    62A      0.662822    63A      0.669421  
      64A      0.686021    65A      0.693721    66A      0.724862  
      67A      0.739299    68A      0.743929    69A      0.754617  
      70A      0.767556    71A      0.776594    72A      0.851836  
      73A      0.855435    74A      0.861798    75A      0.897187  
      76A      0.933971    77A      0.961882    78A      0.990382  
      79A      0.990670    80A      1.010294    81A      1.029744  
      82A      1.048730    83A      1.049878    84A      1.080030  
      85A      1.105464    86A      1.174428    87A      1.191180  
      88A      1.227729    89A      1.266932    90A      1.270876  
      91A      1.286060    92A      1.323674    93A      1.350787  
      94A      1.372968    95A      1.385153    96A      1.393501  
      97A      1.397983    98A      1.413187    99A      1.420276  
     100A      1.456300   101A      1.472400   102A      1.483365  
     103A      1.497736   104A      1.525785   105A      1.527223  
     106A      1.543051   107A      1.570769   108A      1.577257  
     109A      1.580811   110A      1.603156   111A      1.632844  
     112A      1.680730   113A      1.691936   114A      1.740369  
     115A      1.747231   116A      1.794487   117A      1.824902  
     118A      1.831547   119A      1.853586   120A      1.893663  
     121A      1.918419   122A      1.922351   123A      1.929101  
     124A      1.938103   125A      1.968683   126A      1.983815  
     127A      2.025546   128A      2.029514   129A      2.055942  
     130A      2.076447   131A      2.101473   132A      2.117834  
     133A      2.142151   134A      2.145597   135A      2.153834  
     136A      2.258901   137A      2.355373   138A      2.373884  
     139A      2.399503   140A      2.416585   141A      2.499165  
     142A      2.501487   143A      2.555548   144A      2.571839  
     145A      2.573991   146A      2.605409   147A      2.644664  
     148A      2.698361   149A      2.717939   150A      2.754417  
     151A      2.792139   152A      2.816385   153A      2.827473  
     154A      2.858214   155A      2.883085   156A      2.935484  
     157A      3.023364   158A      3.127387   159A      3.169231  
     160A      3.201761   161A      3.216217   162A      3.275049  
     163A      3.351199   164A      3.415217   165A      3.424750  
     166A      3.465143   167A      3.466980   168A      3.499049  
     169A      3.541722   170A      3.581302   171A      3.593739  
     172A      3.613156   173A      3.615137   174A      3.687777  
     175A      3.733007   176A      3.749085   177A      3.757318  
     178A      3.832361   179A      3.836127   180A      3.850006  
     181A      3.880605   182A      3.887263   183A      3.945283  
     184A      3.990060   185A      4.031032   186A      4.228580  
     187A      4.235429   188A      4.267359   189A      4.338571  
     190A      4.362204   191A      4.380952   192A      4.493251  
     193A      4.504602   194A      4.781149   195A      4.912785  
     196A      5.608860   197A      5.652441   198A      5.688386  
     199A      5.813136   200A      5.832991   201A      5.895987  
     202A      5.902034   203A      6.011355   204A      6.015801  
     205A      6.023929   206A      6.154644   207A      6.225954  
     208A      6.314035   209A      6.319102   210A      6.347649  
     211A      6.366232   212A      6.491228   213A      6.522052  
     214A      6.549979   215A      6.639190   216A      6.650841  
     217A      6.678895   218A      6.724967   219A      6.792397  
     220A      6.818713   221A      6.952344   222A      7.125833  
     223A      7.160231   224A      7.193810   225A      7.311057  
     226A      7.547975   227A      7.809094   228A      7.837984  
     229A      7.867005   230A      7.996531   231A      8.133279  
     232A      8.145296   233A      8.211531   234A      8.381357  
     235A      8.486427   236A      8.588573   237A      8.680451  
     238A      8.722723   239A      8.791402   240A      8.812715  
     241A      8.892551   242A      8.924274   243A      9.084685  
     244A      9.090019   245A      9.269195   246A      9.279015  
     247A      9.328645   248A      9.387299   249A      9.570155  
     250A      9.612654   251A      9.637802   252A      9.799142  
     253A      9.827511   254A     10.026001   255A     10.264408  
     256A     10.347570   257A     10.548649   258A     11.934048  
     259A     12.416672   260A     20.864713   261A     25.221737  

    Final Occupation by Irrep:
              A 
    DOCC [    12 ]

  @DF-RKS Final Energy:  -437.45828496756650

   => Energetics <=

    Nuclear Repulsion Energy =             44.7552777254629817
    One-Electron Energy =                -690.8347334609214840
    Two-Electron Energy =                 232.5256224572464703
    DFT Exchange-Correlation Energy =     -24.0036924172400816
    Empirical Dispersion Energy =           0.0000000000000000
    VV10 Nonlocal Energy =                  0.0992407278856189
    Total Energy =                       -437.4582849675664988

Computation Completed


Properties will be evaluated at   0.000000,   0.000000,   0.000000 [a0]

Properties computed using the SCF density matrix

  Nuclear Dipole Moment: [e a0]
     X:    -3.1462      Y:     0.2502      Z:     0.0328

  Electronic Dipole Moment: [e a0]
     X:     2.4604      Y:    -0.1957      Z:    -0.0256

  Dipole Moment: [e a0]
     X:    -0.6858      Y:     0.0545      Z:     0.0071     Total:     0.6880

  Dipole Moment: [D]
     X:    -1.7432      Y:     0.1386      Z:     0.0182     Total:     1.7488


*** tstop() called on bp1-compute00190.data.bp.acrc.priv at Mon Apr 19 15:57:07 2021
Module time:
	user time   =     166.61 seconds =       2.78 minutes
	system time =       8.35 seconds =       0.14 minutes
	total time  =          8 seconds =       0.13 minutes
Total time:
	user time   =     166.61 seconds =       2.78 minutes
	system time =       8.35 seconds =       0.14 minutes
	total time  =          8 seconds =       0.13 minutes

  //>>>>>>>>>>>>>>>>>>>>>>>>>>>>>>>>>>>//
  //    Loading displacement 2 of 13   //
  //<<<<<<<<<<<<<<<<<<<<<<<<<<<<<<<<<<<//

*** tstart() called on bp1-compute00190.data.bp.acrc.priv
*** at Mon Apr 19 15:57:07 2021

   => Loading Basis Set <=

    Name: AUG-CC-PV(Q+D)Z
    Role: ORBITAL
    Keyword: BASIS
    atoms 1   entry C          line   319 file /work/zw18965/.conda/envs/p4env/share/psi4/basis/aug-cc-pv_qpd_z.gbs 
    atoms 2   entry S          line  1148 file /work/zw18965/.conda/envs/p4env/share/psi4/basis/aug-cc-pv_qpd_z.gbs 
    atoms 3-4 entry H          line    56 file /work/zw18965/.conda/envs/p4env/share/psi4/basis/aug-cc-pv_qpd_z.gbs 


         ---------------------------------------------------------
                                   SCF
               by Justin Turney, Rob Parrish, Andy Simmonett
                          and Daniel G. A. Smith
                              RKS Reference
                       24 Threads, 137329 MiB Core
         ---------------------------------------------------------

  ==> Geometry <==

    Molecular point group: c1
    Full point group: C1

    Geometry (in Angstrom), charge = 0, multiplicity = 1:

       Center              X                  Y                   Z               Mass       
    ------------   -----------------  -----------------  -----------------  -----------------
         C           -1.090903513410     0.086743121631     0.011344656795    12.000000000000
         S            0.515677954986    -0.041010763569    -0.005365148673    31.972071174400
         H           -1.658628984610     0.350009662871     0.900874176774     1.007825032230
         H           -1.711450156453    -0.081826611726    -0.865749990961     1.007825032230

  Running in c1 symmetry.

  Rotational constants: A =     10.10608  B =      0.58759  C =      0.55530 [cm^-1]
  Rotational constants: A = 302972.63810  B =  17615.45323  C =  16647.53148 [MHz]
  Nuclear repulsion =   44.740522999845275

  Charge       = 0
  Multiplicity = 1
  Electrons    = 24
  Nalpha       = 12
  Nbeta        = 12

  ==> Algorithm <==

  SCF Algorithm Type is DF.
  DIIS enabled.
  MOM disabled.
  Fractional occupation disabled.
  Guess Type is SAD.
  Energy threshold   = 1.00e-08
  Density threshold  = 1.00e-08
  Integral threshold = 0.00e+00

  ==> Primary Basis <==

  Basis Set: AUG-CC-PV(Q+D)Z
    Blend: AUG-CC-PV(Q+D)Z
    Number of shells: 71
    Number of basis function: 261
    Number of Cartesian functions: 330
    Spherical Harmonics?: true
    Max angular momentum: 4

  ==> DFT Potential <==

   => Composite Functional: WB97M-V <= 

    wB97M-V Hyb-GGA Exchange-Correlation Functional

    N. Mardirossian and M. Head-Gordon, J. Chem. Phys. 144, 214110 (2016)

    Deriv               =              1
    GGA                 =           TRUE
    Meta                =           TRUE

    Exchange Hybrid     =           TRUE
    MP2 Hybrid          =          FALSE

   => Exchange-Correlation Functionals <=

    1.0000   wB97M-V exchange-correlation functional

   => Exact (HF) Exchange <=

    0.8500            HF,LR [omega = 0.3000]
    0.1500               HF 

   => VV10 Non-Local Parameters <=

    VV10 B              =     6.0000E+00
    VV10 C              =     1.0000E-02

   => Molecular Quadrature <=

    Radial Scheme          =       TREUTLER
    Pruning Scheme         =           FLAT
    Nuclear Scheme         =       TREUTLER

    BS radius alpha        =              1
    Pruning alpha          =              1
    Radial Points          =             75
    Spherical Points       =            302
    Total Points           =          90600
    Total Blocks           =            741
    Max Points             =            255
    Max Functions          =            261

   => Loading Basis Set <=

    Name: (AUG-CC-PV(Q+D)Z AUX)
    Role: JKFIT
    Keyword: DF_BASIS_SCF
    atoms 1   entry C          line   178 file /work/zw18965/.conda/envs/p4env/share/psi4/basis/aug-cc-pvqz-jkfit.gbs 
    atoms 2   entry S          line   810 file /work/zw18965/.conda/envs/p4env/share/psi4/basis/aug-cc-pvqz-jkfit.gbs 
    atoms 3-4 entry H          line    70 file /work/zw18965/.conda/envs/p4env/share/psi4/basis/aug-cc-pvqz-jkfit.gbs 

  ==> Pre-Iterations <==

   -------------------------------------------------------
    Irrep   Nso     Nmo     Nalpha   Nbeta   Ndocc  Nsocc
   -------------------------------------------------------
     A        261     261       0       0       0       0
   -------------------------------------------------------
    Total     261     261      12      12      12       0
   -------------------------------------------------------

  ==> Integral Setup <==

  ==> DiskDFJK: Density-Fitted J/K Matrices <==

    J tasked:                  Yes
    K tasked:                  Yes
    wK tasked:                 Yes
    Omega:               3.000E-01
    OpenMP threads:             24
    Integrals threads:          24
    Memory [MiB]:           101430
    Algorithm:                Core
    Integral Cache:           NONE
    Schwarz Cutoff:          1E-12
    Fitting Condition:       1E-10

   => Auxiliary Basis Set <=

  Basis Set: (AUG-CC-PV(Q+D)Z AUX)
    Blend: AUG-CC-PVQZ-JKFIT
    Number of shells: 116
    Number of basis function: 478
    Number of Cartesian functions: 647
    Spherical Harmonics?: true
    Max angular momentum: 5

  Cached 100.0% of DFT collocation blocks in 1.529 [GiB].

  Minimum eigenvalue in the overlap matrix is 2.3433040032E-05.
  Using Symmetric Orthogonalization.

  SCF Guess: Superposition of Atomic Densities via on-the-fly atomic UHF.

  ==> Iterations <==

                           Total Energy        Delta E     RMS |[F,P]|

   @DF-RKS iter SAD:  -436.94924121458746   -4.36949e+02   0.00000e+00 
   @DF-RKS iter   1:  -437.39302477920916   -4.43784e-01   1.46150e-03 DIIS
   @DF-RKS iter   2:  -437.41416527275544   -2.11405e-02   1.13888e-03 DIIS
   @DF-RKS iter   3:  -437.45587934309651   -4.17141e-02   2.63650e-04 DIIS
   @DF-RKS iter   4:  -437.45814692502643   -2.26758e-03   4.64995e-05 DIIS
   @DF-RKS iter   5:  -437.45826372065983   -1.16796e-04   1.27881e-05 DIIS
   @DF-RKS iter   6:  -437.45827237577782   -8.65512e-06   4.49297e-06 DIIS
   @DF-RKS iter   7:  -437.45827398993526   -1.61416e-06   1.01398e-06 DIIS
   @DF-RKS iter   8:  -437.45827411861450   -1.28679e-07   1.83334e-07 DIIS
   @DF-RKS iter   9:  -437.45827412266920   -4.05470e-09   4.20767e-08 DIIS
   @DF-RKS iter  10:  -437.45827412281255   -1.43359e-10   6.17251e-09 DIIS
  Energy and wave function converged.


  ==> Post-Iterations <==

    Orbital Energies [Eh]
    ---------------------

    Doubly Occupied:                                                      

       1A    -89.208963     2A    -10.416980     3A     -8.123285  
       4A     -6.033856     5A     -6.031583     6A     -6.024736  
       7A     -0.921649     8A     -0.720406     9A     -0.569666  
      10A     -0.499779    11A     -0.417226    12A     -0.329956  

    Virtual:                                                              

      13A     -0.017659    14A      0.011568    15A      0.029083  
      16A      0.034437    17A      0.055001    18A      0.069810  
      19A      0.074087    20A      0.084688    21A      0.102597  
      22A      0.112117    23A      0.138266    24A      0.150176  
      25A      0.155785    26A      0.179762    27A      0.184607  
      28A      0.208425    29A      0.219730    30A      0.220701  
      31A      0.227062    32A      0.241564    33A      0.245493  
      34A      0.259444    35A      0.266566    36A      0.277298  
      37A      0.291965    38A      0.298476    39A      0.304552  
      40A      0.321221    41A      0.321397    42A      0.364455  
      43A      0.381706    44A      0.417372    45A      0.437730  
      46A      0.443524    47A      0.458966    48A      0.475540  
      49A      0.489794    50A      0.495191    51A      0.504717  
      52A      0.508432    53A      0.530826    54A      0.531906  
      55A      0.546182    56A      0.584810    57A      0.603787  
      58A      0.624041    59A      0.628814    60A      0.632639  
      61A      0.640156    62A      0.662763    63A      0.669348  
      64A      0.685952    65A      0.693706    66A      0.724875  
      67A      0.739303    68A      0.743883    69A      0.754645  
      70A      0.767477    71A      0.776503    72A      0.851651  
      73A      0.855429    74A      0.861858    75A      0.897110  
      76A      0.934001    77A      0.961764    78A      0.990403  
      79A      0.990893    80A      1.010221    81A      1.029704  
      82A      1.048664    83A      1.049924    84A      1.079958  
      85A      1.105457    86A      1.174556    87A      1.191226  
      88A      1.227607    89A      1.266669    90A      1.270879  
      91A      1.285985    92A      1.323526    93A      1.350796  
      94A      1.373071    95A      1.385189    96A      1.393491  
      97A      1.397976    98A      1.413199    99A      1.420279  
     100A      1.456163   101A      1.472280   102A      1.483403  
     103A      1.497421   104A      1.525767   105A      1.527052  
     106A      1.543017   107A      1.570879   108A      1.577258  
     109A      1.580670   110A      1.603070   111A      1.632750  
     112A      1.680509   113A      1.691732   114A      1.740082  
     115A      1.747386   116A      1.794257   117A      1.824929  
     118A      1.831221   119A      1.853382   120A      1.893635  
     121A      1.918151   122A      1.922258   123A      1.929120  
     124A      1.938068   125A      1.968542   126A      1.983797  
     127A      2.025623   128A      2.029790   129A      2.056052  
     130A      2.076719   131A      2.101787   132A      2.118114  
     133A      2.142342   134A      2.145509   135A      2.153698  
     136A      2.258916   137A      2.355554   138A      2.373823  
     139A      2.399499   140A      2.416484   141A      2.498962  
     142A      2.501440   143A      2.555093   144A      2.571862  
     145A      2.574153   146A      2.605403   147A      2.644671  
     148A      2.697833   149A      2.717936   150A      2.754791  
     151A      2.792103   152A      2.816024   153A      2.827228  
     154A      2.857582   155A      2.882907   156A      2.935381  
     157A      3.023151   158A      3.127851   159A      3.168396  
     160A      3.202104   161A      3.216181   162A      3.275530  
     163A      3.351346   164A      3.415612   165A      3.424694  
     166A      3.465154   167A      3.467105   168A      3.498974  
     169A      3.542120   170A      3.581524   171A      3.593635  
     172A      3.613123   173A      3.615172   174A      3.687775  
     175A      3.733185   176A      3.748671   177A      3.756991  
     178A      3.832240   179A      3.835655   180A      3.849889  
     181A      3.879876   182A      3.886962   183A      3.945929  
     184A      3.989910   185A      4.031727   186A      4.228460  
     187A      4.235387   188A      4.266368   189A      4.338470  
     190A      4.361973   191A      4.380305   192A      4.493879  
     193A      4.505686   194A      4.781032   195A      4.912519  
     196A      5.608241   197A      5.652109   198A      5.688456  
     199A      5.812463   200A      5.832547   201A      5.896363  
     202A      5.901798   203A      6.009849   204A      6.015621  
     205A      6.023541   206A      6.154214   207A      6.225122  
     208A      6.314177   209A      6.318999   210A      6.346517  
     211A      6.365983   212A      6.491443   213A      6.522516  
     214A      6.550484   215A      6.639353   216A      6.650464  
     217A      6.680438   218A      6.725273   219A      6.792981  
     220A      6.819837   221A      6.952277   222A      7.125293  
     223A      7.159446   224A      7.195136   225A      7.312001  
     226A      7.547429   227A      7.809503   228A      7.840773  
     229A      7.867744   230A      7.996800   231A      8.133554  
     232A      8.146034   233A      8.210625   234A      8.381777  
     235A      8.486093   236A      8.588386   237A      8.680893  
     238A      8.724066   239A      8.792562   240A      8.812797  
     241A      8.892378   242A      8.924245   243A      9.085749  
     244A      9.089820   245A      9.270210   246A      9.279476  
     247A      9.328706   248A      9.387682   249A      9.569750  
     250A      9.613514   251A      9.639082   252A      9.802934  
     253A      9.830547   254A     10.027268   255A     10.266982  
     256A     10.347805   257A     10.551702   258A     11.934868  
     259A     12.420846   260A     20.856844   261A     25.227685  

    Final Occupation by Irrep:
              A 
    DOCC [    12 ]

  @DF-RKS Final Energy:  -437.45827412281255

   => Energetics <=

    Nuclear Repulsion Energy =             44.7405229998452754
    One-Electron Energy =                -690.8050697005350003
    Two-Electron Energy =                 232.5106056417517379
    DFT Exchange-Correlation Energy =     -24.0035747601482541
    Empirical Dispersion Energy =           0.0000000000000000
    VV10 Nonlocal Energy =                  0.0992416962736734
    Total Energy =                       -437.4582741228124974

Computation Completed


Properties will be evaluated at   0.000000,   0.000000,   0.000000 [a0]

Properties computed using the SCF density matrix

  Nuclear Dipole Moment: [e a0]
     X:    -3.1457      Y:     0.2503      Z:     0.0328

  Electronic Dipole Moment: [e a0]
     X:     2.4591      Y:    -0.1957      Z:    -0.0256

  Dipole Moment: [e a0]
     X:    -0.6867      Y:     0.0547      Z:     0.0071     Total:     0.6889

  Dipole Moment: [D]
     X:    -1.7454      Y:     0.1389      Z:     0.0182     Total:     1.7510


*** tstop() called on bp1-compute00190.data.bp.acrc.priv at Mon Apr 19 15:57:15 2021
Module time:
	user time   =     173.71 seconds =       2.90 minutes
	system time =       5.83 seconds =       0.10 minutes
	total time  =          8 seconds =       0.13 minutes
Total time:
	user time   =     340.46 seconds =       5.67 minutes
	system time =      14.19 seconds =       0.24 minutes
	total time  =         16 seconds =       0.27 minutes

  //>>>>>>>>>>>>>>>>>>>>>>>>>>>>>>>>>>>//
  //    Loading displacement 3 of 13   //
  //<<<<<<<<<<<<<<<<<<<<<<<<<<<<<<<<<<<//

*** tstart() called on bp1-compute00190.data.bp.acrc.priv
*** at Mon Apr 19 15:57:15 2021

   => Loading Basis Set <=

    Name: AUG-CC-PV(Q+D)Z
    Role: ORBITAL
    Keyword: BASIS
    atoms 1   entry C          line   319 file /work/zw18965/.conda/envs/p4env/share/psi4/basis/aug-cc-pv_qpd_z.gbs 
    atoms 2   entry S          line  1148 file /work/zw18965/.conda/envs/p4env/share/psi4/basis/aug-cc-pv_qpd_z.gbs 
    atoms 3-4 entry H          line    56 file /work/zw18965/.conda/envs/p4env/share/psi4/basis/aug-cc-pv_qpd_z.gbs 


         ---------------------------------------------------------
                                   SCF
               by Justin Turney, Rob Parrish, Andy Simmonett
                          and Daniel G. A. Smith
                              RKS Reference
                       24 Threads, 137329 MiB Core
         ---------------------------------------------------------

  ==> Geometry <==

    Molecular point group: c1
    Full point group: C1

    Geometry (in Angstrom), charge = 0, multiplicity = 1:

       Center              X                  Y                   Z               Mass       
    ------------   -----------------  -----------------  -----------------  -----------------
         C           -1.089593080341     0.086672989304     0.011336819681    12.000000000000
         S            0.515215959610    -0.040977606448    -0.005361443447    31.972071174400
         H           -1.659122649434     0.349902868383     0.900862272902     1.007825032230
         H           -1.711903330367    -0.081936634546    -0.865762315885     1.007825032230

  Running in c1 symmetry.

  Rotational constants: A =     10.10608  B =      0.58854  C =      0.55616 [cm^-1]
  Rotational constants: A = 302972.63851  B =  17644.10947  C =  16673.12278 [MHz]
  Nuclear repulsion =   44.770051176422477

  Charge       = 0
  Multiplicity = 1
  Electrons    = 24
  Nalpha       = 12
  Nbeta        = 12

  ==> Algorithm <==

  SCF Algorithm Type is DF.
  DIIS enabled.
  MOM disabled.
  Fractional occupation disabled.
  Guess Type is SAD.
  Energy threshold   = 1.00e-08
  Density threshold  = 1.00e-08
  Integral threshold = 0.00e+00

  ==> Primary Basis <==

  Basis Set: AUG-CC-PV(Q+D)Z
    Blend: AUG-CC-PV(Q+D)Z
    Number of shells: 71
    Number of basis function: 261
    Number of Cartesian functions: 330
    Spherical Harmonics?: true
    Max angular momentum: 4

  ==> DFT Potential <==

   => Composite Functional: WB97M-V <= 

    wB97M-V Hyb-GGA Exchange-Correlation Functional

    N. Mardirossian and M. Head-Gordon, J. Chem. Phys. 144, 214110 (2016)

    Deriv               =              1
    GGA                 =           TRUE
    Meta                =           TRUE

    Exchange Hybrid     =           TRUE
    MP2 Hybrid          =          FALSE

   => Exchange-Correlation Functionals <=

    1.0000   wB97M-V exchange-correlation functional

   => Exact (HF) Exchange <=

    0.8500            HF,LR [omega = 0.3000]
    0.1500               HF 

   => VV10 Non-Local Parameters <=

    VV10 B              =     6.0000E+00
    VV10 C              =     1.0000E-02

   => Molecular Quadrature <=

    Radial Scheme          =       TREUTLER
    Pruning Scheme         =           FLAT
    Nuclear Scheme         =       TREUTLER

    BS radius alpha        =              1
    Pruning alpha          =              1
    Radial Points          =             75
    Spherical Points       =            302
    Total Points           =          90600
    Total Blocks           =            742
    Max Points             =            256
    Max Functions          =            261

   => Loading Basis Set <=

    Name: (AUG-CC-PV(Q+D)Z AUX)
    Role: JKFIT
    Keyword: DF_BASIS_SCF
    atoms 1   entry C          line   178 file /work/zw18965/.conda/envs/p4env/share/psi4/basis/aug-cc-pvqz-jkfit.gbs 
    atoms 2   entry S          line   810 file /work/zw18965/.conda/envs/p4env/share/psi4/basis/aug-cc-pvqz-jkfit.gbs 
    atoms 3-4 entry H          line    70 file /work/zw18965/.conda/envs/p4env/share/psi4/basis/aug-cc-pvqz-jkfit.gbs 

  ==> Pre-Iterations <==

   -------------------------------------------------------
    Irrep   Nso     Nmo     Nalpha   Nbeta   Ndocc  Nsocc
   -------------------------------------------------------
     A        261     261       0       0       0       0
   -------------------------------------------------------
    Total     261     261      12      12      12       0
   -------------------------------------------------------

  ==> Integral Setup <==

  ==> DiskDFJK: Density-Fitted J/K Matrices <==

    J tasked:                  Yes
    K tasked:                  Yes
    wK tasked:                 Yes
    Omega:               3.000E-01
    OpenMP threads:             24
    Integrals threads:          24
    Memory [MiB]:           101430
    Algorithm:                Core
    Integral Cache:           NONE
    Schwarz Cutoff:          1E-12
    Fitting Condition:       1E-10

   => Auxiliary Basis Set <=

  Basis Set: (AUG-CC-PV(Q+D)Z AUX)
    Blend: AUG-CC-PVQZ-JKFIT
    Number of shells: 116
    Number of basis function: 478
    Number of Cartesian functions: 647
    Spherical Harmonics?: true
    Max angular momentum: 5

  Cached 100.0% of DFT collocation blocks in 1.529 [GiB].

  Minimum eigenvalue in the overlap matrix is 2.3416111217E-05.
  Using Symmetric Orthogonalization.

  SCF Guess: Superposition of Atomic Densities via on-the-fly atomic UHF.

  ==> Iterations <==

                           Total Energy        Delta E     RMS |[F,P]|

   @DF-RKS iter SAD:  -436.95127493964117   -4.36951e+02   0.00000e+00 
   @DF-RKS iter   1:  -437.39300304533907   -4.41728e-01   1.46222e-03 DIIS
   @DF-RKS iter   2:  -437.41422780673315   -2.12248e-02   1.13875e-03 DIIS
   @DF-RKS iter   3:  -437.45591299163726   -4.16852e-02   2.62980e-04 DIIS
   @DF-RKS iter   4:  -437.45816723895445   -2.25425e-03   4.64629e-05 DIIS
   @DF-RKS iter   5:  -437.45828367184595   -1.16433e-04   1.27497e-05 DIIS
   @DF-RKS iter   6:  -437.45829226076370   -8.58892e-06   4.46640e-06 DIIS
   @DF-RKS iter   7:  -437.45829385311276   -1.59235e-06   1.00687e-06 DIIS
   @DF-RKS iter   8:  -437.45829397976433   -1.26652e-07   1.82684e-07 DIIS
   @DF-RKS iter   9:  -437.45829398378851   -4.02417e-09   4.19419e-08 DIIS
   @DF-RKS iter  10:  -437.45829398393039   -1.41881e-10   6.15145e-09 DIIS
  Energy and wave function converged.


  ==> Post-Iterations <==

    Orbital Energies [Eh]
    ---------------------

    Doubly Occupied:                                                      

       1A    -89.208857     2A    -10.416909     3A     -8.123243  
       4A     -6.033811     5A     -6.031533     6A     -6.024694  
       7A     -0.922008     8A     -0.720161     9A     -0.569268  
      10A     -0.500002    11A     -0.417527    12A     -0.329878  

    Virtual:                                                              

      13A     -0.017432    14A      0.011577    15A      0.029085  
      16A      0.034437    17A      0.054990    18A      0.069803  
      19A      0.074075    20A      0.084697    21A      0.102611  
      22A      0.112111    23A      0.138295    24A      0.150249  
      25A      0.155783    26A      0.179665    27A      0.184657  
      28A      0.208388    29A      0.219701    30A      0.220686  
      31A      0.227063    32A      0.241582    33A      0.245505  
      34A      0.259464    35A      0.266617    36A      0.277396  
      37A      0.291738    38A      0.298508    39A      0.304654  
      40A      0.321166    41A      0.321331    42A      0.364750  
      43A      0.381614    44A      0.417427    45A      0.437369  
      46A      0.443508    47A      0.458933    48A      0.475459  
      49A      0.489885    50A      0.495393    51A      0.504814  
      52A      0.508448    53A      0.530752    54A      0.531974  
      55A      0.546177    56A      0.584711    57A      0.603687  
      58A      0.624125    59A      0.628797    60A      0.632507  
      61A      0.640169    62A      0.662882    63A      0.669494  
      64A      0.686089    65A      0.693735    66A      0.724848  
      67A      0.739295    68A      0.743975    69A      0.754590  
      70A      0.767635    71A      0.776686    72A      0.852020  
      73A      0.855442    74A      0.861739    75A      0.897264  
      76A      0.933938    77A      0.962002    78A      0.990360  
      79A      0.990446    80A      1.010368    81A      1.029786  
      82A      1.048797    83A      1.049832    84A      1.080102  
      85A      1.105470    86A      1.174300    87A      1.191134  
      88A      1.227850    89A      1.267196    90A      1.270874  
      91A      1.286134    92A      1.323821    93A      1.350776  
      94A      1.372865    95A      1.385117    96A      1.393511  
      97A      1.397990    98A      1.413176    99A      1.420274  
     100A      1.456436   101A      1.472521   102A      1.483325  
     103A      1.498053   104A      1.525803   105A      1.527393  
     106A      1.543086   107A      1.570659   108A      1.577256  
     109A      1.580952   110A      1.603244   111A      1.632938  
     112A      1.680950   113A      1.692140   114A      1.740656  
     115A      1.747077   116A      1.794715   117A      1.824876  
     118A      1.831873   119A      1.853791   120A      1.893692  
     121A      1.918686   122A      1.922444   123A      1.929081  
     124A      1.938137   125A      1.968824   126A      1.983833  
     127A      2.025466   128A      2.029239   129A      2.055832  
     130A      2.076172   131A      2.101157   132A      2.117559  
     133A      2.141959   134A      2.145684   135A      2.153972  
     136A      2.258885   137A      2.355194   138A      2.373946  
     139A      2.399508   140A      2.416684   141A      2.499368  
     142A      2.501532   143A      2.556003   144A      2.571819  
     145A      2.573831   146A      2.605415   147A      2.644656  
     148A      2.698888   149A      2.717942   150A      2.754042  
     151A      2.792174   152A      2.816747   153A      2.827719  
     154A      2.858846   155A      2.883265   156A      2.935586  
     157A      3.023576   158A      3.126921   159A      3.170065  
     160A      3.201418   161A      3.216253   162A      3.274570  
     163A      3.351054   164A      3.414799   165A      3.424825  
     166A      3.465131   167A      3.466859   168A      3.499123  
     169A      3.541321   170A      3.581081   171A      3.593845  
     172A      3.613190   173A      3.615103   174A      3.687777  
     175A      3.732830   176A      3.749498   177A      3.757645  
     178A      3.832482   179A      3.836595   180A      3.850124  
     181A      3.881332   182A      3.887563   183A      3.944639  
     184A      3.990216   185A      4.030337   186A      4.228697  
     187A      4.235470   188A      4.268351   189A      4.338669  
     190A      4.362439   191A      4.381599   192A      4.492617  
     193A      4.503517   194A      4.781269   195A      4.913052  
     196A      5.609483   197A      5.652773   198A      5.688317  
     199A      5.813810   200A      5.833433   201A      5.895612  
     202A      5.902274   203A      6.012864   204A      6.015978  
     205A      6.024310   206A      6.155078   207A      6.226783  
     208A      6.313896   209A      6.319202   210A      6.348783  
     211A      6.366483   212A      6.491016   213A      6.521584  
     214A      6.549470   215A      6.639019   216A      6.651175  
     217A      6.677411   218A      6.724659   219A      6.791824  
     220A      6.817579   221A      6.952420   222A      7.126375  
     223A      7.161016   224A      7.192486   225A      7.310112  
     226A      7.548525   227A      7.808684   228A      7.835194  
     229A      7.866269   230A      7.996261   231A      8.133007  
     232A      8.144556   233A      8.212430   234A      8.380902  
     235A      8.486763   236A      8.588776   237A      8.680008  
     238A      8.721392   239A      8.790240   240A      8.812630  
     241A      8.892726   242A      8.924302   243A      9.083621  
     244A      9.090219   245A      9.268171   246A      9.278542  
     247A      9.328586   248A      9.386915   249A      9.570504  
     250A      9.611791   251A      9.636584   252A      9.795353  
     253A      9.824477   254A     10.024747   255A     10.261858  
     256A     10.347334   257A     10.545604   258A     11.933214  
     259A     12.412504   260A     20.872606   261A     25.215789  

    Final Occupation by Irrep:
              A 
    DOCC [    12 ]

  @DF-RKS Final Energy:  -437.45829398393039

   => Energetics <=

    Nuclear Repulsion Energy =             44.7700511764224771
    One-Electron Energy =                -690.8644297908596172
    Two-Electron Energy =                 232.5406555605327128
    DFT Exchange-Correlation Energy =     -24.0038106901868957
    Empirical Dispersion Energy =           0.0000000000000000
    VV10 Nonlocal Energy =                  0.0992397601609550
    Total Energy =                       -437.4582939839303322

Computation Completed


Properties will be evaluated at   0.000000,   0.000000,   0.000000 [a0]

Properties computed using the SCF density matrix

  Nuclear Dipole Moment: [e a0]
     X:    -3.1466      Y:     0.2501      Z:     0.0328

  Electronic Dipole Moment: [e a0]
     X:     2.4617      Y:    -0.1957      Z:    -0.0256

  Dipole Moment: [e a0]
     X:    -0.6850      Y:     0.0544      Z:     0.0071     Total:     0.6872

  Dipole Moment: [D]
     X:    -1.7410      Y:     0.1384      Z:     0.0182     Total:     1.7466


*** tstop() called on bp1-compute00190.data.bp.acrc.priv at Mon Apr 19 15:57:23 2021
Module time:
	user time   =     160.99 seconds =       2.68 minutes
	system time =       3.73 seconds =       0.06 minutes
	total time  =          8 seconds =       0.13 minutes
Total time:
	user time   =     501.60 seconds =       8.36 minutes
	system time =      17.92 seconds =       0.30 minutes
	total time  =         24 seconds =       0.40 minutes

  //>>>>>>>>>>>>>>>>>>>>>>>>>>>>>>>>>>>//
  //    Loading displacement 4 of 13   //
  //<<<<<<<<<<<<<<<<<<<<<<<<<<<<<<<<<<<//

*** tstart() called on bp1-compute00190.data.bp.acrc.priv
*** at Mon Apr 19 15:57:23 2021

   => Loading Basis Set <=

    Name: AUG-CC-PV(Q+D)Z
    Role: ORBITAL
    Keyword: BASIS
    atoms 1   entry C          line   319 file /work/zw18965/.conda/envs/p4env/share/psi4/basis/aug-cc-pv_qpd_z.gbs 
    atoms 2   entry S          line  1148 file /work/zw18965/.conda/envs/p4env/share/psi4/basis/aug-cc-pv_qpd_z.gbs 
    atoms 3-4 entry H          line    56 file /work/zw18965/.conda/envs/p4env/share/psi4/basis/aug-cc-pv_qpd_z.gbs 


         ---------------------------------------------------------
                                   SCF
               by Justin Turney, Rob Parrish, Andy Simmonett
                          and Daniel G. A. Smith
                              RKS Reference
                       24 Threads, 137329 MiB Core
         ---------------------------------------------------------

  ==> Geometry <==

    Molecular point group: c1
    Full point group: C1

    Geometry (in Angstrom), charge = 0, multiplicity = 1:

       Center              X                  Y                   Z               Mass       
    ------------   -----------------  -----------------  -----------------  -----------------
         C           -1.090248296876     0.086333191456     0.011330587138    12.000000000000
         S            0.515439588105    -0.040954646441    -0.005358496826    31.972071174400
         H           -1.658613054448     0.351549182539     0.900851020520     1.007825032230
         H           -1.711705726960    -0.080265413308    -0.865770331799     1.007825032230

  Running in c1 symmetry.

  Rotational constants: A =     10.10604  B =      0.58809  C =      0.55575 [cm^-1]
  Rotational constants: A = 302971.37885  B =  17630.42142  C =  16660.90268 [MHz]
  Nuclear repulsion =   44.755937358565163

  Charge       = 0
  Multiplicity = 1
  Electrons    = 24
  Nalpha       = 12
  Nbeta        = 12

  ==> Algorithm <==

  SCF Algorithm Type is DF.
  DIIS enabled.
  MOM disabled.
  Fractional occupation disabled.
  Guess Type is SAD.
  Energy threshold   = 1.00e-08
  Density threshold  = 1.00e-08
  Integral threshold = 0.00e+00

  ==> Primary Basis <==

  Basis Set: AUG-CC-PV(Q+D)Z
    Blend: AUG-CC-PV(Q+D)Z
    Number of shells: 71
    Number of basis function: 261
    Number of Cartesian functions: 330
    Spherical Harmonics?: true
    Max angular momentum: 4

  ==> DFT Potential <==

   => Composite Functional: WB97M-V <= 

    wB97M-V Hyb-GGA Exchange-Correlation Functional

    N. Mardirossian and M. Head-Gordon, J. Chem. Phys. 144, 214110 (2016)

    Deriv               =              1
    GGA                 =           TRUE
    Meta                =           TRUE

    Exchange Hybrid     =           TRUE
    MP2 Hybrid          =          FALSE

   => Exchange-Correlation Functionals <=

    1.0000   wB97M-V exchange-correlation functional

   => Exact (HF) Exchange <=

    0.8500            HF,LR [omega = 0.3000]
    0.1500               HF 

   => VV10 Non-Local Parameters <=

    VV10 B              =     6.0000E+00
    VV10 C              =     1.0000E-02

   => Molecular Quadrature <=

    Radial Scheme          =       TREUTLER
    Pruning Scheme         =           FLAT
    Nuclear Scheme         =       TREUTLER

    BS radius alpha        =              1
    Pruning alpha          =              1
    Radial Points          =             75
    Spherical Points       =            302
    Total Points           =          90600
    Total Blocks           =            739
    Max Points             =            256
    Max Functions          =            261

   => Loading Basis Set <=

    Name: (AUG-CC-PV(Q+D)Z AUX)
    Role: JKFIT
    Keyword: DF_BASIS_SCF
    atoms 1   entry C          line   178 file /work/zw18965/.conda/envs/p4env/share/psi4/basis/aug-cc-pvqz-jkfit.gbs 
    atoms 2   entry S          line   810 file /work/zw18965/.conda/envs/p4env/share/psi4/basis/aug-cc-pvqz-jkfit.gbs 
    atoms 3-4 entry H          line    70 file /work/zw18965/.conda/envs/p4env/share/psi4/basis/aug-cc-pvqz-jkfit.gbs 

  ==> Pre-Iterations <==

   -------------------------------------------------------
    Irrep   Nso     Nmo     Nalpha   Nbeta   Ndocc  Nsocc
   -------------------------------------------------------
     A        261     261       0       0       0       0
   -------------------------------------------------------
    Total     261     261      12      12      12       0
   -------------------------------------------------------

  ==> Integral Setup <==

  ==> DiskDFJK: Density-Fitted J/K Matrices <==

    J tasked:                  Yes
    K tasked:                  Yes
    wK tasked:                 Yes
    Omega:               3.000E-01
    OpenMP threads:             24
    Integrals threads:          24
    Memory [MiB]:           101430
    Algorithm:                Core
    Integral Cache:           NONE
    Schwarz Cutoff:          1E-12
    Fitting Condition:       1E-10

   => Auxiliary Basis Set <=

  Basis Set: (AUG-CC-PV(Q+D)Z AUX)
    Blend: AUG-CC-PVQZ-JKFIT
    Number of shells: 116
    Number of basis function: 478
    Number of Cartesian functions: 647
    Spherical Harmonics?: true
    Max angular momentum: 5

  Cached 100.0% of DFT collocation blocks in 1.529 [GiB].

  Minimum eigenvalue in the overlap matrix is 2.3424402950E-05.
  Using Symmetric Orthogonalization.

  SCF Guess: Superposition of Atomic Densities via on-the-fly atomic UHF.

  ==> Iterations <==

                           Total Energy        Delta E     RMS |[F,P]|

   @DF-RKS iter SAD:  -436.95030101381195   -4.36950e+02   0.00000e+00 
   @DF-RKS iter   1:  -437.39301447165133   -4.42713e-01   1.46187e-03 DIIS
   @DF-RKS iter   2:  -437.41419888905796   -2.11844e-02   1.13880e-03 DIIS
   @DF-RKS iter   3:  -437.45589722727038   -4.16983e-02   2.63299e-04 DIIS
   @DF-RKS iter   4:  -437.45815782271438   -2.26060e-03   4.64801e-05 DIIS
   @DF-RKS iter   5:  -437.45827442633515   -1.16604e-04   1.27679e-05 DIIS
   @DF-RKS iter   6:  -437.45828304662933   -8.62029e-06   4.47904e-06 DIIS
   @DF-RKS iter   7:  -437.45828464931213   -1.60268e-06   1.01026e-06 DIIS
   @DF-RKS iter   8:  -437.45828477693550   -1.27623e-07   1.82996e-07 DIIS
   @DF-RKS iter   9:  -437.45828478097337   -4.03787e-09   4.20072e-08 DIIS
   @DF-RKS iter  10:  -437.45828478111559   -1.42222e-10   6.16602e-09 DIIS
  Energy and wave function converged.


  ==> Post-Iterations <==

    Orbital Energies [Eh]
    ---------------------

    Doubly Occupied:                                                      

       1A    -89.208908     2A    -10.416943     3A     -8.123263  
       4A     -6.033832     5A     -6.031557     6A     -6.024714  
       7A     -0.921836     8A     -0.720278     9A     -0.569457  
      10A     -0.499896    11A     -0.417383    12A     -0.329915  

    Virtual:                                                              

      13A     -0.017541    14A      0.011572    15A      0.029084  
      16A      0.034437    17A      0.054995    18A      0.069806  
      19A      0.074080    20A      0.084692    21A      0.102604  
      22A      0.112113    23A      0.138282    24A      0.150214  
      25A      0.155783    26A      0.179712    27A      0.184634  
      28A      0.208406    29A      0.219713    30A      0.220694  
      31A      0.227062    32A      0.241574    33A      0.245499  
      34A      0.259455    35A      0.266592    36A      0.277350  
      37A      0.291845    38A      0.298493    39A      0.304605  
      40A      0.321163    41A      0.321390    42A      0.364609  
      43A      0.381660    44A      0.417401    45A      0.437542  
      46A      0.443516    47A      0.458949    48A      0.475496  
      49A      0.489840    50A      0.495295    51A      0.504770  
      52A      0.508440    53A      0.530780    54A      0.531949  
      55A      0.546179    56A      0.584758    57A      0.603734  
      58A      0.624083    59A      0.628804    60A      0.632571  
      61A      0.640163    62A      0.662825    63A      0.669425  
      64A      0.686024    65A      0.693721    66A      0.724861  
      67A      0.739299    68A      0.743931    69A      0.754617  
      70A      0.767559    71A      0.776599    72A      0.851840  
      73A      0.855399    74A      0.861831    75A      0.897191  
      76A      0.933969    77A      0.961882    78A      0.990381  
      79A      0.990665    80A      1.010297    81A      1.029746  
      82A      1.048731    83A      1.049875    84A      1.080026  
      85A      1.105471    86A      1.174418    87A      1.191178  
      88A      1.227732    89A      1.266902    90A      1.270923  
      91A      1.286062    92A      1.323684    93A      1.350786  
      94A      1.372962    95A      1.385152    96A      1.393500  
      97A      1.397983    98A      1.413188    99A      1.420278  
     100A      1.456302   101A      1.472406   102A      1.483365  
     103A      1.497751   104A      1.525786   105A      1.527234  
     106A      1.543052   107A      1.570750   108A      1.577257  
     109A      1.580827   110A      1.603160   111A      1.632849  
     112A      1.680735   113A      1.691945   114A      1.740382  
     115A      1.747224   116A      1.794496   117A      1.824901  
     118A      1.831567   119A      1.853592   120A      1.893655  
     121A      1.918432   122A      1.922349   123A      1.929100  
     124A      1.938086   125A      1.968696   126A      1.983834  
     127A      2.025543   128A      2.029498   129A      2.055936  
     130A      2.076434   131A      2.101457   132A      2.117811  
     133A      2.142158   134A      2.145604   135A      2.153847  
     136A      2.258900   137A      2.355359   138A      2.373884  
     139A      2.399504   140A      2.416591   141A      2.499003  
     142A      2.501664   143A      2.555567   144A      2.571832  
     145A      2.573986   146A      2.605413   147A      2.644665  
     148A      2.698382   149A      2.717943   150A      2.754396  
     151A      2.792140   152A      2.816398   153A      2.827482  
     154A      2.858247   155A      2.883091   156A      2.935490  
     157A      3.023371   158A      3.127363   159A      3.169268  
     160A      3.201725   161A      3.216223   162A      3.275043  
     163A      3.351189   164A      3.415197   165A      3.424753  
     166A      3.465141   167A      3.466972   168A      3.499053  
     169A      3.541710   170A      3.581262   171A      3.593764  
     172A      3.613148   173A      3.615146   174A      3.687772  
     175A      3.732999   176A      3.749110   177A      3.757324  
     178A      3.832373   179A      3.836144   180A      3.850016  
     181A      3.880639   182A      3.887278   183A      3.945245  
     184A      3.990064   185A      4.031002   186A      4.228564  
     187A      4.235444   188A      4.267369   189A      4.338578  
     190A      4.362209   191A      4.380986   192A      4.493239  
     193A      4.504548   194A      4.781133   195A      4.912807  
     196A      5.608894   197A      5.652463   198A      5.688366  
     199A      5.813168   200A      5.833025   201A      5.895971  
     202A      5.902055   203A      6.011423   204A      6.015809  
     205A      6.023943   206A      6.154653   207A      6.226007  
     208A      6.314024   209A      6.319095   210A      6.347705  
     211A      6.366240   212A      6.491212   213A      6.522028  
     214A      6.549960   215A      6.639171   216A      6.650854  
     217A      6.678822   218A      6.724960   219A      6.792364  
     220A      6.818665   221A      6.952362   222A      7.125828  
     223A      7.160292   224A      7.193759   225A      7.311007  
     226A      7.547990   227A      7.809067   228A      7.837404  
     229A      7.867389   230A      7.996526   231A      8.133265  
     232A      8.145242   233A      8.211585   234A      8.381328  
     235A      8.486445   236A      8.588573   237A      8.680426  
     238A      8.722662   239A      8.791344   240A      8.812718  
     241A      8.892565   242A      8.924277   243A      9.084616  
     244A      9.090023   245A      9.269140   246A      9.278994  
     247A      9.328641   248A      9.387278   249A      9.570165  
     250A      9.612602   251A      9.637740   252A      9.798790  
     253A      9.827532   254A     10.025926   255A     10.264272  
     256A     10.347558   257A     10.548498   258A     11.934007  
     259A     12.416473   260A     20.865038   261A     25.221457  

    Final Occupation by Irrep:
              A 
    DOCC [    12 ]

  @DF-RKS Final Energy:  -437.45828478111559

   => Energetics <=

    Nuclear Repulsion Energy =             44.7559373585651628
    One-Electron Energy =                -690.8360587332118712
    Two-Electron Energy =                 232.5262926748414998
    DFT Exchange-Correlation Energy =     -24.0036967625046493
    Empirical Dispersion Energy =           0.0000000000000000
    VV10 Nonlocal Energy =                  0.0992406811942912
    Total Energy =                       -437.4582847811155943

Computation Completed


Properties will be evaluated at   0.000000,   0.000000,   0.000000 [a0]

Properties computed using the SCF density matrix

  Nuclear Dipole Moment: [e a0]
     X:    -3.1460      Y:     0.2532      Z:     0.0327

  Electronic Dipole Moment: [e a0]
     X:     2.4603      Y:    -0.1977      Z:    -0.0258

  Dipole Moment: [e a0]
     X:    -0.6857      Y:     0.0555      Z:     0.0069     Total:     0.6880

  Dipole Moment: [D]
     X:    -1.7429      Y:     0.1411      Z:     0.0175     Total:     1.7487


*** tstop() called on bp1-compute00190.data.bp.acrc.priv at Mon Apr 19 15:57:30 2021
Module time:
	user time   =     171.06 seconds =       2.85 minutes
	system time =       4.16 seconds =       0.07 minutes
	total time  =          7 seconds =       0.12 minutes
Total time:
	user time   =     672.81 seconds =      11.21 minutes
	system time =      22.09 seconds =       0.37 minutes
	total time  =         31 seconds =       0.52 minutes

  //>>>>>>>>>>>>>>>>>>>>>>>>>>>>>>>>>>>//
  //    Loading displacement 5 of 13   //
  //<<<<<<<<<<<<<<<<<<<<<<<<<<<<<<<<<<<//

*** tstart() called on bp1-compute00190.data.bp.acrc.priv
*** at Mon Apr 19 15:57:30 2021

   => Loading Basis Set <=

    Name: AUG-CC-PV(Q+D)Z
    Role: ORBITAL
    Keyword: BASIS
    atoms 1   entry C          line   319 file /work/zw18965/.conda/envs/p4env/share/psi4/basis/aug-cc-pv_qpd_z.gbs 
    atoms 2   entry S          line  1148 file /work/zw18965/.conda/envs/p4env/share/psi4/basis/aug-cc-pv_qpd_z.gbs 
    atoms 3-4 entry H          line    56 file /work/zw18965/.conda/envs/p4env/share/psi4/basis/aug-cc-pv_qpd_z.gbs 


         ---------------------------------------------------------
                                   SCF
               by Justin Turney, Rob Parrish, Andy Simmonett
                          and Daniel G. A. Smith
                              RKS Reference
                       24 Threads, 137329 MiB Core
         ---------------------------------------------------------

  ==> Geometry <==

    Molecular point group: c1
    Full point group: C1

    Geometry (in Angstrom), charge = 0, multiplicity = 1:

       Center              X                  Y                   Z               Mass       
    ------------   -----------------  -----------------  -----------------  -----------------
         C           -1.090248296876     0.087082919480     0.011350889338    12.000000000000
         S            0.515454326491    -0.041033723575    -0.005368095295    31.972071174400
         H           -1.659138579596     0.348363348715     0.900885429156     1.007825032230
         H           -1.711647759860    -0.083497832964    -0.865741975047     1.007825032230

  Running in c1 symmetry.

  Rotational constants: A =     10.10604  B =      0.58804  C =      0.55571 [cm^-1]
  Rotational constants: A = 302971.38473  B =  17629.11852  C =  16659.73914 [MHz]
  Nuclear repulsion =   44.754594909476268

  Charge       = 0
  Multiplicity = 1
  Electrons    = 24
  Nalpha       = 12
  Nbeta        = 12

  ==> Algorithm <==

  SCF Algorithm Type is DF.
  DIIS enabled.
  MOM disabled.
  Fractional occupation disabled.
  Guess Type is SAD.
  Energy threshold   = 1.00e-08
  Density threshold  = 1.00e-08
  Integral threshold = 0.00e+00

  ==> Primary Basis <==

  Basis Set: AUG-CC-PV(Q+D)Z
    Blend: AUG-CC-PV(Q+D)Z
    Number of shells: 71
    Number of basis function: 261
    Number of Cartesian functions: 330
    Spherical Harmonics?: true
    Max angular momentum: 4

  ==> DFT Potential <==

   => Composite Functional: WB97M-V <= 

    wB97M-V Hyb-GGA Exchange-Correlation Functional

    N. Mardirossian and M. Head-Gordon, J. Chem. Phys. 144, 214110 (2016)

    Deriv               =              1
    GGA                 =           TRUE
    Meta                =           TRUE

    Exchange Hybrid     =           TRUE
    MP2 Hybrid          =          FALSE

   => Exchange-Correlation Functionals <=

    1.0000   wB97M-V exchange-correlation functional

   => Exact (HF) Exchange <=

    0.8500            HF,LR [omega = 0.3000]
    0.1500               HF 

   => VV10 Non-Local Parameters <=

    VV10 B              =     6.0000E+00
    VV10 C              =     1.0000E-02

   => Molecular Quadrature <=

    Radial Scheme          =       TREUTLER
    Pruning Scheme         =           FLAT
    Nuclear Scheme         =       TREUTLER

    BS radius alpha        =              1
    Pruning alpha          =              1
    Radial Points          =             75
    Spherical Points       =            302
    Total Points           =          90600
    Total Blocks           =            741
    Max Points             =            254
    Max Functions          =            261

   => Loading Basis Set <=

    Name: (AUG-CC-PV(Q+D)Z AUX)
    Role: JKFIT
    Keyword: DF_BASIS_SCF
    atoms 1   entry C          line   178 file /work/zw18965/.conda/envs/p4env/share/psi4/basis/aug-cc-pvqz-jkfit.gbs 
    atoms 2   entry S          line   810 file /work/zw18965/.conda/envs/p4env/share/psi4/basis/aug-cc-pvqz-jkfit.gbs 
    atoms 3-4 entry H          line    70 file /work/zw18965/.conda/envs/p4env/share/psi4/basis/aug-cc-pvqz-jkfit.gbs 

  ==> Pre-Iterations <==

   -------------------------------------------------------
    Irrep   Nso     Nmo     Nalpha   Nbeta   Ndocc  Nsocc
   -------------------------------------------------------
     A        261     261       0       0       0       0
   -------------------------------------------------------
    Total     261     261      12      12      12       0
   -------------------------------------------------------

  ==> Integral Setup <==

  ==> DiskDFJK: Density-Fitted J/K Matrices <==

    J tasked:                  Yes
    K tasked:                  Yes
    wK tasked:                 Yes
    Omega:               3.000E-01
    OpenMP threads:             24
    Integrals threads:          24
    Memory [MiB]:           101430
    Algorithm:                Core
    Integral Cache:           NONE
    Schwarz Cutoff:          1E-12
    Fitting Condition:       1E-10

   => Auxiliary Basis Set <=

  Basis Set: (AUG-CC-PV(Q+D)Z AUX)
    Blend: AUG-CC-PVQZ-JKFIT
    Number of shells: 116
    Number of basis function: 478
    Number of Cartesian functions: 647
    Spherical Harmonics?: true
    Max angular momentum: 5

  Cached 100.0% of DFT collocation blocks in 1.529 [GiB].

  Minimum eigenvalue in the overlap matrix is 2.3425171309E-05.
  Using Symmetric Orthogonalization.

  SCF Guess: Superposition of Atomic Densities via on-the-fly atomic UHF.

  ==> Iterations <==

                           Total Energy        Delta E     RMS |[F,P]|

   @DF-RKS iter SAD:  -436.95021287751558   -4.36950e+02   0.00000e+00 
   @DF-RKS iter   1:  -437.39301521472800   -4.42802e-01   1.46184e-03 DIIS
   @DF-RKS iter   2:  -437.41419619670199   -2.11810e-02   1.13881e-03 DIIS
   @DF-RKS iter   3:  -437.45589569900068   -4.16995e-02   2.63330e-04 DIIS
   @DF-RKS iter   4:  -437.45815690980464   -2.26121e-03   4.64818e-05 DIIS
   @DF-RKS iter   5:  -437.45827353114998   -1.16621e-04   1.27696e-05 DIIS
   @DF-RKS iter   6:  -437.45828215441708   -8.62327e-06   4.48017e-06 DIIS
   @DF-RKS iter   7:  -437.45828375805894   -1.60364e-06   1.01057e-06 DIIS
   @DF-RKS iter   8:  -437.45828388577269   -1.27714e-07   1.83027e-07 DIIS
   @DF-RKS iter   9:  -437.45828388981244   -4.03975e-09   4.20134e-08 DIIS
   @DF-RKS iter  10:  -437.45828388995523   -1.42791e-10   6.16566e-09 DIIS
  Energy and wave function converged.


  ==> Post-Iterations <==

    Orbital Energies [Eh]
    ---------------------

    Doubly Occupied:                                                      

       1A    -89.208913     2A    -10.416947     3A     -8.123265  
       4A     -6.033834     5A     -6.031559     6A     -6.024716  
       7A     -0.921820     8A     -0.720289     9A     -0.569475  
      10A     -0.499886    11A     -0.417370    12A     -0.329919  

    Virtual:                                                              

      13A     -0.017551    14A      0.011572    15A      0.029084  
      16A      0.034437    17A      0.054996    18A      0.069807  
      19A      0.074081    20A      0.084692    21A      0.102604  
      22A      0.112114    23A      0.138280    24A      0.150211  
      25A      0.155783    26A      0.179716    27A      0.184631  
      28A      0.208407    29A      0.219714    30A      0.220695  
      31A      0.227062    32A      0.241573    33A      0.245498  
      34A      0.259454    35A      0.266590    36A      0.277345  
      37A      0.291856    38A      0.298491    39A      0.304600  
      40A      0.321166    41A      0.321393    42A      0.364595  
      43A      0.381664    44A      0.417398    45A      0.437558  
      46A      0.443516    47A      0.458950    48A      0.475500  
      49A      0.489836    50A      0.495286    51A      0.504766  
      52A      0.508440    53A      0.530784    54A      0.531946  
      55A      0.546180    56A      0.584762    57A      0.603739  
      58A      0.624079    59A      0.628805    60A      0.632577  
      61A      0.640162    62A      0.662819    63A      0.669418  
      64A      0.686018    65A      0.693719    66A      0.724863  
      67A      0.739299    68A      0.743927    69A      0.754620  
      70A      0.767552    71A      0.776591    72A      0.851823  
      73A      0.855399    74A      0.861837    75A      0.897184  
      76A      0.933972    77A      0.961871    78A      0.990383  
      79A      0.990686    80A      1.010291    81A      1.029742  
      82A      1.048725    83A      1.049880    84A      1.080019  
      85A      1.105470    86A      1.174429    87A      1.191182  
      88A      1.227721    89A      1.266878    90A      1.270922  
      91A      1.286055    92A      1.323671    93A      1.350787  
      94A      1.372971    95A      1.385155    96A      1.393500  
      97A      1.397982    98A      1.413189    99A      1.420278  
     100A      1.456290   101A      1.472395   102A      1.483368  
     103A      1.497722   104A      1.525785   105A      1.527218  
     106A      1.543049   107A      1.570760   108A      1.577257  
     109A      1.580814   110A      1.603152   111A      1.632840  
     112A      1.680715   113A      1.691927   114A      1.740356  
     115A      1.747238   116A      1.794475   117A      1.824903  
     118A      1.831537   119A      1.853574   120A      1.893652  
     121A      1.918408   122A      1.922341   123A      1.929102  
     124A      1.938083   125A      1.968682   126A      1.983832  
     127A      2.025550   128A      2.029523   129A      2.055946  
     130A      2.076459   131A      2.101486   132A      2.117836  
     133A      2.142175   134A      2.145596   135A      2.153834  
     136A      2.258902   137A      2.355375   138A      2.373879  
     139A      2.399504   140A      2.416582   141A      2.498986  
     142A      2.501658   143A      2.555526   144A      2.571834  
     145A      2.574001   146A      2.605412   147A      2.644665  
     148A      2.698334   149A      2.717942   150A      2.754430  
     151A      2.792136   152A      2.816366   153A      2.827459  
     154A      2.858190   155A      2.883075   156A      2.935480  
     157A      3.023351   158A      3.127406   159A      3.169192  
     160A      3.201756   161A      3.216220   162A      3.275087  
     163A      3.351202   164A      3.415234   165A      3.424747  
     166A      3.465142   167A      3.466983   168A      3.499046  
     169A      3.541746   170A      3.581282   171A      3.593755  
     172A      3.613145   173A      3.615149   174A      3.687772  
     175A      3.733015   176A      3.749073   177A      3.757294  
     178A      3.832362   179A      3.836101   180A      3.850005  
     181A      3.880574   182A      3.887250   183A      3.945303  
     184A      3.990050   185A      4.031065   186A      4.228553  
     187A      4.235440   188A      4.267279   189A      4.338569  
     190A      4.362188   191A      4.380927   192A      4.493296  
     193A      4.504647   194A      4.781123   195A      4.912783  
     196A      5.608837   197A      5.652432   198A      5.688372  
     199A      5.813107   200A      5.832984   201A      5.896006  
     202A      5.902033   203A      6.011285   204A      6.015793  
     205A      6.023908   206A      6.154614   207A      6.225931  
     208A      6.314037   209A      6.319086   210A      6.347602  
     211A      6.366218   212A      6.491231   213A      6.522070  
     214A      6.550005   215A      6.639186   216A      6.650822  
     217A      6.678960   218A      6.724987   219A      6.792416  
     220A      6.818768   221A      6.952355   222A      7.125779  
     223A      7.160221   224A      7.193878   225A      7.311093  
     226A      7.547940   227A      7.809104   228A      7.837655  
     229A      7.867459   230A      7.996551   231A      8.133290  
     232A      8.145309   233A      8.211503   234A      8.381368  
     235A      8.486414   236A      8.588555   237A      8.680466  
     238A      8.722783   239A      8.791450   240A      8.812725  
     241A      8.892549   242A      8.924275   243A      9.084713  
     244A      9.090005   245A      9.269232   246A      9.279038  
     247A      9.328647   248A      9.387313   249A      9.570130  
     250A      9.612681   251A      9.637853   252A      9.799135  
     253A      9.827808   254A     10.026041   255A     10.264505  
     256A     10.347580   257A     10.548775   258A     11.934082  
     259A     12.416853   260A     20.864321   261A     25.221998  

    Final Occupation by Irrep:
              A 
    DOCC [    12 ]

  @DF-RKS Final Energy:  -437.45828388995523

   => Energetics <=

    Nuclear Repulsion Energy =             44.7545949094762676
    One-Electron Energy =                -690.8333600617985439
    Two-Electron Energy =                 232.5249265418825075
    DFT Exchange-Correlation Energy =     -24.0036860487741315
    Empirical Dispersion Energy =           0.0000000000000000
    VV10 Nonlocal Energy =                  0.0992407692586253
    Total Energy =                       -437.4582838899552257

Computation Completed


Properties will be evaluated at   0.000000,   0.000000,   0.000000 [a0]

Properties computed using the SCF density matrix

  Nuclear Dipole Moment: [e a0]
     X:    -3.1464      Y:     0.2472      Z:     0.0328

  Electronic Dipole Moment: [e a0]
     X:     2.4605      Y:    -0.1936      Z:    -0.0254

  Dipole Moment: [e a0]
     X:    -0.6859      Y:     0.0536      Z:     0.0074     Total:     0.6881

  Dipole Moment: [D]
     X:    -1.7435      Y:     0.1362      Z:     0.0188     Total:     1.7489


*** tstop() called on bp1-compute00190.data.bp.acrc.priv at Mon Apr 19 15:57:38 2021
Module time:
	user time   =     160.72 seconds =       2.68 minutes
	system time =       3.26 seconds =       0.05 minutes
	total time  =          8 seconds =       0.13 minutes
Total time:
	user time   =     833.67 seconds =      13.89 minutes
	system time =      25.36 seconds =       0.42 minutes
	total time  =         39 seconds =       0.65 minutes

  //>>>>>>>>>>>>>>>>>>>>>>>>>>>>>>>>>>>//
  //    Loading displacement 6 of 13   //
  //<<<<<<<<<<<<<<<<<<<<<<<<<<<<<<<<<<<//

*** tstart() called on bp1-compute00190.data.bp.acrc.priv
*** at Mon Apr 19 15:57:38 2021

   => Loading Basis Set <=

    Name: AUG-CC-PV(Q+D)Z
    Role: ORBITAL
    Keyword: BASIS
    atoms 1   entry C          line   319 file /work/zw18965/.conda/envs/p4env/share/psi4/basis/aug-cc-pv_qpd_z.gbs 
    atoms 2   entry S          line  1148 file /work/zw18965/.conda/envs/p4env/share/psi4/basis/aug-cc-pv_qpd_z.gbs 
    atoms 3-4 entry H          line    56 file /work/zw18965/.conda/envs/p4env/share/psi4/basis/aug-cc-pv_qpd_z.gbs 


         ---------------------------------------------------------
                                   SCF
               by Justin Turney, Rob Parrish, Andy Simmonett
                          and Daniel G. A. Smith
                              RKS Reference
                       24 Threads, 137329 MiB Core
         ---------------------------------------------------------

  ==> Geometry <==

    Molecular point group: c1
    Full point group: C1

    Geometry (in Angstrom), charge = 0, multiplicity = 1:

       Center              X                  Y                   Z               Mass       
    ------------   -----------------  -----------------  -----------------  -----------------
         C           -1.090248296876     0.086708055468     0.010948219173    12.000000000000
         S            0.515446360411    -0.040990624081    -0.005309217444    31.972071174400
         H           -1.658303797593     0.349855047809     0.902341384521     1.007825032230
         H           -1.712229827303    -0.081893371577    -0.864271236724     1.007825032230

  Running in c1 symmetry.

  Rotational constants: A =     10.10604  B =      0.58807  C =      0.55573 [cm^-1]
  Rotational constants: A = 302971.50346  B =  17629.86219  C =  16660.39693 [MHz]
  Nuclear repulsion =   44.755367647155197

  Charge       = 0
  Multiplicity = 1
  Electrons    = 24
  Nalpha       = 12
  Nbeta        = 12

  ==> Algorithm <==

  SCF Algorithm Type is DF.
  DIIS enabled.
  MOM disabled.
  Fractional occupation disabled.
  Guess Type is SAD.
  Energy threshold   = 1.00e-08
  Density threshold  = 1.00e-08
  Integral threshold = 0.00e+00

  ==> Primary Basis <==

  Basis Set: AUG-CC-PV(Q+D)Z
    Blend: AUG-CC-PV(Q+D)Z
    Number of shells: 71
    Number of basis function: 261
    Number of Cartesian functions: 330
    Spherical Harmonics?: true
    Max angular momentum: 4

  ==> DFT Potential <==

   => Composite Functional: WB97M-V <= 

    wB97M-V Hyb-GGA Exchange-Correlation Functional

    N. Mardirossian and M. Head-Gordon, J. Chem. Phys. 144, 214110 (2016)

    Deriv               =              1
    GGA                 =           TRUE
    Meta                =           TRUE

    Exchange Hybrid     =           TRUE
    MP2 Hybrid          =          FALSE

   => Exchange-Correlation Functionals <=

    1.0000   wB97M-V exchange-correlation functional

   => Exact (HF) Exchange <=

    0.8500            HF,LR [omega = 0.3000]
    0.1500               HF 

   => VV10 Non-Local Parameters <=

    VV10 B              =     6.0000E+00
    VV10 C              =     1.0000E-02

   => Molecular Quadrature <=

    Radial Scheme          =       TREUTLER
    Pruning Scheme         =           FLAT
    Nuclear Scheme         =       TREUTLER

    BS radius alpha        =              1
    Pruning alpha          =              1
    Radial Points          =             75
    Spherical Points       =            302
    Total Points           =          90600
    Total Blocks           =            739
    Max Points             =            256
    Max Functions          =            261

   => Loading Basis Set <=

    Name: (AUG-CC-PV(Q+D)Z AUX)
    Role: JKFIT
    Keyword: DF_BASIS_SCF
    atoms 1   entry C          line   178 file /work/zw18965/.conda/envs/p4env/share/psi4/basis/aug-cc-pvqz-jkfit.gbs 
    atoms 2   entry S          line   810 file /work/zw18965/.conda/envs/p4env/share/psi4/basis/aug-cc-pvqz-jkfit.gbs 
    atoms 3-4 entry H          line    70 file /work/zw18965/.conda/envs/p4env/share/psi4/basis/aug-cc-pvqz-jkfit.gbs 

  ==> Pre-Iterations <==

   -------------------------------------------------------
    Irrep   Nso     Nmo     Nalpha   Nbeta   Ndocc  Nsocc
   -------------------------------------------------------
     A        261     261       0       0       0       0
   -------------------------------------------------------
    Total     261     261      12      12      12       0
   -------------------------------------------------------

  ==> Integral Setup <==

  ==> DiskDFJK: Density-Fitted J/K Matrices <==

    J tasked:                  Yes
    K tasked:                  Yes
    wK tasked:                 Yes
    Omega:               3.000E-01
    OpenMP threads:             24
    Integrals threads:          24
    Memory [MiB]:           101430
    Algorithm:                Core
    Integral Cache:           NONE
    Schwarz Cutoff:          1E-12
    Fitting Condition:       1E-10

   => Auxiliary Basis Set <=

  Basis Set: (AUG-CC-PV(Q+D)Z AUX)
    Blend: AUG-CC-PVQZ-JKFIT
    Number of shells: 116
    Number of basis function: 478
    Number of Cartesian functions: 647
    Spherical Harmonics?: true
    Max angular momentum: 5

  Cached 100.0% of DFT collocation blocks in 1.529 [GiB].

  Minimum eigenvalue in the overlap matrix is 2.3424286867E-05.
  Using Symmetric Orthogonalization.

  SCF Guess: Superposition of Atomic Densities via on-the-fly atomic UHF.

  ==> Iterations <==

                           Total Energy        Delta E     RMS |[F,P]|

   @DF-RKS iter SAD:  -436.95026635751327   -4.36950e+02   0.00000e+00 
   @DF-RKS iter   1:  -437.39301299477819   -4.42747e-01   1.46186e-03 DIIS
   @DF-RKS iter   2:  -437.41419622596715   -2.11832e-02   1.13881e-03 DIIS
[...]

   => Auxiliary Basis Set <=

  Basis Set: (AUG-CC-PV(Q+D)Z AUX)
    Blend: AUG-CC-PVQZ-JKFIT
    Number of shells: 116
    Number of basis function: 478
    Number of Cartesian functions: 647
    Spherical Harmonics?: true
    Max angular momentum: 5

  Cached 100.0% of DFT collocation blocks in 1.530 [GiB].

  Minimum eigenvalue in the overlap matrix is 2.2771250996E-05.
  Using Symmetric Orthogonalization.

  SCF Guess: Superposition of Atomic Densities via on-the-fly atomic UHF.

  ==> Iterations <==

                           Total Energy        Delta E     RMS |[F,P]|

   @DF-RKS iter SAD:  -436.97426915454474   -4.36974e+02   0.00000e+00 
   @DF-RKS iter   1:  -437.39107264067769   -4.16803e-01   1.49113e-03 DIIS
   @DF-RKS iter   2:  -437.41311997071244   -2.20473e-02   1.15978e-03 DIIS
   @DF-RKS iter   3:  -437.45632169751121   -4.32017e-02   2.60665e-04 DIIS
   @DF-RKS iter   4:  -437.45851476989304   -2.19307e-03   4.58407e-05 DIIS
   @DF-RKS iter   5:  -437.45862715453802   -1.12385e-04   1.25074e-05 DIIS
   @DF-RKS iter   6:  -437.45863520122623   -8.04669e-06   4.24393e-06 DIIS
   @DF-RKS iter   7:  -437.45863663871199   -1.43749e-06   9.40725e-07 DIIS
   @DF-RKS iter   8:  -437.45863674967484   -1.10963e-07   1.76244e-07 DIIS
   @DF-RKS iter   9:  -437.45863675332350   -3.64867e-09   3.96029e-08 DIIS
   @DF-RKS iter  10:  -437.45863675345032   -1.26818e-10   5.84189e-09 DIIS
   @DF-RKS iter  11:  -437.45863675345504   -4.71800e-12   1.44246e-09 DIIS
   @DF-RKS iter  12:  -437.45863675345447    5.68434e-13   2.20379e-10 DIIS
   @DF-RKS iter  13:  -437.45863675345527   -7.95808e-13   4.17510e-11 DIIS
  Energy and wave function converged.


  ==> Post-Iterations <==

    Orbital Energies [Eh]
    ---------------------

    Doubly Occupied:                                                      

       1A    -89.206846     2A    -10.413824     3A     -8.121854  
       4A     -6.032456     5A     -6.030020     6A     -6.023283  
       7A     -0.925869     8A     -0.717665     9A     -0.574378  
      10A     -0.499034    11A     -0.419652    12A     -0.328990  

    Virtual:                                                              

      13A     -0.015473    14A      0.011789    15A      0.028958  
      16A      0.034637    17A      0.054841    18A      0.069770  
      19A      0.074072    20A      0.084909    21A      0.102994  
      22A      0.111895    23A      0.137127    24A      0.150729  
      25A      0.155338    26A      0.181987    27A      0.186635  
      28A      0.208905    29A      0.220519    30A      0.221137  
      31A      0.227458    32A      0.241326    33A      0.245244  
      34A      0.258639    35A      0.265723    36A      0.279445  
      37A      0.292644    38A      0.298537    39A      0.305520  
      40A      0.321960    41A      0.322889    42A      0.360116  
      43A      0.380807    44A      0.417939    45A      0.439390  
      46A      0.445367    47A      0.458513    48A      0.477720  
      49A      0.488076    50A      0.496943    51A      0.502899  
      52A      0.508329    53A      0.531262    54A      0.531947  
      55A      0.546544    56A      0.588987    57A      0.603443  
      58A      0.624488    59A      0.633403    60A      0.635908  
      61A      0.640747    62A      0.662013    63A      0.672872  
      64A      0.683751    65A      0.694100    66A      0.726000  
      67A      0.740280    68A      0.747805    69A      0.759853  
      70A      0.766644    71A      0.774087    72A      0.848517  
      73A      0.857260    74A      0.866685    75A      0.896958  
      76A      0.937813    77A      0.958580    78A      0.991061  
      79A      0.994895    80A      1.010582    81A      1.036371  
      82A      1.051535    83A      1.052785    84A      1.082754  
      85A      1.102550    86A      1.174688    87A      1.189498  
      88A      1.227360    89A      1.262934    90A      1.273164  
      91A      1.284715    92A      1.321735    93A      1.350423  
      94A      1.375250    95A      1.385821    96A      1.394945  
      97A      1.399754    98A      1.418139    99A      1.420378  
     100A      1.456469   101A      1.467024   102A      1.480184  
     103A      1.500026   104A      1.526091   105A      1.528750  
     106A      1.547677   107A      1.576921   108A      1.580194  
     109A      1.582594   110A      1.606791   111A      1.640736  
     112A      1.678627   113A      1.688534   114A      1.734664  
     115A      1.757643   116A      1.798787   117A      1.821333  
     118A      1.834133   119A      1.854676   120A      1.899683  
     121A      1.913775   122A      1.920138   123A      1.924785  
     124A      1.932812   125A      1.963683   126A      1.991897  
     127A      2.029489   128A      2.032087   129A      2.062298  
     130A      2.083628   131A      2.113096   132A      2.128491  
     133A      2.147317   134A      2.151874   135A      2.157797  
     136A      2.265299   137A      2.365428   138A      2.368229  
     139A      2.401394   140A      2.425519   141A      2.501485  
     142A      2.504391   143A      2.560047   144A      2.567374  
     145A      2.575366   146A      2.606245   147A      2.652668  
     148A      2.694104   149A      2.720635   150A      2.771800  
     151A      2.794327   152A      2.807133   153A      2.834406  
     154A      2.859547   155A      2.887263   156A      2.943074  
     157A      3.038365   158A      3.132349   159A      3.178011  
     160A      3.223004   161A      3.224239   162A      3.285147  
     163A      3.356724   164A      3.401736   165A      3.427690  
     166A      3.465480   167A      3.470423   168A      3.503646  
     169A      3.547556   170A      3.576696   171A      3.593137  
     172A      3.618297   173A      3.631344   174A      3.688254  
     175A      3.742189   176A      3.750123   177A      3.753416  
     178A      3.849918   179A      3.851800   180A      3.869678  
     181A      3.892878   182A      3.897553   183A      3.959874  
     184A      4.010476   185A      4.044001   186A      4.223015  
     187A      4.238829   188A      4.263816   189A      4.368093  
     190A      4.372524   191A      4.388558   192A      4.499095  
     193A      4.517190   194A      4.794051   195A      4.903528  
     196A      5.604276   197A      5.658124   198A      5.694499  
     199A      5.810957   200A      5.846966   201A      5.899509  
     202A      5.901476   203A      5.995287   204A      6.018851  
     205A      6.023873   206A      6.175123   207A      6.231548  
     208A      6.323610   209A      6.334261   210A      6.363172  
     211A      6.395206   212A      6.497919   213A      6.523612  
     214A      6.559572   215A      6.651259   216A      6.655196  
     217A      6.713691   218A      6.725423   219A      6.817374  
     220A      6.827738   221A      6.933047   222A      7.166276  
     223A      7.177012   224A      7.213479   225A      7.339311  
     226A      7.514015   227A      7.815077   228A      7.916734  
     229A      7.942816   230A      7.998096   231A      8.148073  
     232A      8.166798   233A      8.170359   234A      8.431991  
     235A      8.452081   236A      8.583131   237A      8.679794  
     238A      8.743537   239A      8.799747   240A      8.822092  
     241A      8.887634   242A      8.932530   243A      9.092040  
     244A      9.097009   245A      9.283923   246A      9.309610  
     247A      9.338477   248A      9.428940   249A      9.586320  
     250A      9.621660   251A      9.685642   252A      9.833782  
     253A      9.855849   254A     10.029291   255A     10.308002  
     256A     10.363059   257A     10.596131   258A     11.952653  
     259A     12.447699   260A     20.948142   261A     25.283103  

    Final Occupation by Irrep:
              A 
    DOCC [    12 ]

  @DF-RKS Final Energy:  -437.45863675345527

   => Energetics <=

    Nuclear Repulsion Energy =             45.1340534570521825
    One-Electron Energy =                -691.5959325082674241
    Two-Electron Energy =                 232.9167393515807305
    DFT Exchange-Correlation Energy =     -24.0127227437558766
    Empirical Dispersion Energy =           0.0000000000000000
    VV10 Nonlocal Energy =                  0.0992256899350585
    Total Energy =                       -437.4586367534552664

Computation Completed


Properties will be evaluated at   0.000000,   0.000000,   0.000000 [a0]

Properties computed using the SCF density matrix

  Nuclear Dipole Moment: [e a0]
     X:    -3.0908      Y:     0.2462      Z:     0.0335

  Electronic Dipole Moment: [e a0]
     X:     2.4144      Y:    -0.1924      Z:    -0.0268

  Dipole Moment: [e a0]
     X:    -0.6764      Y:     0.0537      Z:     0.0067     Total:     0.6785

  Dipole Moment: [D]
     X:    -1.7191      Y:     0.1365      Z:     0.0170     Total:     1.7246


*** tstop() called on bp1-compute00190.data.bp.acrc.priv at Mon Apr 19 16:09:11 2021
Module time:
	user time   =     187.97 seconds =       3.13 minutes
	system time =       2.94 seconds =       0.05 minutes
	total time  =          8 seconds =       0.13 minutes
Total time:
	user time   =   16402.31 seconds =     273.37 minutes
	system time =     289.80 seconds =       4.83 minutes
	total time  =        732 seconds =      12.20 minutes

         ----------------------------------------------------------
                                   FINDIF
                     R. A. King and Jonathon Misiewicz
         ---------------------------------------------------------

  Computing second-derivative from energies using projected, 
  symmetry-adapted, cartesian coordinates.

  43 energies passed in, including the reference geometry.
    Using 3-point formula.
    Energy without displacement: -437.4586432777
    Check energies below for precision!
    0: -1        :      -437.4586424127
    0: 1         :      -437.4586422653
    1: -1        :      -437.4586426622
    1: 1         :      -437.4586426576
    2: -1        :      -437.4586411635
    2: 1         :      -437.4586411525
    3: -1        :      -437.4586416770
    3: 1         :      -437.4586414906
    4: -1        :      -437.4586402789
    4: 1         :      -437.4586402848
    5: -1        :      -437.4586397351
    5: 1         :      -437.4586397529
    0: 1, 1: 1   :      -437.4586416745
    0: -1, 1: -1 :      -437.4586418063
    0: 1, 2: 1   :      -437.4586401054
    0: -1, 2: -1 :      -437.4586402138
    1: 1, 2: 1   :      -437.4586396896
    1: -1, 2: -1 :      -437.4586396966
    0: 1, 3: 1   :      -437.4586392715
    0: -1, 3: -1 :      -437.4586395672
    1: 1, 3: 1   :      -437.4586409309
    1: -1, 3: -1 :      -437.4586410979
    2: 1, 3: 1   :      -437.4586393439
    2: -1, 3: -1 :      -437.4586394944
    0: 1, 4: 1   :      -437.4586392035
    0: -1, 4: -1 :      -437.4586393462
    1: 1, 4: 1   :      -437.4586386084
    1: -1, 4: -1 :      -437.4586385991
    2: 1, 4: 1   :      -437.4586340800
    2: -1, 4: -1 :      -437.4586340851
    3: 1, 4: 1   :      -437.4586384861
    3: -1, 4: -1 :      -437.4586386326
    0: 1, 5: 1   :      -437.4586373606
    0: -1, 5: -1 :      -437.4586374717
    1: 1, 5: 1   :      -437.4586391879
    1: -1, 5: -1 :      -437.4586392013
    2: 1, 5: 1   :      -437.4586376434
    2: -1, 5: -1 :      -437.4586376210
    3: 1, 5: 1   :      -437.4586351986
    3: -1, 5: -1 :      -437.4586353313
    4: 1, 5: 1   :      -437.4586368107
    4: -1, 5: -1 :      -437.4586367535

-------------------------------------------------------------


  ==> Harmonic Vibrational Analysis <==

  non-mass-weighted Hessian:       Symmetric? True   Hermitian? True   Lin Dep Dim?  6 (0)
  projection of translations (True) and rotations (True) removed 6 degrees of freedom (6)
  total projector:                 Symmetric? True   Hermitian? True   Lin Dep Dim?  6 (6)
  mass-weighted Hessian:           Symmetric? True   Hermitian? True   Lin Dep Dim?  6 (0)
  pre-proj  low-frequency mode:    0.0000i [cm^-1]
  pre-proj  low-frequency mode:    0.0000i [cm^-1]
  pre-proj  low-frequency mode:    0.0000i [cm^-1]
  pre-proj  low-frequency mode:    0.0000  [cm^-1]
  pre-proj  low-frequency mode:    0.0000  [cm^-1]
  pre-proj  low-frequency mode:    0.0000  [cm^-1]
  pre-proj  all modes:['0.0000i' '0.0000i' '0.0000i' '0.0000' '0.0000' '0.0000' '997.8190'
 '1034.4353' '1118.8464' '1498.5773' '3088.3339' '3170.8448']
  projected mass-weighted Hessian: Symmetric? True   Hermitian? True   Lin Dep Dim?  6 (6)
  post-proj low-frequency mode:    0.0000i [cm^-1] (TR)
  post-proj low-frequency mode:    0.0000i [cm^-1] (TR)
  post-proj low-frequency mode:    0.0000i [cm^-1] (TR)
  post-proj low-frequency mode:    0.0000  [cm^-1] (TR)
  post-proj low-frequency mode:    0.0000  [cm^-1] (TR)
  post-proj low-frequency mode:    0.0001  [cm^-1] (TR)
  post-proj  all modes:['0.0000i' '0.0000i' '0.0000i' '0.0000' '0.0000' '0.0001' '997.8190'
 '1034.4353' '1118.8464' '1498.5773' '3088.3339' '3170.8448']

  Vibration                       7                   8                   9           
  Freq [cm^-1]                 997.8190           1034.4353           1118.8464       
  Irrep                           A                   A                   A           
  Reduced mass [u]              1.2084              1.2953              4.3384        
  Force const [mDyne/A]         0.7089              0.8166              3.1998        
  Turning point v=0 [a0]        0.3160              0.2998              0.1575        
  RMS dev v=0 [a0 u^1/2]        0.2456              0.2412              0.2320        
  Char temp [K]               1435.6394           1488.3221           1609.7709       
  ----------------------------------------------------------------------------------
      1   C               -0.00 -0.02 -0.12   -0.01 -0.16  0.03    0.43 -0.03 -0.01   
      2   S                0.00  0.01  0.03   -0.00  0.02 -0.00   -0.20  0.02  0.00   
      3   H                0.64 -0.05  0.27    0.13  0.67 -0.14    0.62 -0.07  0.09   
      4   H               -0.64  0.05  0.29   -0.00  0.68 -0.14    0.60 -0.11 -0.07   

  Vibration                       10                  11                  12          
  Freq [cm^-1]                1498.5773           3088.3339           3170.8448       
  Irrep                           A                   A                   A           
  Reduced mass [u]              1.2040              1.0508              1.1193        
  Force const [mDyne/A]         1.5931              5.9053              6.6303        
  Turning point v=0 [a0]        0.2583              0.1926              0.1842        
  RMS dev v=0 [a0 u^1/2]        0.2004              0.1396              0.1378        
  Char temp [K]               2156.1190           4443.4249           4562.1397       
  ----------------------------------------------------------------------------------
      1   C               -0.13  0.01  0.00    0.06 -0.01 -0.00   -0.00 -0.02 -0.10   
      2   S                0.01 -0.00 -0.00   -0.00  0.00  0.00    0.00  0.00  0.00   
      3   H                0.58  0.05  0.39   -0.34  0.17  0.60   -0.35  0.17  0.58   
      4   H                0.55 -0.14 -0.40   -0.37 -0.12 -0.59    0.39  0.11  0.58   

  ==> Thermochemistry Components <==

  Entropy, S
    Electronic S            0.000 [cal/(mol K)]        0.000 [J/(mol K)]       0.00000000 [mEh/K] (multiplicity = 1)
    Translational S        37.403 [cal/(mol K)]      156.492 [J/(mol K)]       0.05960470 [mEh/K] (mol. weight = 45.9877 [u], P = 101325.00 [Pa])
    Rotational S           18.814 [cal/(mol K)]       78.717 [J/(mol K)]       0.02998180 [mEh/K] (symmetry no. = 1)
    Vibrational S           0.245 [cal/(mol K)]        1.027 [J/(mol K)]       0.00039098 [mEh/K]
  Total S                  56.462 [cal/(mol K)]      236.236 [J/(mol K)]       0.08997747 [mEh/K]
  Correction S              0.000 [cal/(mol K)]        0.000 [J/(mol K)]       0.00000000 [mEh/K]

  Constant volume heat capacity, Cv
    Electronic Cv           0.000 [cal/(mol K)]        0.000 [J/(mol K)]       0.00000000 [mEh/K]
    Translational Cv        2.981 [cal/(mol K)]       12.472 [J/(mol K)]       0.00475022 [mEh/K]
    Rotational Cv           2.981 [cal/(mol K)]       12.472 [J/(mol K)]       0.00475022 [mEh/K]
    Vibrational Cv          1.060 [cal/(mol K)]        4.437 [J/(mol K)]       0.00168982 [mEh/K]
  Total Cv                  7.022 [cal/(mol K)]       29.380 [J/(mol K)]       0.01119025 [mEh/K]
  Correction Cv             0.000 [cal/(mol K)]        0.000 [J/(mol K)]       0.00000000 [mEh/K]

  Constant pressure heat capacity, Cp
    Electronic Cp           0.000 [cal/(mol K)]        0.000 [J/(mol K)]       0.00000000 [mEh/K]
    Translational Cp        4.968 [cal/(mol K)]       20.786 [J/(mol K)]       0.00791703 [mEh/K]
    Rotational Cp           2.981 [cal/(mol K)]       12.472 [J/(mol K)]       0.00475022 [mEh/K]
    Vibrational Cp          1.060 [cal/(mol K)]        4.437 [J/(mol K)]       0.00168982 [mEh/K]
  Total Cp                  9.009 [cal/(mol K)]       37.694 [J/(mol K)]       0.01435706 [mEh/K]
  Correction Cp             0.000 [cal/(mol K)]        0.000 [J/(mol K)]       0.00000000 [mEh/K]

  ==> Thermochemistry Energy Analysis <==

  Raw electronic energy, E0
  Total E0, Electronic energy at well bottom at 0 [K]                 -437.45864328 [Eh]

  Zero-point energy, ZPE_vib = Sum_i nu_i / 2
    Electronic ZPE          0.000 [kcal/mol]        0.000 [kJ/mol]       0.00000000 [Eh]
    Translational ZPE       0.000 [kcal/mol]        0.000 [kJ/mol]       0.00000000 [Eh]
    Rotational ZPE          0.000 [kcal/mol]        0.000 [kJ/mol]       0.00000000 [Eh]
    Vibrational ZPE        15.595 [kcal/mol]       65.249 [kJ/mol]       0.02485220 [Eh]        5454.428 [cm^-1]
  Correction ZPE           15.595 [kcal/mol]       65.249 [kJ/mol]       0.02485220 [Eh]        5454.428 [cm^-1]
  Total ZPE, Electronic energy at 0 [K]                               -437.43379107 [Eh]

  Thermal Energy, E (includes ZPE)
    Electronic E            0.000 [kcal/mol]        0.000 [kJ/mol]       0.00000000 [Eh]
    Translational E         0.889 [kcal/mol]        3.718 [kJ/mol]       0.00141628 [Eh]
    Rotational E            0.889 [kcal/mol]        3.718 [kJ/mol]       0.00141628 [Eh]
    Vibrational E          15.656 [kcal/mol]       65.505 [kJ/mol]       0.02494969 [Eh]
  Correction E             17.434 [kcal/mol]       72.942 [kJ/mol]       0.02778225 [Eh]
  Total E, Electronic energy at  298.15 [K]                           -437.43086103 [Eh]

  Enthalpy, H_trans = E_trans + k_B * T
    Electronic H            0.000 [kcal/mol]        0.000 [kJ/mol]       0.00000000 [Eh]
    Translational H         1.481 [kcal/mol]        6.197 [kJ/mol]       0.00236046 [Eh]
    Rotational H            0.889 [kcal/mol]        3.718 [kJ/mol]       0.00141628 [Eh]
    Vibrational H          15.656 [kcal/mol]       65.505 [kJ/mol]       0.02494969 [Eh]
  Correction H             18.026 [kcal/mol]       75.421 [kJ/mol]       0.02872643 [Eh]
  Total H, Enthalpy at  298.15 [K]                                    -437.42991685 [Eh]

  Gibbs free energy, G = H - T * S
    Electronic G            0.000 [kcal/mol]        0.000 [kJ/mol]       0.00000000 [Eh]
    Translational G        -9.670 [kcal/mol]      -40.461 [kJ/mol]      -0.01541068 [Eh]
    Rotational G           -4.721 [kcal/mol]      -19.751 [kJ/mol]      -0.00752280 [Eh]
    Vibrational G          15.583 [kcal/mol]       65.199 [kJ/mol]       0.02483312 [Eh]
  Correction G              1.192 [kcal/mol]        4.988 [kJ/mol]       0.00189965 [Eh]
  Total G, Free enthalpy at  298.15 [K]                               -437.45674363 [Eh]

    Psi4 stopped on: Monday, 19 April 2021 04:09PM
    Psi4 wall time for execution: 0:12:12.12

*** Psi4 exiting successfully. Buy a developer a beer!
