
    -----------------------------------------------------------------------
          Psi4: An Open-Source Ab Initio Electronic Structure Package
                               Psi4 1.3.2 release

                         Git: Rev {HEAD} ecbda83 


    R. M. Parrish, L. A. Burns, D. G. A. Smith, A. C. Simmonett,
    A. E. DePrince III, E. G. Hohenstein, U. Bozkaya, A. Yu. Sokolov,
    R. Di Remigio, R. M. Richard, J. F. Gonthier, A. M. James,
    H. R. McAlexander, A. Kumar, M. Saitow, X. Wang, B. P. Pritchard,
    P. Verma, H. F. Schaefer III, K. Patkowski, R. A. King, E. F. Valeev,
    F. A. Evangelista, J. M. Turney, T. D. Crawford, and C. D. Sherrill,
    J. Chem. Theory Comput. 13(7) pp 3185--3197 (2017).
    (doi: 10.1021/acs.jctc.7b00174)


                         Additional Contributions by
    P. Kraus, H. Kruse, M. H. Lechner, M. C. Schieber, R. A. Shaw,
    A. Alenaizan, R. Galvelis, Z. L. Glick, S. Lehtola, and J. P. Misiewicz

    -----------------------------------------------------------------------


    Psi4 started on: Monday, 19 April 2021 03:57PM

    Process ID: 133393
    Host:       bp1-compute00115.data.bp.acrc.priv
    PSIDATADIR: /work/zw18965/.conda/envs/p4env/share/psi4
    Memory:     500.0 MiB
    Threads:    24
    
  ==> Input File <==

--------------------------------------------------------------------------
memory 144 GB

molecule {
0 1
S    -0.001427249147   0.605319027500   0.000000000000
H     0.960281633594  -0.300388517999   0.000000000000
H    -0.958854384446  -0.304930504209   0.000000000000}

set basis aug-cc-pV(Q+d)Z
 
optimize("WB97M-V")
frequencies("WB97M-V")--------------------------------------------------------------------------

  Memory set to 134.110 GiB by Python driver.
gradient() will perform gradient computation by finite difference of analytic energies.

         ----------------------------------------------------------
                                   FINDIF
                     R. A. King and Jonathon Misiewicz
         ---------------------------------------------------------

  Using finite-differences of energies to determine gradients.
    Generating geometries for use with 3-point formula.
    Displacement size will be 5.00e-03.
    Number of atoms is 3.
    Number of symmetric SALCs is 3.
    Translations projected? 1. Rotations projected? 1.
    Number of geometries (including reference) is 7.

  //>>>>>>>>>>>>>>>>>>>>>>>>>>>>>>>>>>>//
  //    Loading displacement 1 of 7    //
  //<<<<<<<<<<<<<<<<<<<<<<<<<<<<<<<<<<<//

*** tstart() called on bp1-compute00115.data.bp.acrc.priv
*** at Mon Apr 19 15:57:57 2021

   => Loading Basis Set <=

    Name: AUG-CC-PV(Q+D)Z
    Role: ORBITAL
    Keyword: BASIS
    atoms 1   entry S          line  1148 file /work/zw18965/.conda/envs/p4env/share/psi4/basis/aug-cc-pv_qpd_z.gbs 
    atoms 2-3 entry H          line    56 file /work/zw18965/.conda/envs/p4env/share/psi4/basis/aug-cc-pv_qpd_z.gbs 


         ---------------------------------------------------------
                                   SCF
               by Justin Turney, Rob Parrish, Andy Simmonett
                          and Daniel G. A. Smith
                              RKS Reference
                       24 Threads, 137329 MiB Core
         ---------------------------------------------------------

  ==> Geometry <==

    Molecular point group: cs
    Full point group: Cs

    Geometry (in Angstrom), charge = 0, multiplicity = 1:

       Center              X                  Y                   Z               Mass       
    ------------   -----------------  -----------------  -----------------  -----------------
         S           -0.000126965036     0.053847887801     0.000000000000    31.972071174400
         H            0.961581917705    -0.851859657698     0.000000000000     1.007825032230
         H           -0.957554100335    -0.856401643908     0.000000000000     1.007825032230

  Running in cs symmetry.

  Rotational constants: A =     10.78398  B =      9.08296  C =      4.93032 [cm^-1]
  Rotational constants: A = 323295.57316  B = 272300.29296  C = 147807.40481 [MHz]
  Nuclear repulsion =   13.093959376562303

  Charge       = 0
  Multiplicity = 1
  Electrons    = 18
  Nalpha       = 9
  Nbeta        = 9

  ==> Algorithm <==

  SCF Algorithm Type is DF.
  DIIS enabled.
  MOM disabled.
  Fractional occupation disabled.
  Guess Type is SAD.
  Energy threshold   = 1.00e-08
  Density threshold  = 1.00e-08
  Integral threshold = 0.00e+00

  ==> Primary Basis <==

  Basis Set: AUG-CC-PV(Q+D)Z
    Blend: AUG-CC-PV(Q+D)Z
    Number of shells: 51
    Number of basis function: 181
    Number of Cartesian functions: 225
    Spherical Harmonics?: true
    Max angular momentum: 4

  ==> DFT Potential <==

   => Composite Functional: WB97M-V <= 

    wB97M-V Hyb-GGA Exchange-Correlation Functional

    N. Mardirossian and M. Head-Gordon, J. Chem. Phys. 144, 214110 (2016)

    Deriv               =              1
    GGA                 =           TRUE
    Meta                =           TRUE

    Exchange Hybrid     =           TRUE
    MP2 Hybrid          =          FALSE

   => Exchange-Correlation Functionals <=

    1.0000   wB97M-V exchange-correlation functional

   => Exact (HF) Exchange <=

    0.8500            HF,LR [omega = 0.3000]
    0.1500               HF 

   => VV10 Non-Local Parameters <=

    VV10 B              =     6.0000E+00
    VV10 C              =     1.0000E-02

   => Molecular Quadrature <=

    Radial Scheme          =       TREUTLER
    Pruning Scheme         =           FLAT
    Nuclear Scheme         =       TREUTLER

    BS radius alpha        =              1
    Pruning alpha          =              1
    Radial Points          =             75
    Spherical Points       =            302
    Total Points           =          67950
    Total Blocks           =            581
    Max Points             =            255
    Max Functions          =            181

   => Loading Basis Set <=

    Name: (AUG-CC-PV(Q+D)Z AUX)
    Role: JKFIT
    Keyword: DF_BASIS_SCF
    atoms 1   entry S          line   810 file /work/zw18965/.conda/envs/p4env/share/psi4/basis/aug-cc-pvqz-jkfit.gbs 
    atoms 2-3 entry H          line    70 file /work/zw18965/.conda/envs/p4env/share/psi4/basis/aug-cc-pvqz-jkfit.gbs 

  ==> Pre-Iterations <==

   -------------------------------------------------------
    Irrep   Nso     Nmo     Nalpha   Nbeta   Ndocc  Nsocc
   -------------------------------------------------------
     A'       116     116       0       0       0       0
     A"        65      65       0       0       0       0
   -------------------------------------------------------
    Total     181     181       9       9       9       0
   -------------------------------------------------------

  ==> Integral Setup <==

  ==> DiskDFJK: Density-Fitted J/K Matrices <==

    J tasked:                  Yes
    K tasked:                  Yes
    wK tasked:                 Yes
    Omega:               3.000E-01
    OpenMP threads:             24
    Integrals threads:          24
    Memory [MiB]:           102145
    Algorithm:                Core
    Integral Cache:           NONE
    Schwarz Cutoff:          1E-12
    Fitting Condition:       1E-10

   => Auxiliary Basis Set <=

  Basis Set: (AUG-CC-PV(Q+D)Z AUX)
    Blend: AUG-CC-PVQZ-JKFIT
    Number of shells: 82
    Number of basis function: 336
    Number of Cartesian functions: 449
    Spherical Harmonics?: true
    Max angular momentum: 5

  Cached 100.0% of DFT collocation blocks in 0.831 [GiB].

  Minimum eigenvalue in the overlap matrix is 6.1525421247E-05.
  Using Symmetric Orthogonalization.

  SCF Guess: Superposition of Atomic Densities via on-the-fly atomic UHF.

  ==> Iterations <==

                           Total Energy        Delta E     RMS |[F,P]|

   @DF-RKS iter SAD:  -399.13655173339930   -3.99137e+02   0.00000e+00 
   @DF-RKS iter   1:  -399.34479563375180   -2.08244e-01   2.24925e-03 DIIS
   @DF-RKS iter   2:  -399.37334085701360   -2.85452e-02   1.32004e-03 DIIS
   @DF-RKS iter   3:  -399.38486604205576   -1.15252e-02   7.91311e-05 DIIS
   @DF-RKS iter   4:  -399.38503807603223   -1.72034e-04   2.23750e-05 DIIS
   @DF-RKS iter   5:  -399.38504830752299   -1.02315e-05   5.18780e-06 DIIS
   @DF-RKS iter   6:  -399.38504874530378   -4.37781e-07   7.99637e-07 DIIS
   @DF-RKS iter   7:  -399.38504876026542   -1.49616e-08   1.57053e-07 DIIS
   @DF-RKS iter   8:  -399.38504876085671   -5.91285e-10   2.26464e-08 DIIS
   @DF-RKS iter   9:  -399.38504876087836   -2.16573e-11   4.48734e-09 DIIS
  Energy and wave function converged.


  ==> Post-Iterations <==

    Orbital Energies [Eh]
    ---------------------

    Doubly Occupied:                                                      

       1Ap   -89.208714     2Ap    -8.125285     3Ap    -6.035539  
       4Ap    -6.032713     1App   -6.027629     5Ap    -0.866560  
       6Ap    -0.548638     7Ap    -0.466326     2App   -0.361386  

    Virtual:                                                              

       8Ap     0.008933     9Ap     0.033140    10Ap     0.055681  
       3App    0.063181    11Ap     0.070549    12Ap     0.096670  
      13Ap     0.115369    14Ap     0.141103    15Ap     0.155289  
       4App    0.160929     5App    0.164980    16Ap     0.196749  
      17Ap     0.226107    18Ap     0.233523    19Ap     0.238465  
       6App    0.242258     7App    0.246525    20Ap     0.259204  
      21Ap     0.271446    22Ap     0.373078    23Ap     0.382460  
      24Ap     0.384049     8App    0.399003    25Ap     0.403250  
       9App    0.416012    10App    0.426717    11App    0.501625  
      26Ap     0.536195    27Ap     0.550505    28Ap     0.565720  
      29Ap     0.585379    30Ap     0.591511    12App    0.600213  
      13App    0.600296    31Ap     0.655753    32Ap     0.668278  
      33Ap     0.671058    14App    0.692570    34Ap     0.692985  
      15App    0.695448    35Ap     0.730411    36Ap     0.741906  
      16App    0.747304    17App    0.749492    37Ap     0.853352  
      38Ap     0.876520    39Ap     0.899155    40Ap     1.084468  
      41Ap     1.110733    18App    1.113142    19App    1.120146  
      42Ap     1.129636    43Ap     1.136711    44Ap     1.186319  
      20App    1.186818    21App    1.199581    45Ap     1.315341  
      46Ap     1.338503    22App    1.372631    23App    1.396854  
      47Ap     1.430675    48Ap     1.439066    49Ap     1.472710  
      24App    1.494299    25App    1.504840    50Ap     1.507173  
      26App    1.517930    51Ap     1.529355    27App    1.534246  
      52Ap     1.548938    53Ap     1.611146    54Ap     1.657361  
      28App    1.658837    29App    1.672926    55Ap     1.678336  
      30App    1.702393    56Ap     1.726688    57Ap     1.740687  
      58Ap     1.809716    31App    1.819066    59Ap     1.860889  
      60Ap     1.927581    61Ap     1.933772    32App    1.939188  
      62Ap     2.017057    33App    2.069594    34App    2.136815  
      63Ap     2.159619    35App    2.196861    64Ap     2.204220  
      65Ap     2.302431    66Ap     2.335518    67Ap     2.357510  
      68Ap     2.612985    36App    2.643632    69Ap     2.700667  
      37App    2.701191    70Ap     2.712289    38App    2.787836  
      71Ap     2.843027    39App    2.862699    72Ap     2.915846  
      73Ap     2.931698    40App    2.972471    41App    3.042427  
      74Ap     3.118520    75Ap     3.267073    76Ap     3.341955  
      42App    3.365846    77Ap     3.378312    43App    3.390364  
      78Ap     3.405482    44App    3.422008    79Ap     3.513063  
      80Ap     3.546599    81Ap     3.620245    82Ap     3.636881  
      45App    3.660405    46App    3.697313    83Ap     3.746795  
      47App    3.761323    48App    3.789571    84Ap     3.849784  
      85Ap     4.118968    86Ap     4.126600    49App    4.306181  
      87Ap     4.344165    88Ap     4.435811    50App    4.501020  
      89Ap     4.577666    90Ap     4.639009    51App    5.695664  
      91Ap     6.337097    52App    6.339477    53App    6.362652  
      92Ap     6.388804    93Ap     6.476024    94Ap     6.530174  
      54App    6.631288    95Ap     6.683237    55App    6.807856  
      96Ap     6.821295    97Ap     6.975650    98Ap     7.002667  
      56App    7.049979    57App    7.053803    99Ap     7.259819  
     100Ap     7.376791   101Ap     7.859113   102Ap     7.865426  
      58App    8.210163    59App    8.210402   103Ap     8.235892  
      60App    8.265305   104Ap     8.272885    61App    8.384921  
     105Ap     8.529711   106Ap     8.541669    62App    8.846699  
      63App    8.882689   107Ap     8.935241   108Ap     9.096259  
      64App    9.131649    65App    9.135425   109Ap     9.137416  
     110Ap     9.255220   111Ap     9.310506   112Ap     9.357946  
     113Ap     9.690682   114Ap    10.398767   115Ap    11.417552  
     116Ap    21.715971  

    Final Occupation by Irrep:
             Ap   App 
    DOCC [     7,    2 ]

  @DF-RKS Final Energy:  -399.38504876087836

   => Energetics <=

    Nuclear Repulsion Energy =             13.0939593765623030
    One-Electron Energy =                -577.0241609824732905
    Two-Electron Energy =                 184.6356244714127115
    DFT Exchange-Correlation Energy =     -20.1662129093582791
    Empirical Dispersion Energy =           0.0000000000000000
    VV10 Nonlocal Energy =                  0.0757412829781396
    Total Energy =                       -399.3850487608783624

Computation Completed


Properties will be evaluated at   0.000000,   0.000000,   0.000000 [a0]

Properties computed using the SCF density matrix

  Nuclear Dipole Moment: [e a0]
     X:     0.0038      Y:    -1.6000      Z:     0.0000

  Electronic Dipole Moment: [e a0]
     X:    -0.0029      Y:     1.2154      Z:     0.0000

  Dipole Moment: [e a0]
     X:     0.0009      Y:    -0.3846      Z:     0.0000     Total:     0.3846

  Dipole Moment: [D]
     X:     0.0023      Y:    -0.9776      Z:     0.0000     Total:     0.9776


*** tstop() called on bp1-compute00115.data.bp.acrc.priv at Mon Apr 19 15:58:02 2021
Module time:
	user time   =      97.67 seconds =       1.63 minutes
	system time =       5.42 seconds =       0.09 minutes
	total time  =          5 seconds =       0.08 minutes
Total time:
	user time   =      97.67 seconds =       1.63 minutes
	system time =       5.42 seconds =       0.09 minutes
	total time  =          5 seconds =       0.08 minutes

  //>>>>>>>>>>>>>>>>>>>>>>>>>>>>>>>>>>>//
  //    Loading displacement 2 of 7    //
  //<<<<<<<<<<<<<<<<<<<<<<<<<<<<<<<<<<<//

*** tstart() called on bp1-compute00115.data.bp.acrc.priv
*** at Mon Apr 19 15:58:02 2021

   => Loading Basis Set <=

    Name: AUG-CC-PV(Q+D)Z
    Role: ORBITAL
    Keyword: BASIS
    atoms 1   entry S          line  1148 file /work/zw18965/.conda/envs/p4env/share/psi4/basis/aug-cc-pv_qpd_z.gbs 
    atoms 2-3 entry H          line    56 file /work/zw18965/.conda/envs/p4env/share/psi4/basis/aug-cc-pv_qpd_z.gbs 


         ---------------------------------------------------------
                                   SCF
               by Justin Turney, Rob Parrish, Andy Simmonett
                          and Daniel G. A. Smith
                              RKS Reference
                       24 Threads, 137329 MiB Core
         ---------------------------------------------------------

  ==> Geometry <==

    Molecular point group: cs
    Full point group: Cs

    Geometry (in Angstrom), charge = 0, multiplicity = 1:

       Center              X                  Y                   Z               Mass       
    ------------   -----------------  -----------------  -----------------  -----------------
         S           -0.000210922122     0.053848054532     0.000000000000    31.972071174400
         H            0.962916620189    -0.853122412047     0.000000000000     1.007825032230
         H           -0.956225362411    -0.855144178910     0.000000000000     1.007825032230

  Running in cs symmetry.

  Rotational constants: A =     10.78437  B =      9.08255  C =      4.93028 [cm^-1]
  Rotational constants: A = 323307.21118  B = 272287.90404  C = 147806.18686 [MHz]
  Nuclear repulsion =   13.093944231601720

  Charge       = 0
  Multiplicity = 1
  Electrons    = 18
  Nalpha       = 9
  Nbeta        = 9

  ==> Algorithm <==

  SCF Algorithm Type is DF.
  DIIS enabled.
  MOM disabled.
  Fractional occupation disabled.
  Guess Type is SAD.
  Energy threshold   = 1.00e-08
  Density threshold  = 1.00e-08
  Integral threshold = 0.00e+00

  ==> Primary Basis <==

  Basis Set: AUG-CC-PV(Q+D)Z
    Blend: AUG-CC-PV(Q+D)Z
    Number of shells: 51
    Number of basis function: 181
    Number of Cartesian functions: 225
    Spherical Harmonics?: true
    Max angular momentum: 4

  ==> DFT Potential <==

   => Composite Functional: WB97M-V <= 

    wB97M-V Hyb-GGA Exchange-Correlation Functional

    N. Mardirossian and M. Head-Gordon, J. Chem. Phys. 144, 214110 (2016)

    Deriv               =              1
    GGA                 =           TRUE
    Meta                =           TRUE

    Exchange Hybrid     =           TRUE
    MP2 Hybrid          =          FALSE

   => Exchange-Correlation Functionals <=

    1.0000   wB97M-V exchange-correlation functional

   => Exact (HF) Exchange <=

    0.8500            HF,LR [omega = 0.3000]
    0.1500               HF 

   => VV10 Non-Local Parameters <=

    VV10 B              =     6.0000E+00
    VV10 C              =     1.0000E-02

   => Molecular Quadrature <=

    Radial Scheme          =       TREUTLER
    Pruning Scheme         =           FLAT
    Nuclear Scheme         =       TREUTLER

    BS radius alpha        =              1
    Pruning alpha          =              1
    Radial Points          =             75
    Spherical Points       =            302
    Total Points           =          67950
    Total Blocks           =            579
    Max Points             =            254
    Max Functions          =            181

   => Loading Basis Set <=

    Name: (AUG-CC-PV(Q+D)Z AUX)
    Role: JKFIT
    Keyword: DF_BASIS_SCF
    atoms 1   entry S          line   810 file /work/zw18965/.conda/envs/p4env/share/psi4/basis/aug-cc-pvqz-jkfit.gbs 
    atoms 2-3 entry H          line    70 file /work/zw18965/.conda/envs/p4env/share/psi4/basis/aug-cc-pvqz-jkfit.gbs 

  ==> Pre-Iterations <==

   -------------------------------------------------------
    Irrep   Nso     Nmo     Nalpha   Nbeta   Ndocc  Nsocc
   -------------------------------------------------------
     A'       116     116       0       0       0       0
     A"        65      65       0       0       0       0
   -------------------------------------------------------
    Total     181     181       9       9       9       0
   -------------------------------------------------------

  ==> Integral Setup <==

  ==> DiskDFJK: Density-Fitted J/K Matrices <==

    J tasked:                  Yes
    K tasked:                  Yes
    wK tasked:                 Yes
    Omega:               3.000E-01
    OpenMP threads:             24
    Integrals threads:          24
    Memory [MiB]:           102146
    Algorithm:                Core
    Integral Cache:           NONE
    Schwarz Cutoff:          1E-12
    Fitting Condition:       1E-10

   => Auxiliary Basis Set <=

  Basis Set: (AUG-CC-PV(Q+D)Z AUX)
    Blend: AUG-CC-PVQZ-JKFIT
    Number of shells: 82
    Number of basis function: 336
    Number of Cartesian functions: 449
    Spherical Harmonics?: true
    Max angular momentum: 5

  Cached 100.0% of DFT collocation blocks in 0.831 [GiB].

  Minimum eigenvalue in the overlap matrix is 6.1497049969E-05.
  Using Symmetric Orthogonalization.

  SCF Guess: Superposition of Atomic Densities via on-the-fly atomic UHF.

  ==> Iterations <==

                           Total Energy        Delta E     RMS |[F,P]|

   @DF-RKS iter SAD:  -399.13654728510465   -3.99137e+02   0.00000e+00 
   @DF-RKS iter   1:  -399.34479102426309   -2.08244e-01   2.24927e-03 DIIS
   @DF-RKS iter   2:  -399.37333668846094   -2.85457e-02   1.32007e-03 DIIS
   @DF-RKS iter   3:  -399.38486237516850   -1.15257e-02   7.91325e-05 DIIS
   @DF-RKS iter   4:  -399.38503441150118   -1.72036e-04   2.23768e-05 DIIS
   @DF-RKS iter   5:  -399.38504464375558   -1.02323e-05   5.18862e-06 DIIS
   @DF-RKS iter   6:  -399.38504508165562   -4.37900e-07   8.00074e-07 DIIS
   @DF-RKS iter   7:  -399.38504509662414   -1.49685e-08   1.57482e-07 DIIS
   @DF-RKS iter   8:  -399.38504509721537   -5.91228e-10   2.41414e-08 DIIS
   @DF-RKS iter   9:  -399.38504509723708   -2.17142e-11   7.44709e-09 DIIS
  Energy and wave function converged.


  ==> Post-Iterations <==

    Orbital Energies [Eh]
    ---------------------

    Doubly Occupied:                                                      

       1Ap   -89.208714     2Ap    -8.125285     3Ap    -6.035540  
       4Ap    -6.032713     1App   -6.027630     5Ap    -0.866560  
       6Ap    -0.548636     7Ap    -0.466326     2App   -0.361386  

    Virtual:                                                              

       8Ap     0.008932     9Ap     0.033140    10Ap     0.055681  
       3App    0.063181    11Ap     0.070548    12Ap     0.096669  
      13Ap     0.115369    14Ap     0.141104    15Ap     0.155289  
       4App    0.160929     5App    0.164980    16Ap     0.196749  
      17Ap     0.226107    18Ap     0.233523    19Ap     0.238465  
       6App    0.242258     7App    0.246525    20Ap     0.259202  
      21Ap     0.271449    22Ap     0.373077    23Ap     0.382462  
      24Ap     0.384049     8App    0.399003    25Ap     0.403250  
       9App    0.416012    10App    0.426717    11App    0.501624  
      26Ap     0.536194    27Ap     0.550504    28Ap     0.565720  
      29Ap     0.585377    30Ap     0.591512    12App    0.600070  
      13App    0.600439    31Ap     0.655751    32Ap     0.668279  
      33Ap     0.671058    14App    0.692570    34Ap     0.692985  
      15App    0.695448    35Ap     0.730411    36Ap     0.741906  
      16App    0.747303    17App    0.749493    37Ap     0.853350  
      38Ap     0.876516    39Ap     0.899160    40Ap     1.084468  
      41Ap     1.110724    18App    1.113137    19App    1.120145  
      42Ap     1.129633    43Ap     1.136713    44Ap     1.186326  
      20App    1.186784    21App    1.199618    45Ap     1.315340  
      46Ap     1.338503    22App    1.372629    23App    1.396853  
      47Ap     1.430675    48Ap     1.439063    49Ap     1.472710  
      24App    1.494298    25App    1.504840    50Ap     1.507168  
      26App    1.517931    51Ap     1.529357    27App    1.534245  
      52Ap     1.548939    53Ap     1.611145    54Ap     1.657356  
      28App    1.658833    29App    1.672925    55Ap     1.678335  
      30App    1.702396    56Ap     1.726683    57Ap     1.740705  
      58Ap     1.809715    31App    1.819072    59Ap     1.860888  
      60Ap     1.927568    61Ap     1.933786    32App    1.939188  
      62Ap     2.017056    33App    2.069591    34App    2.136802  
      63Ap     2.159596    35App    2.196865    64Ap     2.204228  
      65Ap     2.302431    66Ap     2.335410    67Ap     2.357620  
      68Ap     2.612982    36App    2.643622    69Ap     2.700651  
      37App    2.701185    70Ap     2.712289    38App    2.787828  
      71Ap     2.843031    39App    2.862697    72Ap     2.915811  
      73Ap     2.931735    40App    2.972475    41App    3.042438  
      74Ap     3.118516    75Ap     3.267064    76Ap     3.341954  
      42App    3.365846    77Ap     3.378311    43App    3.390364  
      78Ap     3.405470    44App    3.422011    79Ap     3.513063  
      80Ap     3.546576    81Ap     3.620234    82Ap     3.636911  
      45App    3.660364    46App    3.697339    83Ap     3.746803  
      47App    3.761291    48App    3.789614    84Ap     3.849781  
      85Ap     4.118737    86Ap     4.126838    49App    4.306166  
      87Ap     4.344152    88Ap     4.435814    50App    4.501010  
      89Ap     4.577599    90Ap     4.639089    51App    5.695684  
      91Ap     6.337096    52App    6.339474    53App    6.362652  
      92Ap     6.388801    93Ap     6.475971    94Ap     6.530197  
      54App    6.631268    95Ap     6.683136    55App    6.807876  
      96Ap     6.821275    97Ap     6.975731    98Ap     7.002690  
      56App    7.049064    57App    7.054689    99Ap     7.259828  
     100Ap     7.376802   101Ap     7.856180   102Ap     7.868380  
      58App    8.208214    59App    8.212262   103Ap     8.235856  
      60App    8.265349   104Ap     8.272872    61App    8.384940  
     105Ap     8.529706   106Ap     8.541684    62App    8.846592  
      63App    8.882793   107Ap     8.935244   108Ap     9.096238  
      64App    9.131082    65App    9.136017   109Ap     9.137406  
     110Ap     9.255241   111Ap     9.310546   112Ap     9.357941  
     113Ap     9.690662   114Ap    10.398625   115Ap    11.417606  
     116Ap    21.716057  

    Final Occupation by Irrep:
             Ap   App 
    DOCC [     7,    2 ]

  @DF-RKS Final Energy:  -399.38504509723708

   => Energetics <=

    Nuclear Repulsion Energy =             13.0939442316017196
    One-Electron Energy =                -577.0241234784881499
    Two-Electron Energy =                 184.6356052050528262
    DFT Exchange-Correlation Energy =     -20.1662123467217711
    Empirical Dispersion Energy =           0.0000000000000000
    VV10 Nonlocal Energy =                  0.0757412913182414
    Total Energy =                       -399.3850450972370822

Computation Completed


Properties will be evaluated at   0.000000,   0.000000,   0.000000 [a0]

Properties computed using the SCF density matrix

  Nuclear Dipole Moment: [e a0]
     X:     0.0063      Y:    -1.6000      Z:     0.0000

  Electronic Dipole Moment: [e a0]
     X:    -0.0053      Y:     1.2154      Z:     0.0000

  Dipole Moment: [e a0]
     X:     0.0010      Y:    -0.3846      Z:     0.0000     Total:     0.3846

  Dipole Moment: [D]
     X:     0.0024      Y:    -0.9776      Z:     0.0000     Total:     0.9776


*** tstop() called on bp1-compute00115.data.bp.acrc.priv at Mon Apr 19 15:58:07 2021
Module time:
	user time   =     102.37 seconds =       1.71 minutes
	system time =       3.97 seconds =       0.07 minutes
	total time  =          5 seconds =       0.08 minutes
Total time:
	user time   =     200.20 seconds =       3.34 minutes
	system time =       9.40 seconds =       0.16 minutes
	total time  =         10 seconds =       0.17 minutes

  //>>>>>>>>>>>>>>>>>>>>>>>>>>>>>>>>>>>//
  //    Loading displacement 3 of 7    //
  //<<<<<<<<<<<<<<<<<<<<<<<<<<<<<<<<<<<//

*** tstart() called on bp1-compute00115.data.bp.acrc.priv
*** at Mon Apr 19 15:58:07 2021

   => Loading Basis Set <=

    Name: AUG-CC-PV(Q+D)Z
    Role: ORBITAL
    Keyword: BASIS
    atoms 1   entry S          line  1148 file /work/zw18965/.conda/envs/p4env/share/psi4/basis/aug-cc-pv_qpd_z.gbs 
    atoms 2-3 entry H          line    56 file /work/zw18965/.conda/envs/p4env/share/psi4/basis/aug-cc-pv_qpd_z.gbs 


         ---------------------------------------------------------
                                   SCF
               by Justin Turney, Rob Parrish, Andy Simmonett
                          and Daniel G. A. Smith
                              RKS Reference
                       24 Threads, 137329 MiB Core
         ---------------------------------------------------------

  ==> Geometry <==

    Molecular point group: cs
    Full point group: Cs

    Geometry (in Angstrom), charge = 0, multiplicity = 1:

       Center              X                  Y                   Z               Mass       
    ------------   -----------------  -----------------  -----------------  -----------------
         S           -0.000043007951     0.053847721069     0.000000000000    31.972071174400
         H            0.960247215221    -0.850596903350     0.000000000000     1.007825032230
         H           -0.958882838260    -0.857659108906     0.000000000000     1.007825032230

  Running in cs symmetry.

  Rotational constants: A =     10.78467  B =      9.08254  C =      4.93034 [cm^-1]
  Rotational constants: A = 323316.17552  B = 272287.75840  C = 147808.01750 [MHz]
  Nuclear repulsion =   13.094026738032101

  Charge       = 0
  Multiplicity = 1
  Electrons    = 18
  Nalpha       = 9
  Nbeta        = 9

  ==> Algorithm <==

  SCF Algorithm Type is DF.
  DIIS enabled.
  MOM disabled.
  Fractional occupation disabled.
  Guess Type is SAD.
  Energy threshold   = 1.00e-08
  Density threshold  = 1.00e-08
  Integral threshold = 0.00e+00

  ==> Primary Basis <==

  Basis Set: AUG-CC-PV(Q+D)Z
    Blend: AUG-CC-PV(Q+D)Z
    Number of shells: 51
    Number of basis function: 181
    Number of Cartesian functions: 225
    Spherical Harmonics?: true
    Max angular momentum: 4

  ==> DFT Potential <==

   => Composite Functional: WB97M-V <= 

    wB97M-V Hyb-GGA Exchange-Correlation Functional

    N. Mardirossian and M. Head-Gordon, J. Chem. Phys. 144, 214110 (2016)

    Deriv               =              1
    GGA                 =           TRUE
    Meta                =           TRUE

    Exchange Hybrid     =           TRUE
    MP2 Hybrid          =          FALSE

   => Exchange-Correlation Functionals <=

    1.0000   wB97M-V exchange-correlation functional

   => Exact (HF) Exchange <=

    0.8500            HF,LR [omega = 0.3000]
    0.1500               HF 

   => VV10 Non-Local Parameters <=

    VV10 B              =     6.0000E+00
    VV10 C              =     1.0000E-02

   => Molecular Quadrature <=

    Radial Scheme          =       TREUTLER
    Pruning Scheme         =           FLAT
    Nuclear Scheme         =       TREUTLER

    BS radius alpha        =              1
    Pruning alpha          =              1
    Radial Points          =             75
    Spherical Points       =            302
    Total Points           =          67950
    Total Blocks           =            576
    Max Points             =            256
    Max Functions          =            181

   => Loading Basis Set <=

    Name: (AUG-CC-PV(Q+D)Z AUX)
    Role: JKFIT
    Keyword: DF_BASIS_SCF
    atoms 1   entry S          line   810 file /work/zw18965/.conda/envs/p4env/share/psi4/basis/aug-cc-pvqz-jkfit.gbs 
    atoms 2-3 entry H          line    70 file /work/zw18965/.conda/envs/p4env/share/psi4/basis/aug-cc-pvqz-jkfit.gbs 

  ==> Pre-Iterations <==

   -------------------------------------------------------
    Irrep   Nso     Nmo     Nalpha   Nbeta   Ndocc  Nsocc
   -------------------------------------------------------
     A'       116     116       0       0       0       0
     A"        65      65       0       0       0       0
   -------------------------------------------------------
    Total     181     181       9       9       9       0
   -------------------------------------------------------

  ==> Integral Setup <==

  ==> DiskDFJK: Density-Fitted J/K Matrices <==

    J tasked:                  Yes
    K tasked:                  Yes
    wK tasked:                 Yes
    Omega:               3.000E-01
    OpenMP threads:             24
    Integrals threads:          24
    Memory [MiB]:           102145
    Algorithm:                Core
    Integral Cache:           NONE
    Schwarz Cutoff:          1E-12
    Fitting Condition:       1E-10

   => Auxiliary Basis Set <=

  Basis Set: (AUG-CC-PV(Q+D)Z AUX)
    Blend: AUG-CC-PVQZ-JKFIT
    Number of shells: 82
    Number of basis function: 336
    Number of Cartesian functions: 449
    Spherical Harmonics?: true
    Max angular momentum: 5

  Cached 100.0% of DFT collocation blocks in 0.831 [GiB].

  Minimum eigenvalue in the overlap matrix is 6.1494934278E-05.
  Using Symmetric Orthogonalization.

  SCF Guess: Superposition of Atomic Densities via on-the-fly atomic UHF.

  ==> Iterations <==

                           Total Energy        Delta E     RMS |[F,P]|

   @DF-RKS iter SAD:  -399.13655576159169   -3.99137e+02   0.00000e+00 
   @DF-RKS iter   1:  -399.34479051246223   -2.08235e-01   2.24927e-03 DIIS
   @DF-RKS iter   2:  -399.37333659296394   -2.85461e-02   1.32006e-03 DIIS
   @DF-RKS iter   3:  -399.38486201536978   -1.15254e-02   7.91342e-05 DIIS
   @DF-RKS iter   4:  -399.38503405956237   -1.72044e-04   2.23770e-05 DIIS
   @DF-RKS iter   5:  -399.38504429172491   -1.02322e-05   5.18857e-06 DIIS
   @DF-RKS iter   6:  -399.38504472959977   -4.37875e-07   8.00047e-07 DIIS
   @DF-RKS iter   7:  -399.38504474456539   -1.49656e-08   1.57473e-07 DIIS
   @DF-RKS iter   8:  -399.38504474515673   -5.91342e-10   2.41574e-08 DIIS
   @DF-RKS iter   9:  -399.38504474517856   -2.18279e-11   7.47036e-09 DIIS
  Energy and wave function converged.


  ==> Post-Iterations <==

    Orbital Energies [Eh]
    ---------------------

    Doubly Occupied:                                                      

       1Ap   -89.208713     2Ap    -8.125285     3Ap    -6.035539  
       4Ap    -6.032712     1App   -6.027629     5Ap    -0.866562  
       6Ap    -0.548640     7Ap    -0.466325     2App   -0.361386  

    Virtual:                                                              

       8Ap     0.008932     9Ap     0.033140    10Ap     0.055681  
       3App    0.063181    11Ap     0.070549    12Ap     0.096670  
      13Ap     0.115370    14Ap     0.141103    15Ap     0.155290  
       4App    0.160929     5App    0.164981    16Ap     0.196749  
      17Ap     0.226107    18Ap     0.233523    19Ap     0.238465  
       6App    0.242257     7App    0.246526    20Ap     0.259202  
      21Ap     0.271450    22Ap     0.373076    23Ap     0.382462  
      24Ap     0.384050     8App    0.399003    25Ap     0.403250  
       9App    0.416011    10App    0.426717    11App    0.501624  
      26Ap     0.536194    27Ap     0.550505    28Ap     0.565721  
      29Ap     0.585378    30Ap     0.591512    12App    0.600070  
      13App    0.600440    31Ap     0.655753    32Ap     0.668279  
      33Ap     0.671059    14App    0.692570    34Ap     0.692986  
      15App    0.695448    35Ap     0.730412    36Ap     0.741906  
      16App    0.747305    17App    0.749491    37Ap     0.853351  
      38Ap     0.876518    39Ap     0.899161    40Ap     1.084466  
      41Ap     1.110724    18App    1.113138    19App    1.120144  
      42Ap     1.129636    43Ap     1.136712    44Ap     1.186330  
      20App    1.186786    21App    1.199623    45Ap     1.315341  
      46Ap     1.338503    22App    1.372630    23App    1.396853  
      47Ap     1.430676    48Ap     1.439065    49Ap     1.472711  
      24App    1.494300    25App    1.504839    50Ap     1.507168  
      26App    1.517929    51Ap     1.529358    27App    1.534247  
      52Ap     1.548939    53Ap     1.611147    54Ap     1.657360  
      28App    1.658837    29App    1.672927    55Ap     1.678337  
      30App    1.702397    56Ap     1.726685    57Ap     1.740708  
      58Ap     1.809719    31App    1.819067    59Ap     1.860891  
      60Ap     1.927564    61Ap     1.933788    32App    1.939188  
      62Ap     2.017050    33App    2.069592    34App    2.136805  
      63Ap     2.159594    35App    2.196870    64Ap     2.204235  
      65Ap     2.302431    66Ap     2.335412    67Ap     2.357632  
      68Ap     2.612989    36App    2.643628    69Ap     2.700662  
      37App    2.701188    70Ap     2.712293    38App    2.787839  
      71Ap     2.843036    39App    2.862704    72Ap     2.915815  
      73Ap     2.931739    40App    2.972477    41App    3.042449  
      74Ap     3.118525    75Ap     3.267067    76Ap     3.341950  
      42App    3.365845    77Ap     3.378311    43App    3.390364  
      78Ap     3.405474    44App    3.422008    79Ap     3.513071  
      80Ap     3.546579    81Ap     3.620236    82Ap     3.636926  
      45App    3.660370    46App    3.697344    83Ap     3.746807  
      47App    3.761300    48App    3.789615    84Ap     3.849790  
      85Ap     4.118741    86Ap     4.126843    49App    4.306170  
      87Ap     4.344167    88Ap     4.435818    50App    4.501024  
      89Ap     4.577609    90Ap     4.639100    51App    5.695702  
      91Ap     6.337095    52App    6.339475    53App    6.362651  
      92Ap     6.388803    93Ap     6.475972    94Ap     6.530207  
      54App    6.631282    95Ap     6.683148    55App    6.807884  
      96Ap     6.821291    97Ap     6.975737    98Ap     7.002688  
      56App    7.049067    57App    7.054708    99Ap     7.259841  
     100Ap     7.376823   101Ap     7.856178   102Ap     7.868433  
      58App    8.208213    59App    8.212286   103Ap     8.235875  
      60App    8.265360   104Ap     8.272879    61App    8.384952  
     105Ap     8.529717   106Ap     8.541692    62App    8.846599  
      63App    8.882806   107Ap     8.935270   108Ap     9.096248  
      64App    9.131082    65App    9.136034   109Ap     9.137405  
     110Ap     9.255253   111Ap     9.310554   112Ap     9.357945  
     113Ap     9.690661   114Ap    10.398668   115Ap    11.417687  
     116Ap    21.716203  

    Final Occupation by Irrep:
             Ap   App 
    DOCC [     7,    2 ]

  @DF-RKS Final Energy:  -399.38504474517856

   => Energetics <=

    Nuclear Repulsion Energy =             13.0940267380321007
    One-Electron Energy =                -577.0242851646736426
    Two-Electron Energy =                 184.6356890361168439
    DFT Exchange-Correlation Energy =     -20.1662166518072965
    Empirical Dispersion Energy =           0.0000000000000000
    VV10 Nonlocal Energy =                  0.0757412971534446
    Total Energy =                       -399.3850447451785612

Computation Completed


Properties will be evaluated at   0.000000,   0.000000,   0.000000 [a0]

Properties computed using the SCF density matrix

  Nuclear Dipole Moment: [e a0]
     X:     0.0013      Y:    -1.6000      Z:     0.0000

  Electronic Dipole Moment: [e a0]
     X:    -0.0004      Y:     1.2154      Z:     0.0000

  Dipole Moment: [e a0]
     X:     0.0009      Y:    -0.3846      Z:     0.0000     Total:     0.3846

  Dipole Moment: [D]
     X:     0.0022      Y:    -0.9776      Z:     0.0000     Total:     0.9776


*** tstop() called on bp1-compute00115.data.bp.acrc.priv at Mon Apr 19 15:58:11 2021
Module time:
	user time   =      91.71 seconds =       1.53 minutes
	system time =       2.60 seconds =       0.04 minutes
	total time  =          4 seconds =       0.07 minutes
Total time:
	user time   =     292.07 seconds =       4.87 minutes
	system time =      12.01 seconds =       0.20 minutes
	total time  =         14 seconds =       0.23 minutes

  //>>>>>>>>>>>>>>>>>>>>>>>>>>>>>>>>>>>//
  //    Loading displacement 4 of 7    //
  //<<<<<<<<<<<<<<<<<<<<<<<<<<<<<<<<<<<//

*** tstart() called on bp1-compute00115.data.bp.acrc.priv
*** at Mon Apr 19 15:58:11 2021

   => Loading Basis Set <=

    Name: AUG-CC-PV(Q+D)Z
    Role: ORBITAL
    Keyword: BASIS
    atoms 1   entry S          line  1148 file /work/zw18965/.conda/envs/p4env/share/psi4/basis/aug-cc-pv_qpd_z.gbs 
    atoms 2-3 entry H          line    56 file /work/zw18965/.conda/envs/p4env/share/psi4/basis/aug-cc-pv_qpd_z.gbs 


         ---------------------------------------------------------
                                   SCF
               by Justin Turney, Rob Parrish, Andy Simmonett
                          and Daniel G. A. Smith
                              RKS Reference
                       24 Threads, 137329 MiB Core
         ---------------------------------------------------------

  ==> Geometry <==

    Molecular point group: cs
    Full point group: Cs

    Geometry (in Angstrom), charge = 0, multiplicity = 1:

       Center              X                  Y                   Z               Mass       
    ------------   -----------------  -----------------  -----------------  -----------------
         S           -0.000126965036     0.053733933353     0.000000000000    31.972071174400
         H            0.961581927249    -0.850056154609     0.000000000000     1.007825032230
         H           -0.957554109879    -0.854590075348     0.000000000000     1.007825032230

  Running in cs symmetry.

  Rotational constants: A =     10.82977  B =      9.08296  C =      4.93987 [cm^-1]
  Rotational constants: A = 324668.25595  B = 272300.29307  C = 148093.66656 [MHz]
  Nuclear repulsion =   13.106779327762586

  Charge       = 0
  Multiplicity = 1
  Electrons    = 18
  Nalpha       = 9
  Nbeta        = 9

  ==> Algorithm <==

  SCF Algorithm Type is DF.
  DIIS enabled.
  MOM disabled.
  Fractional occupation disabled.
  Guess Type is SAD.
  Energy threshold   = 1.00e-08
  Density threshold  = 1.00e-08
  Integral threshold = 0.00e+00

  ==> Primary Basis <==

  Basis Set: AUG-CC-PV(Q+D)Z
    Blend: AUG-CC-PV(Q+D)Z
    Number of shells: 51
    Number of basis function: 181
    Number of Cartesian functions: 225
    Spherical Harmonics?: true
    Max angular momentum: 4

  ==> DFT Potential <==

   => Composite Functional: WB97M-V <= 

    wB97M-V Hyb-GGA Exchange-Correlation Functional

    N. Mardirossian and M. Head-Gordon, J. Chem. Phys. 144, 214110 (2016)

    Deriv               =              1
    GGA                 =           TRUE
    Meta                =           TRUE

    Exchange Hybrid     =           TRUE
    MP2 Hybrid          =          FALSE

   => Exchange-Correlation Functionals <=

    1.0000   wB97M-V exchange-correlation functional

   => Exact (HF) Exchange <=

    0.8500            HF,LR [omega = 0.3000]
    0.1500               HF 

   => VV10 Non-Local Parameters <=

    VV10 B              =     6.0000E+00
    VV10 C              =     1.0000E-02

   => Molecular Quadrature <=

    Radial Scheme          =       TREUTLER
    Pruning Scheme         =           FLAT
    Nuclear Scheme         =       TREUTLER

    BS radius alpha        =              1
    Pruning alpha          =              1
    Radial Points          =             75
    Spherical Points       =            302
    Total Points           =          67950
    Total Blocks           =            580
    Max Points             =            256
    Max Functions          =            181

   => Loading Basis Set <=

    Name: (AUG-CC-PV(Q+D)Z AUX)
    Role: JKFIT
    Keyword: DF_BASIS_SCF
    atoms 1   entry S          line   810 file /work/zw18965/.conda/envs/p4env/share/psi4/basis/aug-cc-pvqz-jkfit.gbs 
    atoms 2-3 entry H          line    70 file /work/zw18965/.conda/envs/p4env/share/psi4/basis/aug-cc-pvqz-jkfit.gbs 

  ==> Pre-Iterations <==

   -------------------------------------------------------
    Irrep   Nso     Nmo     Nalpha   Nbeta   Ndocc  Nsocc
   -------------------------------------------------------
     A'       116     116       0       0       0       0
     A"        65      65       0       0       0       0
   -------------------------------------------------------
    Total     181     181       9       9       9       0
   -------------------------------------------------------

  ==> Integral Setup <==

  ==> DiskDFJK: Density-Fitted J/K Matrices <==

    J tasked:                  Yes
    K tasked:                  Yes
    wK tasked:                 Yes
    Omega:               3.000E-01
    OpenMP threads:             24
    Integrals threads:          24
    Memory [MiB]:           102145
    Algorithm:                Core
    Integral Cache:           NONE
    Schwarz Cutoff:          1E-12
    Fitting Condition:       1E-10

   => Auxiliary Basis Set <=

  Basis Set: (AUG-CC-PV(Q+D)Z AUX)
    Blend: AUG-CC-PVQZ-JKFIT
    Number of shells: 82
    Number of basis function: 336
    Number of Cartesian functions: 449
    Spherical Harmonics?: true
    Max angular momentum: 5

  Cached 100.0% of DFT collocation blocks in 0.831 [GiB].

  Minimum eigenvalue in the overlap matrix is 6.1252120098E-05.
  Using Symmetric Orthogonalization.

  SCF Guess: Superposition of Atomic Densities via on-the-fly atomic UHF.

  ==> Iterations <==

                           Total Energy        Delta E     RMS |[F,P]|

   @DF-RKS iter SAD:  -399.13766936194554   -3.99138e+02   0.00000e+00 
   @DF-RKS iter   1:  -399.34477083755633   -2.07101e-01   2.24954e-03 DIIS
   @DF-RKS iter   2:  -399.37333317850971   -2.85623e-02   1.31866e-03 DIIS
   @DF-RKS iter   3:  -399.38481677272944   -1.14836e-02   7.91447e-05 DIIS
   @DF-RKS iter   4:  -399.38498886611706   -1.72093e-04   2.23194e-05 DIIS
   @DF-RKS iter   5:  -399.38499904820168   -1.01821e-05   5.17837e-06 DIIS
   @DF-RKS iter   6:  -399.38499948307771   -4.34876e-07   7.98184e-07 DIIS
   @DF-RKS iter   7:  -399.38499949796523   -1.48875e-08   1.56793e-07 DIIS
   @DF-RKS iter   8:  -399.38499949855196   -5.86738e-10   2.25972e-08 DIIS
   @DF-RKS iter   9:  -399.38499949857299   -2.10321e-11   4.49149e-09 DIIS
  Energy and wave function converged.


  ==> Post-Iterations <==

    Orbital Energies [Eh]
    ---------------------

    Doubly Occupied:                                                      

       1Ap   -89.208521     2Ap    -8.125164     3Ap    -6.035417  
       4Ap    -6.032581     1App   -6.027509     5Ap    -0.866835  
       6Ap    -0.549163     7Ap    -0.466204     2App   -0.361405  

    Virtual:                                                              

       8Ap     0.008953     9Ap     0.033132    10Ap     0.055682  
       3App    0.063176    11Ap     0.070695    12Ap     0.096742  
      13Ap     0.115532    14Ap     0.141040    15Ap     0.155402  
       4App    0.160913     5App    0.165024    16Ap     0.196773  
      17Ap     0.226100    18Ap     0.233551    19Ap     0.238542  
       6App    0.242243     7App    0.246562    20Ap     0.259239  
      21Ap     0.271620    22Ap     0.372877    23Ap     0.382440  
      24Ap     0.384196     8App    0.399071    25Ap     0.403331  
       9App    0.415892    10App    0.426720    11App    0.501638  
      26Ap     0.536195    27Ap     0.550626    28Ap     0.565921  
      29Ap     0.585493    30Ap     0.591553    12App    0.600343  
      13App    0.600397    31Ap     0.655959    32Ap     0.668286  
      33Ap     0.671213    14App    0.692615    34Ap     0.693044  
      15App    0.695444    35Ap     0.730473    36Ap     0.741886  
      16App    0.747612    17App    0.749145    37Ap     0.853554  
      38Ap     0.876900    39Ap     0.899310    40Ap     1.084257  
      41Ap     1.110690    18App    1.113256    19App    1.119949  
      42Ap     1.129966    43Ap     1.136623    44Ap     1.186899  
      20App    1.187184    21App    1.200167    45Ap     1.315540  
      46Ap     1.338533    22App    1.372697    23App    1.396794  
      47Ap     1.430886    48Ap     1.439438    49Ap     1.472877  
      24App    1.494463    25App    1.504756    50Ap     1.507059  
      26App    1.517666    51Ap     1.529551    27App    1.534566  
      52Ap     1.548895    53Ap     1.611529    54Ap     1.657909  
      28App    1.659374    29App    1.673156    55Ap     1.678518  
      30App    1.702568    56Ap     1.727095    57Ap     1.741143  
      58Ap     1.810292    31App    1.818163    59Ap     1.861410  
      60Ap     1.926888    61Ap     1.934189    32App    1.939191  
      62Ap     2.016155    33App    2.069634    34App    2.137209  
      63Ap     2.159308    35App    2.197739    64Ap     2.205169  
      65Ap     2.302348    66Ap     2.335935    67Ap     2.359177  
      68Ap     2.614065    36App    2.644655    37App    2.701682  
      69Ap     2.702332    70Ap     2.712924    38App    2.789539  
      71Ap     2.843747    39App    2.863717    72Ap     2.916595  
      73Ap     2.932318    40App    2.972767    41App    3.044109  
      74Ap     3.119966    75Ap     3.267463    76Ap     3.341360  
      42App    3.365694    77Ap     3.378282    43App    3.390358  
      78Ap     3.406051    44App    3.421588    79Ap     3.514253  
      80Ap     3.547138    81Ap     3.620569    82Ap     3.639191  
      45App    3.661323    46App    3.697994    83Ap     3.747417  
      47App    3.762872    48App    3.789702    84Ap     3.851241  
      85Ap     4.119923    86Ap     4.127013    49App    4.306763  
      87Ap     4.346565    88Ap     4.436474    50App    4.503213  
      89Ap     4.579395    90Ap     4.640527    51App    5.698473  
      91Ap     6.337027    52App    6.339598    53App    6.362483  
      92Ap     6.389076    93Ap     6.476217    94Ap     6.531576  
      54App    6.633391    95Ap     6.685147    55App    6.809046  
      96Ap     6.823797    97Ap     6.976509    98Ap     7.002278  
      56App    7.052018    57App    7.055256    99Ap     7.261856  
     100Ap     7.380008   101Ap     7.863051   102Ap     7.869408  
      58App    8.212022    59App    8.212345   103Ap     8.238889  
      60App    8.266927   104Ap     8.273994    61App    8.386723  
     105Ap     8.531509   106Ap     8.542840    62App    8.847938  
      63App    8.884544   107Ap     8.939262   108Ap     9.097834  
      64App    9.132491    65App    9.137009   109Ap     9.137196  
     110Ap     9.257057   111Ap     9.311643   112Ap     9.358681  
     113Ap     9.690532   114Ap    10.405768   115Ap    11.429912  
     116Ap    21.738475  

    Final Occupation by Irrep:
             Ap   App 
    DOCC [     7,    2 ]

  @DF-RKS Final Energy:  -399.38499949857299

   => Energetics <=

    Nuclear Repulsion Energy =             13.1067793277625864
    One-Electron Energy =                -577.0492944836137212
    Two-Electron Energy =                 184.6486548691608789
    DFT Exchange-Correlation Energy =     -20.1668813834108818
    Empirical Dispersion Energy =           0.0000000000000000
    VV10 Nonlocal Energy =                  0.0757421715280792
    Total Energy =                       -399.3849994985730518

Computation Completed


Properties will be evaluated at   0.000000,   0.000000,   0.000000 [a0]

Properties computed using the SCF density matrix

  Nuclear Dipole Moment: [e a0]
     X:     0.0038      Y:    -1.5966      Z:     0.0000

  Electronic Dipole Moment: [e a0]
     X:    -0.0029      Y:     1.2119      Z:     0.0000

  Dipole Moment: [e a0]
     X:     0.0009      Y:    -0.3847      Z:     0.0000     Total:     0.3847

  Dipole Moment: [D]
     X:     0.0023      Y:    -0.9779      Z:     0.0000     Total:     0.9779


*** tstop() called on bp1-compute00115.data.bp.acrc.priv at Mon Apr 19 15:58:15 2021
Module time:
	user time   =      93.95 seconds =       1.57 minutes
	system time =       3.97 seconds =       0.07 minutes
	total time  =          4 seconds =       0.07 minutes
Total time:
	user time   =     386.16 seconds =       6.44 minutes
	system time =      15.98 seconds =       0.27 minutes
	total time  =         18 seconds =       0.30 minutes

  //>>>>>>>>>>>>>>>>>>>>>>>>>>>>>>>>>>>//
  //    Loading displacement 5 of 7    //
  //<<<<<<<<<<<<<<<<<<<<<<<<<<<<<<<<<<<//

*** tstart() called on bp1-compute00115.data.bp.acrc.priv
*** at Mon Apr 19 15:58:15 2021

   => Loading Basis Set <=

    Name: AUG-CC-PV(Q+D)Z
    Role: ORBITAL
    Keyword: BASIS
    atoms 1   entry S          line  1148 file /work/zw18965/.conda/envs/p4env/share/psi4/basis/aug-cc-pv_qpd_z.gbs 
    atoms 2-3 entry H          line    56 file /work/zw18965/.conda/envs/p4env/share/psi4/basis/aug-cc-pv_qpd_z.gbs 


         ---------------------------------------------------------
                                   SCF
               by Justin Turney, Rob Parrish, Andy Simmonett
                          and Daniel G. A. Smith
                              RKS Reference
                       24 Threads, 137329 MiB Core
         ---------------------------------------------------------

  ==> Geometry <==

    Molecular point group: cs
    Full point group: Cs

    Geometry (in Angstrom), charge = 0, multiplicity = 1:

       Center              X                  Y                   Z               Mass       
    ------------   -----------------  -----------------  -----------------  -----------------
         S           -0.000126965036     0.053961842248     0.000000000000    31.972071174400
         H            0.961581908161    -0.853663160788     0.000000000000     1.007825032230
         H           -0.957554090791    -0.858213212469     0.000000000000     1.007825032230

  Running in cs symmetry.

  Rotational constants: A =     10.73848  B =      9.08296  C =      4.92079 [cm^-1]
  Rotational constants: A = 321931.57781  B = 272300.29259  C = 147521.64466 [MHz]
  Nuclear repulsion =   13.081150739155792

  Charge       = 0
  Multiplicity = 1
  Electrons    = 18
  Nalpha       = 9
  Nbeta        = 9

  ==> Algorithm <==

  SCF Algorithm Type is DF.
  DIIS enabled.
  MOM disabled.
  Fractional occupation disabled.
  Guess Type is SAD.
  Energy threshold   = 1.00e-08
  Density threshold  = 1.00e-08
  Integral threshold = 0.00e+00

  ==> Primary Basis <==

  Basis Set: AUG-CC-PV(Q+D)Z
    Blend: AUG-CC-PV(Q+D)Z
    Number of shells: 51
    Number of basis function: 181
    Number of Cartesian functions: 225
    Spherical Harmonics?: true
    Max angular momentum: 4

  ==> DFT Potential <==

   => Composite Functional: WB97M-V <= 

    wB97M-V Hyb-GGA Exchange-Correlation Functional

    N. Mardirossian and M. Head-Gordon, J. Chem. Phys. 144, 214110 (2016)

    Deriv               =              1
    GGA                 =           TRUE
    Meta                =           TRUE

    Exchange Hybrid     =           TRUE
    MP2 Hybrid          =          FALSE

   => Exchange-Correlation Functionals <=

    1.0000   wB97M-V exchange-correlation functional

   => Exact (HF) Exchange <=

    0.8500            HF,LR [omega = 0.3000]
    0.1500               HF 

   => VV10 Non-Local Parameters <=

    VV10 B              =     6.0000E+00
    VV10 C              =     1.0000E-02

   => Molecular Quadrature <=

    Radial Scheme          =       TREUTLER
    Pruning Scheme         =           FLAT
    Nuclear Scheme         =       TREUTLER

    BS radius alpha        =              1
    Pruning alpha          =              1
    Radial Points          =             75
    Spherical Points       =            302
    Total Points           =          67950
    Total Blocks           =            580
    Max Points             =            256
    Max Functions          =            181

   => Loading Basis Set <=

    Name: (AUG-CC-PV(Q+D)Z AUX)
    Role: JKFIT
    Keyword: DF_BASIS_SCF
    atoms 1   entry S          line   810 file /work/zw18965/.conda/envs/p4env/share/psi4/basis/aug-cc-pvqz-jkfit.gbs 
    atoms 2-3 entry H          line    70 file /work/zw18965/.conda/envs/p4env/share/psi4/basis/aug-cc-pvqz-jkfit.gbs 

  ==> Pre-Iterations <==

   -------------------------------------------------------
    Irrep   Nso     Nmo     Nalpha   Nbeta   Ndocc  Nsocc
   -------------------------------------------------------
     A'       116     116       0       0       0       0
     A"        65      65       0       0       0       0
   -------------------------------------------------------
    Total     181     181       9       9       9       0
   -------------------------------------------------------

  ==> Integral Setup <==

  ==> DiskDFJK: Density-Fitted J/K Matrices <==

    J tasked:                  Yes
    K tasked:                  Yes
    wK tasked:                 Yes
    Omega:               3.000E-01
    OpenMP threads:             24
    Integrals threads:          24
    Memory [MiB]:           102145
    Algorithm:                Core
    Integral Cache:           NONE
    Schwarz Cutoff:          1E-12
    Fitting Condition:       1E-10

   => Auxiliary Basis Set <=

  Basis Set: (AUG-CC-PV(Q+D)Z AUX)
    Blend: AUG-CC-PVQZ-JKFIT
    Number of shells: 82
    Number of basis function: 336
    Number of Cartesian functions: 449
    Spherical Harmonics?: true
    Max angular momentum: 5

  Cached 100.0% of DFT collocation blocks in 0.831 [GiB].

  Minimum eigenvalue in the overlap matrix is 6.1799795909E-05.
  Using Symmetric Orthogonalization.

  SCF Guess: Superposition of Atomic Densities via on-the-fly atomic UHF.

  ==> Iterations <==

                           Total Energy        Delta E     RMS |[F,P]|

   @DF-RKS iter SAD:  -399.13543299494819   -3.99135e+02   0.00000e+00 
   @DF-RKS iter   1:  -399.34481515796432   -2.09382e-01   2.24898e-03 DIIS
   @DF-RKS iter   2:  -399.37334378066112   -2.85286e-02   1.32145e-03 DIIS
   @DF-RKS iter   3:  -399.38491100518894   -1.15672e-02   7.91189e-05 DIIS
   @DF-RKS iter   4:  -399.38508298770927   -1.71983e-04   2.24308e-05 DIIS
   @DF-RKS iter   5:  -399.38509326907689   -1.02814e-05   5.19731e-06 DIIS
   @DF-RKS iter   6:  -399.38509370979739   -4.40720e-07   8.01112e-07 DIIS
   @DF-RKS iter   7:  -399.38509372483622   -1.50388e-08   1.57318e-07 DIIS
   @DF-RKS iter   8:  -399.38509372543064   -5.94412e-10   2.26956e-08 DIIS
   @DF-RKS iter   9:  -399.38509372545241   -2.17710e-11   4.48279e-09 DIIS
  Energy and wave function converged.


  ==> Post-Iterations <==

    Orbital Energies [Eh]
    ---------------------

    Doubly Occupied:                                                      

       1Ap   -89.208907     2Ap    -8.125406     3Ap    -6.035662  
       4Ap    -6.032845     1App   -6.027750     5Ap    -0.866285  
       6Ap    -0.548113     7Ap    -0.466447     2App   -0.361367  

    Virtual:                                                              

       8Ap     0.008912     9Ap     0.033148    10Ap     0.055680  
       3App    0.063186    11Ap     0.070403    12Ap     0.096598  
      13Ap     0.115206    14Ap     0.141166    15Ap     0.155176  
       4App    0.160946     5App    0.164936    16Ap     0.196726  
      17Ap     0.226114    18Ap     0.233495    19Ap     0.238388  
       6App    0.242272     7App    0.246488    20Ap     0.259169  
      21Ap     0.271272    22Ap     0.373278    23Ap     0.382481  
      24Ap     0.383903     8App    0.398935    25Ap     0.403170  
       9App    0.416131    10App    0.426714    11App    0.501612  
      26Ap     0.536195    27Ap     0.550383    28Ap     0.565519  
      29Ap     0.585265    30Ap     0.591466    12App    0.600030  
      13App    0.600249    31Ap     0.655548    32Ap     0.668270  
      33Ap     0.670903    14App    0.692525    34Ap     0.692926  
      15App    0.695452    35Ap     0.730349    36Ap     0.741929  
      16App    0.746998    17App    0.749839    37Ap     0.853149  
      38Ap     0.876138    39Ap     0.899003    40Ap     1.084676  
      41Ap     1.110778    18App    1.113026    19App    1.120341  
      42Ap     1.129302    43Ap     1.136800    44Ap     1.185743  
      20App    1.186453    21App    1.198999    45Ap     1.315142  
      46Ap     1.338474    22App    1.372564    23App    1.396913  
      47Ap     1.430461    48Ap     1.438688    49Ap     1.472542  
      24App    1.494133    25App    1.504921    50Ap     1.507291  
      26App    1.518195    51Ap     1.529159    27App    1.533929  
      52Ap     1.548982    53Ap     1.610765    54Ap     1.656812  
      28App    1.658302    29App    1.672694    55Ap     1.678155  
      30App    1.702221    56Ap     1.726282    57Ap     1.740237  
      58Ap     1.809147    31App    1.819969    59Ap     1.860363  
      60Ap     1.928275    61Ap     1.933364    32App    1.939192  
      62Ap     2.017962    33App    2.069554    34App    2.136414  
      63Ap     2.159923    35App    2.195977    64Ap     2.203265  
      65Ap     2.302496    66Ap     2.335114    67Ap     2.355836  
      68Ap     2.611905    36App    2.642608    69Ap     2.699014  
      37App    2.700700    70Ap     2.711651    38App    2.786149  
      71Ap     2.842311    39App    2.861677    72Ap     2.915099  
      73Ap     2.931077    40App    2.972175    41App    3.040749  
      74Ap     3.117081    75Ap     3.266653    76Ap     3.342550  
      42App    3.365995    77Ap     3.378350    43App    3.390368  
      78Ap     3.404929    44App    3.422430    79Ap     3.511749  
      80Ap     3.546167    81Ap     3.619934    82Ap     3.634571  
      45App    3.659485    46App    3.696629    83Ap     3.746175  
      47App    3.759784    48App    3.789432    84Ap     3.848336  
      85Ap     4.118007    86Ap     4.126173    49App    4.305591  
      87Ap     4.341768    88Ap     4.435151    50App    4.498827  
      89Ap     4.575938    90Ap     4.637498    51App    5.692867  
      91Ap     6.337169    52App    6.339361    53App    6.362818  
      92Ap     6.388532    93Ap     6.475810    94Ap     6.528758  
      54App    6.629193    95Ap     6.681256    55App    6.806658  
      96Ap     6.818792    97Ap     6.974881    98Ap     7.003080  
      56App    7.047937    57App    7.052338    99Ap     7.257800  
     100Ap     7.373558   101Ap     7.855205   102Ap     7.861450  
      58App    8.208301    59App    8.208456   103Ap     8.232895  
      60App    8.263692   104Ap     8.271758    61App    8.383117  
     105Ap     8.527921   106Ap     8.540529    62App    8.845461  
      63App    8.880834   107Ap     8.931192   108Ap     9.094691  
      64App    9.130817    65App    9.133865   109Ap     9.137631  
     110Ap     9.253382   111Ap     9.309395   112Ap     9.357224  
     113Ap     9.690810   114Ap    10.391779   115Ap    11.405169  
     116Ap    21.693517  

    Final Occupation by Irrep:
             Ap   App 
    DOCC [     7,    2 ]

  @DF-RKS Final Energy:  -399.38509372545241

   => Energetics <=

    Nuclear Repulsion Energy =             13.0811507391557917
    One-Electron Energy =                -576.9990404856063151
    Two-Electron Energy =                 184.6226006255805885
    DFT Exchange-Correlation Energy =     -20.1655449985607724
    Empirical Dispersion Energy =           0.0000000000000000
    VV10 Nonlocal Energy =                  0.0757403939783045
    Total Energy =                       -399.3850937254524069

Computation Completed


Properties will be evaluated at   0.000000,   0.000000,   0.000000 [a0]

Properties computed using the SCF density matrix

  Nuclear Dipole Moment: [e a0]
     X:     0.0038      Y:    -1.6034      Z:     0.0000

  Electronic Dipole Moment: [e a0]
     X:    -0.0029      Y:     1.2189      Z:     0.0000

  Dipole Moment: [e a0]
     X:     0.0009      Y:    -0.3845      Z:     0.0000     Total:     0.3845

  Dipole Moment: [D]
     X:     0.0023      Y:    -0.9772      Z:     0.0000     Total:     0.9772


*** tstop() called on bp1-compute00115.data.bp.acrc.priv at Mon Apr 19 15:58:19 2021
Module time:
	user time   =      90.95 seconds =       1.52 minutes
	system time =       2.71 seconds =       0.05 minutes
	total time  =          4 seconds =       0.07 minutes
Total time:
	user time   =     477.26 seconds =       7.95 minutes
	system time =      18.70 seconds =       0.31 minutes
	total time  =         22 seconds =       0.37 minutes

  //>>>>>>>>>>>>>>>>>>>>>>>>>>>>>>>>>>>//
  //    Loading displacement 6 of 7    //
  //<<<<<<<<<<<<<<<<<<<<<<<<<<<<<<<<<<<//

*** tstart() called on bp1-compute00115.data.bp.acrc.priv
*** at Mon Apr 19 15:58:19 2021

   => Loading Basis Set <=

    Name: AUG-CC-PV(Q+D)Z
    Role: ORBITAL
    Keyword: BASIS
    atoms 1   entry S          line  1148 file /work/zw18965/.conda/envs/p4env/share/psi4/basis/aug-cc-pv_qpd_z.gbs 
    atoms 2-3 entry H          line    56 file /work/zw18965/.conda/envs/p4env/share/psi4/basis/aug-cc-pv_qpd_z.gbs 


         ---------------------------------------------------------
                                   SCF
               by Justin Turney, Rob Parrish, Andy Simmonett
                          and Daniel G. A. Smith
                              RKS Reference
                       24 Threads, 137329 MiB Core
         ---------------------------------------------------------

  ==> Geometry <==

    Molecular point group: cs
    Full point group: Cs

    Geometry (in Angstrom), charge = 0, multiplicity = 1:

       Center              X                  Y                   Z               Mass       
    ------------   -----------------  -----------------  -----------------  -----------------
         S           -0.000126965036     0.053847887801     0.000000000000    31.972071174400
         H            0.959718276293    -0.851864068347     0.000000000000     1.007825032230
         H           -0.955690458923    -0.856397233260     0.000000000000     1.007825032230

  Running in cs symmetry.

  Rotational constants: A =     10.78398  B =      9.11834  C =      4.94073 [cm^-1]
  Rotational constants: A = 323295.57317  B = 273361.08766  C = 148119.40487 [MHz]
  Nuclear repulsion =   13.107638123080243

  Charge       = 0
  Multiplicity = 1
  Electrons    = 18
  Nalpha       = 9
  Nbeta        = 9

  ==> Algorithm <==

  SCF Algorithm Type is DF.
  DIIS enabled.
  MOM disabled.
  Fractional occupation disabled.
  Guess Type is SAD.
  Energy threshold   = 1.00e-08
  Density threshold  = 1.00e-08
  Integral threshold = 0.00e+00

  ==> Primary Basis <==

  Basis Set: AUG-CC-PV(Q+D)Z
    Blend: AUG-CC-PV(Q+D)Z
    Number of shells: 51
    Number of basis function: 181
    Number of Cartesian functions: 225
    Spherical Harmonics?: true
    Max angular momentum: 4

  ==> DFT Potential <==

   => Composite Functional: WB97M-V <= 

    wB97M-V Hyb-GGA Exchange-Correlation Functional

    N. Mardirossian and M. Head-Gordon, J. Chem. Phys. 144, 214110 (2016)

    Deriv               =              1
    GGA                 =           TRUE
    Meta                =           TRUE

    Exchange Hybrid     =           TRUE
    MP2 Hybrid          =          FALSE

   => Exchange-Correlation Functionals <=

    1.0000   wB97M-V exchange-correlation functional

   => Exact (HF) Exchange <=

    0.8500            HF,LR [omega = 0.3000]
    0.1500               HF 

   => VV10 Non-Local Parameters <=

    VV10 B              =     6.0000E+00
    VV10 C              =     1.0000E-02

   => Molecular Quadrature <=

    Radial Scheme          =       TREUTLER
    Pruning Scheme         =           FLAT
    Nuclear Scheme         =       TREUTLER

    BS radius alpha        =              1
    Pruning alpha          =              1
    Radial Points          =             75
    Spherical Points       =            302
    Total Points           =          67950
    Total Blocks           =            581
    Max Points             =            256
    Max Functions          =            181

   => Loading Basis Set <=

    Name: (AUG-CC-PV(Q+D)Z AUX)
    Role: JKFIT
    Keyword: DF_BASIS_SCF
    atoms 1   entry S          line   810 file /work/zw18965/.conda/envs/p4env/share/psi4/basis/aug-cc-pvqz-jkfit.gbs 
    atoms 2-3 entry H          line    70 file /work/zw18965/.conda/envs/p4env/share/psi4/basis/aug-cc-pvqz-jkfit.gbs 

  ==> Pre-Iterations <==

   -------------------------------------------------------
    Irrep   Nso     Nmo     Nalpha   Nbeta   Ndocc  Nsocc
   -------------------------------------------------------
     A'       116     116       0       0       0       0
     A"        65      65       0       0       0       0
   -------------------------------------------------------
    Total     181     181       9       9       9       0
   -------------------------------------------------------

  ==> Integral Setup <==

  ==> DiskDFJK: Density-Fitted J/K Matrices <==

    J tasked:                  Yes
    K tasked:                  Yes
    wK tasked:                 Yes
    Omega:               3.000E-01
    OpenMP threads:             24
    Integrals threads:          24
    Memory [MiB]:           102145
    Algorithm:                Core
    Integral Cache:           NONE
    Schwarz Cutoff:          1E-12
    Fitting Condition:       1E-10

   => Auxiliary Basis Set <=

  Basis Set: (AUG-CC-PV(Q+D)Z AUX)
    Blend: AUG-CC-PVQZ-JKFIT
    Number of shells: 82
    Number of basis function: 336
    Number of Cartesian functions: 449
    Spherical Harmonics?: true
    Max angular momentum: 5

  Cached 100.0% of DFT collocation blocks in 0.832 [GiB].

  Minimum eigenvalue in the overlap matrix is 6.1286907867E-05.
  Using Symmetric Orthogonalization.

  SCF Guess: Superposition of Atomic Densities via on-the-fly atomic UHF.

  ==> Iterations <==

                           Total Energy        Delta E     RMS |[F,P]|

   @DF-RKS iter SAD:  -399.13787867467312   -3.99138e+02   0.00000e+00 
   @DF-RKS iter   1:  -399.34479928003907   -2.06921e-01   2.24928e-03 DIIS
   @DF-RKS iter   2:  -399.37333548345168   -2.85362e-02   1.31875e-03 DIIS
   @DF-RKS iter   3:  -399.38482405579379   -1.14886e-02   7.91582e-05 DIIS
   @DF-RKS iter   4:  -399.38499590951091   -1.71854e-04   2.24871e-05 DIIS
   @DF-RKS iter   5:  -399.38500618662687   -1.02771e-05   5.19852e-06 DIIS
   @DF-RKS iter   6:  -399.38500662723010   -4.40603e-07   7.99135e-07 DIIS
   @DF-RKS iter   7:  -399.38500664220993   -1.49798e-08   1.56853e-07 DIIS
   @DF-RKS iter   8:  -399.38500664280008   -5.90148e-10   2.26242e-08 DIIS
   @DF-RKS iter   9:  -399.38500664282128   -2.12026e-11   4.48420e-09 DIIS
  Energy and wave function converged.


  ==> Post-Iterations <==

    Orbital Energies [Eh]
    ---------------------

    Doubly Occupied:                                                      

       1Ap   -89.208530     2Ap    -8.125171     3Ap    -6.035419  
       4Ap    -6.032594     1App   -6.027513     5Ap    -0.866880  
       6Ap    -0.548748     7Ap    -0.466562     2App   -0.361409  

    Virtual:                                                              

       8Ap     0.008958     9Ap     0.033163    10Ap     0.055671  
       3App    0.063174    11Ap     0.070576    12Ap     0.096787  
      13Ap     0.115484    14Ap     0.141226    15Ap     0.155287  
       4App    0.160969     5App    0.164966    16Ap     0.196698  
      17Ap     0.226112    18Ap     0.233577    19Ap     0.238405  
       6App    0.242265     7App    0.246550    20Ap     0.259295  
      21Ap     0.271759    22Ap     0.373113    23Ap     0.382598  
      24Ap     0.383995     8App    0.399083    25Ap     0.403096  
       9App    0.416011    10App    0.426597    11App    0.501606  
      26Ap     0.536159    27Ap     0.550694    28Ap     0.565871  
      29Ap     0.585357    30Ap     0.591672    12App    0.600340  
      13App    0.600426    31Ap     0.655946    32Ap     0.668384  
      33Ap     0.671243    14App    0.692554    34Ap     0.693053  
      15App    0.695488    35Ap     0.730300    36Ap     0.742069  
      16App    0.747024    17App    0.749775    37Ap     0.853405  
      38Ap     0.876834    39Ap     0.899219    40Ap     1.084551  
      41Ap     1.111487    18App    1.113155    19App    1.119958  
      42Ap     1.129057    43Ap     1.136502    44Ap     1.186800  
      20App    1.187202    21App    1.200144    45Ap     1.315574  
      46Ap     1.338911    22App    1.372643    23App    1.396841  
      47Ap     1.430867    48Ap     1.439245    49Ap     1.472607  
      24App    1.494459    25App    1.505325    50Ap     1.507814  
      26App    1.518363    51Ap     1.529443    27App    1.534133  
      52Ap     1.548912    53Ap     1.610945    54Ap     1.657961  
      28App    1.658447    29App    1.673196    55Ap     1.679052  
      30App    1.702891    56Ap     1.726862    57Ap     1.740977  
      58Ap     1.809773    31App    1.819775    59Ap     1.861718  
      60Ap     1.927337    61Ap     1.932561    32App    1.939262  
      62Ap     2.017950    33App    2.069950    34App    2.136938  
      63Ap     2.160823    35App    2.197690    64Ap     2.204833  
      65Ap     2.302137    66Ap     2.337825    67Ap     2.358421  
      68Ap     2.613610    36App    2.644948    69Ap     2.701764  
      37App    2.701985    70Ap     2.712847    38App    2.788396  
      71Ap     2.842626    39App    2.862951    72Ap     2.916371  
      73Ap     2.932452    40App    2.973636    41App    3.044016  
      74Ap     3.119454    75Ap     3.269730    76Ap     3.341683  
      42App    3.366008    77Ap     3.378583    43App    3.390326  
      78Ap     3.405571    44App    3.421362    79Ap     3.513898  
      80Ap     3.547454    81Ap     3.620750    82Ap     3.638426  
      45App    3.661279    46App    3.698166    83Ap     3.748098  
      47App    3.761818    48App    3.791224    84Ap     3.851254  
      85Ap     4.121039    86Ap     4.127409    49App    4.306267  
      87Ap     4.345372    88Ap     4.436495    50App    4.503640  
      89Ap     4.579515    90Ap     4.641638    51App    5.698566  
      91Ap     6.337644    52App    6.339826    53App    6.363007  
      92Ap     6.389949    93Ap     6.477609    94Ap     6.532485  
      54App    6.631464    95Ap     6.683922    55App    6.812382  
      96Ap     6.823354    97Ap     6.976310    98Ap     7.004073  
      56App    7.051390    57App    7.055887    99Ap     7.263493  
     100Ap     7.377099   101Ap     7.863700   102Ap     7.868695  
      58App    8.211481    59App    8.212446   103Ap     8.239010  
      60App    8.267366   104Ap     8.276019    61App    8.386120  
     105Ap     8.531713   106Ap     8.544930    62App    8.848409  
      63App    8.884453   107Ap     8.934205   108Ap     9.097777  
      64App    9.132968    65App    9.136762   109Ap     9.140757  
     110Ap     9.257596   111Ap     9.310612   112Ap     9.358231  
     113Ap     9.693407   114Ap    10.405501   115Ap    11.429819  
     116Ap    21.738849  

    Final Occupation by Irrep:
             Ap   App 
    DOCC [     7,    2 ]

  @DF-RKS Final Energy:  -399.38500664282128

   => Energetics <=

    Nuclear Repulsion Energy =             13.1076381230802426
    One-Electron Energy =                -577.0509412386718395
    Two-Electron Energy =                 184.6494774490767270
    DFT Exchange-Correlation Energy =     -20.1669229336976912
    Empirical Dispersion Energy =           0.0000000000000000
    VV10 Nonlocal Energy =                  0.0757419573912660
    Total Energy =                       -399.3850066428213381

Computation Completed


Properties will be evaluated at   0.000000,   0.000000,   0.000000 [a0]

Properties computed using the SCF density matrix

  Nuclear Dipole Moment: [e a0]
     X:     0.0038      Y:    -1.6000      Z:     0.0000

  Electronic Dipole Moment: [e a0]
     X:    -0.0029      Y:     1.2155      Z:     0.0000

  Dipole Moment: [e a0]
     X:     0.0009      Y:    -0.3845      Z:     0.0000     Total:     0.3845

  Dipole Moment: [D]
     X:     0.0023      Y:    -0.9773      Z:     0.0000     Total:     0.9773


*** tstop() called on bp1-compute00115.data.bp.acrc.priv at Mon Apr 19 15:58:24 2021
Module time:
	user time   =      92.27 seconds =       1.54 minutes
	system time =       2.79 seconds =       0.05 minutes
	total time  =          5 seconds =       0.08 minutes
Total time:
	user time   =     569.67 seconds =       9.49 minutes
	system time =      21.50 seconds =       0.36 minutes
	total time  =         27 seconds =       0.45 minutes

  //>>>>>>>>>>>>>>>>>>>>>>>>>>>>>>>>>>>//
  //    Loading displacement 7 of 7    //
  //<<<<<<<<<<<<<<<<<<<<<<<<<<<<<<<<<<<//

*** tstart() called on bp1-compute00115.data.bp.acrc.priv
*** at Mon Apr 19 15:58:24 2021

   => Loading Basis Set <=

    Name: AUG-CC-PV(Q+D)Z
    Role: ORBITAL
    Keyword: BASIS
    atoms 1   entry S          line  1148 file /work/zw18965/.conda/envs/p4env/share/psi4/basis/aug-cc-pv_qpd_z.gbs 
    atoms 2-3 entry H          line    56 file /work/zw18965/.conda/envs/p4env/share/psi4/basis/aug-cc-pv_qpd_z.gbs 


         ---------------------------------------------------------
                                   SCF
               by Justin Turney, Rob Parrish, Andy Simmonett
                          and Daniel G. A. Smith
                              RKS Reference
                       24 Threads, 137329 MiB Core
         ---------------------------------------------------------

  ==> Geometry <==

    Molecular point group: cs
    Full point group: Cs

    Geometry (in Angstrom), charge = 0, multiplicity = 1:

       Center              X                  Y                   Z               Mass       
    ------------   -----------------  -----------------  -----------------  -----------------
         S           -0.000126965036     0.053847887801     0.000000000000    31.972071174400
         H            0.963445559117    -0.851855247050     0.000000000000     1.007825032230
         H           -0.959417741747    -0.856406054557     0.000000000000     1.007825032230

  Running in cs symmetry.

  Rotational constants: A =     10.78398  B =      9.04778  C =      4.91994 [cm^-1]
  Rotational constants: A = 323295.57316  B = 271245.66103  C = 147496.11365 [MHz]
  Nuclear repulsion =   13.080297577573113

  Charge       = 0
  Multiplicity = 1
  Electrons    = 18
  Nalpha       = 9
  Nbeta        = 9

  ==> Algorithm <==

  SCF Algorithm Type is DF.
  DIIS enabled.
  MOM disabled.
  Fractional occupation disabled.
  Guess Type is SAD.
  Energy threshold   = 1.00e-08
  Density threshold  = 1.00e-08
  Integral threshold = 0.00e+00

  ==> Primary Basis <==

  Basis Set: AUG-CC-PV(Q+D)Z
    Blend: AUG-CC-PV(Q+D)Z
    Number of shells: 51
    Number of basis function: 181
    Number of Cartesian functions: 225
    Spherical Harmonics?: true
    Max angular momentum: 4

  ==> DFT Potential <==

   => Composite Functional: WB97M-V <= 

    wB97M-V Hyb-GGA Exchange-Correlation Functional

    N. Mardirossian and M. Head-Gordon, J. Chem. Phys. 144, 214110 (2016)

    Deriv               =              1
    GGA                 =           TRUE
    Meta                =           TRUE

    Exchange Hybrid     =           TRUE
    MP2 Hybrid          =          FALSE

   => Exchange-Correlation Functionals <=

    1.0000   wB97M-V exchange-correlation functional

   => Exact (HF) Exchange <=

    0.8500            HF,LR [omega = 0.3000]
    0.1500               HF 

   => VV10 Non-Local Parameters <=

    VV10 B              =     6.0000E+00
    VV10 C              =     1.0000E-02

   => Molecular Quadrature <=

    Radial Scheme          =       TREUTLER
    Pruning Scheme         =           FLAT
    Nuclear Scheme         =       TREUTLER

    BS radius alpha        =              1
    Pruning alpha          =              1
    Radial Points          =             75
    Spherical Points       =            302
    Total Points           =          67950
    Total Blocks           =            580
    Max Points             =            255
    Max Functions          =            181

   => Loading Basis Set <=

    Name: (AUG-CC-PV(Q+D)Z AUX)
    Role: JKFIT
    Keyword: DF_BASIS_SCF
    atoms 1   entry S          line   810 file /work/zw18965/.conda/envs/p4env/share/psi4/basis/aug-cc-pvqz-jkfit.gbs 
    atoms 2-3 entry H          line    70 file /work/zw18965/.conda/envs/p4env/share/psi4/basis/aug-cc-pvqz-jkfit.gbs 

  ==> Pre-Iterations <==

   -------------------------------------------------------
    Irrep   Nso     Nmo     Nalpha   Nbeta   Ndocc  Nsocc
   -------------------------------------------------------
     A'       116     116       0       0       0       0
     A"        65      65       0       0       0       0
   -------------------------------------------------------
    Total     181     181       9       9       9       0
   -------------------------------------------------------

  ==> Integral Setup <==

  ==> DiskDFJK: Density-Fitted J/K Matrices <==

    J tasked:                  Yes
    K tasked:                  Yes
    wK tasked:                 Yes
    Omega:               3.000E-01
[...]


         ---------------------------------------------------------
                                   SCF
               by Justin Turney, Rob Parrish, Andy Simmonett
                          and Daniel G. A. Smith
                              RKS Reference
                       24 Threads, 137329 MiB Core
         ---------------------------------------------------------

  ==> Geometry <==

    Molecular point group: cs
    Full point group: Cs

    Geometry (in Angstrom), charge = 0, multiplicity = 1:

       Center              X                  Y                   Z               Mass       
    ------------   -----------------  -----------------  -----------------  -----------------
         S           -0.000129936389     0.054819999463     0.000000000000    31.972071174400
         H            0.964348565032    -0.867279057086     0.000000000000     1.007825032230
         H           -0.960226484963    -0.871821350795     0.000000000000     1.007825032230

  Running in cs symmetry.

  Rotational constants: A =     10.40491  B =      9.03169  C =      4.83490 [cm^-1]
  Rotational constants: A = 311931.34941  B = 270763.38306  C = 144946.54360 [MHz]
  Nuclear repulsion =   12.965613542678369

  Charge       = 0
  Multiplicity = 1
  Electrons    = 18
  Nalpha       = 9
  Nbeta        = 9

  ==> Algorithm <==

  SCF Algorithm Type is DF.
  DIIS enabled.
  MOM disabled.
  Fractional occupation disabled.
  Guess Type is SAD.
  Energy threshold   = 1.00e-10
  Density threshold  = 1.00e-10
  Integral threshold = 0.00e+00

  ==> Primary Basis <==

  Basis Set: AUG-CC-PV(Q+D)Z
    Blend: AUG-CC-PV(Q+D)Z
    Number of shells: 51
    Number of basis function: 181
    Number of Cartesian functions: 225
    Spherical Harmonics?: true
    Max angular momentum: 4

  ==> DFT Potential <==

   => Composite Functional: WB97M-V <= 

    wB97M-V Hyb-GGA Exchange-Correlation Functional

    N. Mardirossian and M. Head-Gordon, J. Chem. Phys. 144, 214110 (2016)

    Deriv               =              1
    GGA                 =           TRUE
    Meta                =           TRUE

    Exchange Hybrid     =           TRUE
    MP2 Hybrid          =          FALSE

   => Exchange-Correlation Functionals <=

    1.0000   wB97M-V exchange-correlation functional

   => Exact (HF) Exchange <=

    0.8500            HF,LR [omega = 0.3000]
    0.1500               HF 

   => VV10 Non-Local Parameters <=

    VV10 B              =     6.0000E+00
    VV10 C              =     1.0000E-02

   => Molecular Quadrature <=

    Radial Scheme          =       TREUTLER
    Pruning Scheme         =           FLAT
    Nuclear Scheme         =       TREUTLER

    BS radius alpha        =              1
    Pruning alpha          =              1
    Radial Points          =             75
    Spherical Points       =            302
    Total Points           =          67950
    Total Blocks           =            580
    Max Points             =            256
    Max Functions          =            181

   => Loading Basis Set <=

    Name: (AUG-CC-PV(Q+D)Z AUX)
    Role: JKFIT
    Keyword: DF_BASIS_SCF
    atoms 1   entry S          line   810 file /work/zw18965/.conda/envs/p4env/share/psi4/basis/aug-cc-pvqz-jkfit.gbs 
    atoms 2-3 entry H          line    70 file /work/zw18965/.conda/envs/p4env/share/psi4/basis/aug-cc-pvqz-jkfit.gbs 

  ==> Pre-Iterations <==

   -------------------------------------------------------
    Irrep   Nso     Nmo     Nalpha   Nbeta   Ndocc  Nsocc
   -------------------------------------------------------
     A'       116     116       0       0       0       0
     A"        65      65       0       0       0       0
   -------------------------------------------------------
    Total     181     181       9       9       9       0
   -------------------------------------------------------

  ==> Integral Setup <==

  ==> DiskDFJK: Density-Fitted J/K Matrices <==

    J tasked:                  Yes
    K tasked:                  Yes
    wK tasked:                 Yes
    Omega:               3.000E-01
    OpenMP threads:             24
    Integrals threads:          24
    Memory [MiB]:           102146
    Algorithm:                Core
    Integral Cache:           NONE
    Schwarz Cutoff:          1E-12
    Fitting Condition:       1E-10

   => Auxiliary Basis Set <=

  Basis Set: (AUG-CC-PV(Q+D)Z AUX)
    Blend: AUG-CC-PVQZ-JKFIT
    Number of shells: 82
    Number of basis function: 336
    Number of Cartesian functions: 449
    Spherical Harmonics?: true
    Max angular momentum: 5

  Cached 100.0% of DFT collocation blocks in 0.831 [GiB].

  Minimum eigenvalue in the overlap matrix is 6.4257600069E-05.
  Using Symmetric Orthogonalization.

  SCF Guess: Superposition of Atomic Densities via on-the-fly atomic UHF.

  ==> Iterations <==

                           Total Energy        Delta E     RMS |[F,P]|

   @DF-RKS iter SAD:  -399.12501686583653   -3.99125e+02   0.00000e+00 
   @DF-RKS iter   1:  -399.34475502692993   -2.19738e-01   2.24734e-03 DIIS
   @DF-RKS iter   2:  -399.37317526627106   -2.84202e-02   1.33445e-03 DIIS
   @DF-RKS iter   3:  -399.38512865424633   -1.19534e-02   7.89992e-05 DIIS
   @DF-RKS iter   4:  -399.38530058790229   -1.71934e-04   2.26895e-05 DIIS
   @DF-RKS iter   5:  -399.38531119194721   -1.06040e-05   5.25677e-06 DIIS
   @DF-RKS iter   6:  -399.38531165215647   -4.60209e-07   8.14371e-07 DIIS
   @DF-RKS iter   7:  -399.38531166781763   -1.56612e-08   1.59807e-07 DIIS
   @DF-RKS iter   8:  -399.38531166844569   -6.28063e-10   2.31110e-08 DIIS
   @DF-RKS iter   9:  -399.38531166846712   -2.14300e-11   4.43764e-09 DIIS
   @DF-RKS iter  10:  -399.38531166846815   -1.02318e-12   6.05325e-10 DIIS
   @DF-RKS iter  11:  -399.38531166846781    3.41061e-13   1.05502e-10 DIIS
   @DF-RKS iter  12:  -399.38531166846803   -2.27374e-13   1.67284e-11 DIIS
  Energy and wave function converged.


  ==> Post-Iterations <==

    Orbital Energies [Eh]
    ---------------------

    Doubly Occupied:                                                      

       1Ap   -89.210612     2Ap    -8.126482     3Ap    -6.036760  
       4Ap    -6.034009     1App   -6.028826     5Ap    -0.863776  
       6Ap    -0.544037     7Ap    -0.466987     2App   -0.361193  

    Virtual:                                                              

       8Ap     0.008711     9Ap     0.033168    10Ap     0.055690  
       3App    0.063232    11Ap     0.069234    12Ap     0.095861  
      13Ap     0.113816    14Ap     0.141447    15Ap     0.154322  
       4App    0.161013     5App    0.164621    16Ap     0.196645  
      17Ap     0.226160    18Ap     0.233215    19Ap     0.237902  
       6App    0.242371     7App    0.246179    20Ap     0.258787  
      21Ap     0.269490    22Ap     0.374680    23Ap     0.382444  
      24Ap     0.382936     8App    0.398298    25Ap     0.402827  
       9App    0.417027    10App    0.426876    11App    0.501531  
      26Ap     0.536223    27Ap     0.549178    28Ap     0.563796  
      29Ap     0.584429    30Ap     0.590854    12App    0.598472  
      13App    0.599697    31Ap     0.653709    32Ap     0.668060  
      33Ap     0.669457    14App    0.692209    34Ap     0.692394  
      15App    0.695413    35Ap     0.730004    36Ap     0.741972  
      16App    0.745142    17App    0.751990    37Ap     0.851531  
      38Ap     0.872805    39Ap     0.897838    40Ap     1.086018  
      41Ap     1.110031    18App    1.111997    19App    1.121935  
      42Ap     1.127465    43Ap     1.137786    44Ap     1.180907  
      20App    1.183249    21App    1.193914    45Ap     1.313335  
      46Ap     1.337652    22App    1.371975    23App    1.397338  
      47Ap     1.428464    48Ap     1.435385    49Ap     1.471371  
      24App    1.492567    25App    1.504762    50Ap     1.507388  
      26App    1.519590    51Ap     1.527509    27App    1.531749  
      52Ap     1.549400    53Ap     1.608266    54Ap     1.651736  
      28App    1.654915    29App    1.670522    55Ap     1.675780  
      30App    1.700295    56Ap     1.723112    57Ap     1.736733  
      58Ap     1.804918    31App    1.825644    59Ap     1.855123  
      60Ap     1.932252    61Ap     1.933816    32App    1.939323  
      62Ap     2.023678    33App    2.068807    34App    2.132985  
      63Ap     2.160219    35App    2.187930    64Ap     2.194928  
      65Ap     2.302118    66Ap     2.329865    67Ap     2.341811  
      68Ap     2.602845    36App    2.632803    69Ap     2.685298  
      37App    2.695852    70Ap     2.705870    38App    2.773189  
      71Ap     2.837764    39App    2.853490    72Ap     2.908755  
      73Ap     2.925278    40App    2.968310    41App    3.025984  
      74Ap     3.105085    75Ap     3.258779    76Ap     3.347422  
      42App    3.366843    77Ap     3.378326    43App    3.390411  
      78Ap     3.401109    44App    3.426701    79Ap     3.496457  
      80Ap     3.545450    81Ap     3.615001    82Ap     3.617135  
      45App    3.651229    46App    3.690101    83Ap     3.739699  
      47App    3.747885    48App    3.785828    84Ap     3.835726  
      85Ap     4.107670    86Ap     4.121482    49App    4.300660  
      87Ap     4.321849    88Ap     4.429482    50App    4.478526  
      89Ap     4.560528    90Ap     4.622521    51App    5.668284  
      91Ap     6.336953    52App    6.338070    53App    6.363516  
      92Ap     6.384884    93Ap     6.470837    94Ap     6.513944  
      54App    6.613436    95Ap     6.662505    55App    6.790959  
      96Ap     6.796962    97Ap     6.971969    98Ap     7.004893  
      56App    7.030275    57App    7.037836    99Ap     7.238206  
     100Ap     7.348241   101Ap     7.820356   102Ap     7.827296  
      58App    8.190605    59App    8.192215   103Ap     8.206281  
      60App    8.248908   104Ap     8.258345    61App    8.367877  
     105Ap     8.511431   106Ap     8.527784    62App    8.833751  
      63App    8.864520   107Ap     8.901578   108Ap     9.080691  
      64App    9.121200    65App    9.123133   109Ap     9.134030  
     110Ap     9.236316   111Ap     9.302191   112Ap     9.352051  
     113Ap     9.686624   114Ap    10.329579   115Ap    11.293836  
     116Ap    21.494695  

    Final Occupation by Irrep:
             Ap   App 
    DOCC [     7,    2 ]

  @DF-RKS Final Energy:  -399.38531166846803

   => Energetics <=

    Nuclear Repulsion Energy =             12.9656135426783692
    One-Electron Energy =                -576.7721321867662709
    Two-Electron Energy =                 184.5050025643149922
    DFT Exchange-Correlation Energy =     -20.1595283430515764
    Empirical Dispersion Energy =           0.0000000000000000
    VV10 Nonlocal Energy =                  0.0757327543564221
    Total Energy =                       -399.3853116684680913

Computation Completed


Properties will be evaluated at   0.000000,   0.000000,   0.000000 [a0]

Properties computed using the SCF density matrix

  Nuclear Dipole Moment: [e a0]
     X:     0.0039      Y:    -1.6289      Z:     0.0000

  Electronic Dipole Moment: [e a0]
     X:    -0.0030      Y:     1.2452      Z:     0.0000

  Dipole Moment: [e a0]
     X:     0.0009      Y:    -0.3837      Z:     0.0000     Total:     0.3837

  Dipole Moment: [D]
     X:     0.0023      Y:    -0.9752      Z:     0.0000     Total:     0.9752


*** tstop() called on bp1-compute00115.data.bp.acrc.priv at Mon Apr 19 16:00:40 2021
Module time:
	user time   =     106.52 seconds =       1.78 minutes
	system time =       2.71 seconds =       0.05 minutes
	total time  =          5 seconds =       0.08 minutes
Total time:
	user time   =    3618.45 seconds =      60.31 minutes
	system time =     100.86 seconds =       1.68 minutes
	total time  =        163 seconds =       2.72 minutes

         ----------------------------------------------------------
                                   FINDIF
                     R. A. King and Jonathon Misiewicz
         ---------------------------------------------------------

  Computing second-derivative from energies using projected, 
  symmetry-adapted, cartesian coordinates.

  13 energies passed in, including the reference geometry.
    Using 3-point formula.
    Energy without displacement: -399.3853187895
    Check energies below for precision!
    0: -1        :      -399.3853152693
    0: 1         :      -399.3853152734
    1: -1        :      -399.3853168135
    1: 1         :      -399.3853167042
    2: -1        :      -399.3853165048
    2: 1         :      -399.3853166861
    0: 1, 1: 1   :      -399.3853132041
    0: -1, 1: -1 :      -399.3853132569
    0: 1, 2: 1   :      -399.3853132034
    0: -1, 2: -1 :      -399.3853129758
    1: 1, 2: 1   :      -399.3853117964
    1: -1, 2: -1 :      -399.3853116685

-------------------------------------------------------------


  ==> Harmonic Vibrational Analysis <==

  non-mass-weighted Hessian:       Symmetric? True   Hermitian? True   Lin Dep Dim?  6 (0)
  projection of translations (True) and rotations (True) removed 6 degrees of freedom (6)
  total projector:                 Symmetric? True   Hermitian? True   Lin Dep Dim?  6 (6)
  mass-weighted Hessian:           Symmetric? True   Hermitian? True   Lin Dep Dim?  6 (0)
  pre-proj  low-frequency mode:    0.0000i [cm^-1]
  pre-proj  low-frequency mode:    0.0000i [cm^-1]
  pre-proj  low-frequency mode:    0.0000i [cm^-1]
  pre-proj  low-frequency mode:    0.0000i [cm^-1]
  pre-proj  low-frequency mode:    0.0000  [cm^-1]
  pre-proj  low-frequency mode:    0.0000  [cm^-1]
  pre-proj  all modes:['0.0000i' '0.0000i' '0.0000i' '0.0000i' '0.0000' '0.0000' '1211.1040'
 '2727.1392' '2732.1031']
  projected mass-weighted Hessian: Symmetric? True   Hermitian? True   Lin Dep Dim?  6 (6)
  post-proj low-frequency mode:    0.0000i [cm^-1] (TR)
  post-proj low-frequency mode:    0.0000i [cm^-1] (TR)
  post-proj low-frequency mode:    0.0000i [cm^-1] (TR)
  post-proj low-frequency mode:    0.0000  [cm^-1] (TR)
  post-proj low-frequency mode:    0.0000  [cm^-1] (TR)
  post-proj low-frequency mode:    0.0000  [cm^-1] (TR)
  post-proj  all modes:['0.0000i' '0.0000i' '0.0000i' '0.0000' '0.0000' '0.0000' '1211.1040'
 '2727.1392' '2732.1031']

  Vibration                       7                   8                   9           
  Freq [cm^-1]                1211.1040           2727.1392           2732.1031       
  Irrep                           Ap                  Ap                  Ap          
  Reduced mass [u]              1.0394              1.0398              1.0359        
  Force const [mDyne/A]         0.8982              4.5562              4.5557        
  Turning point v=0 [a0]        0.3093              0.2061              0.2063        
  RMS dev v=0 [a0 u^1/2]        0.2229              0.1486              0.1484        
  Char temp [K]               1742.5091           3923.7461           3930.8880       
  ----------------------------------------------------------------------------------
      1   S                0.00 -0.03  0.00   -0.03 -0.00  0.00   -0.00  0.03  0.00   
      2   H                0.49  0.51  0.00    0.47 -0.45 -0.00    0.56 -0.51  0.00   
      3   H               -0.49  0.51  0.00    0.55  0.53 -0.00   -0.48 -0.44  0.00   

  ==> Thermochemistry Components <==

  Entropy, S
    Electronic S            0.000 [cal/(mol K)]        0.000 [J/(mol K)]       0.00000000 [mEh/K] (multiplicity = 1)
    Translational S        36.501 [cal/(mol K)]      152.721 [J/(mol K)]       0.05816835 [mEh/K] (mol. weight = 33.9877 [u], P = 101325.00 [Pa])
    Rotational S           13.949 [cal/(mol K)]       58.365 [J/(mol K)]       0.02222988 [mEh/K] (symmetry no. = 1)
    Vibrational S           0.040 [cal/(mol K)]        0.166 [J/(mol K)]       0.00006311 [mEh/K]
  Total S                  50.490 [cal/(mol K)]      211.251 [J/(mol K)]       0.08046134 [mEh/K]
  Correction S              0.000 [cal/(mol K)]        0.000 [J/(mol K)]       0.00000000 [mEh/K]

  Constant volume heat capacity, Cv
    Electronic Cv           0.000 [cal/(mol K)]        0.000 [J/(mol K)]       0.00000000 [mEh/K]
    Translational Cv        2.981 [cal/(mol K)]       12.472 [J/(mol K)]       0.00475022 [mEh/K]
    Rotational Cv           2.981 [cal/(mol K)]       12.472 [J/(mol K)]       0.00475022 [mEh/K]
    Vibrational Cv          0.199 [cal/(mol K)]        0.833 [J/(mol K)]       0.00031718 [mEh/K]
  Total Cv                  6.161 [cal/(mol K)]       25.776 [J/(mol K)]       0.00981761 [mEh/K]
  Correction Cv             0.000 [cal/(mol K)]        0.000 [J/(mol K)]       0.00000000 [mEh/K]

  Constant pressure heat capacity, Cp
    Electronic Cp           0.000 [cal/(mol K)]        0.000 [J/(mol K)]       0.00000000 [mEh/K]
    Translational Cp        4.968 [cal/(mol K)]       20.786 [J/(mol K)]       0.00791703 [mEh/K]
    Rotational Cp           2.981 [cal/(mol K)]       12.472 [J/(mol K)]       0.00475022 [mEh/K]
    Vibrational Cp          0.199 [cal/(mol K)]        0.833 [J/(mol K)]       0.00031718 [mEh/K]
  Total Cp                  8.148 [cal/(mol K)]       34.091 [J/(mol K)]       0.01298442 [mEh/K]
  Correction Cp             0.000 [cal/(mol K)]        0.000 [J/(mol K)]       0.00000000 [mEh/K]

  ==> Thermochemistry Energy Analysis <==

  Raw electronic energy, E0
  Total E0, Electronic energy at well bottom at 0 [K]                 -399.38531879 [Eh]

  Zero-point energy, ZPE_vib = Sum_i nu_i / 2
    Electronic ZPE          0.000 [kcal/mol]        0.000 [kJ/mol]       0.00000000 [Eh]
    Translational ZPE       0.000 [kcal/mol]        0.000 [kJ/mol]       0.00000000 [Eh]
    Rotational ZPE          0.000 [kcal/mol]        0.000 [kJ/mol]       0.00000000 [Eh]
    Vibrational ZPE         9.536 [kcal/mol]       39.898 [kJ/mol]       0.01519617 [Eh]        3335.173 [cm^-1]
  Correction ZPE            9.536 [kcal/mol]       39.898 [kJ/mol]       0.01519617 [Eh]        3335.173 [cm^-1]
  Total ZPE, Electronic energy at 0 [K]                               -399.37012262 [Eh]

  Thermal Energy, E (includes ZPE)
    Electronic E            0.000 [kcal/mol]        0.000 [kJ/mol]       0.00000000 [Eh]
    Translational E         0.889 [kcal/mol]        3.718 [kJ/mol]       0.00141628 [Eh]
    Rotational E            0.889 [kcal/mol]        3.718 [kJ/mol]       0.00141628 [Eh]
    Vibrational E           9.546 [kcal/mol]       39.940 [kJ/mol]       0.01521224 [Eh]
  Correction E             11.323 [kcal/mol]       47.377 [kJ/mol]       0.01804480 [Eh]
  Total E, Electronic energy at  298.15 [K]                           -399.36727399 [Eh]

  Enthalpy, H_trans = E_trans + k_B * T
    Electronic H            0.000 [kcal/mol]        0.000 [kJ/mol]       0.00000000 [Eh]
    Translational H         1.481 [kcal/mol]        6.197 [kJ/mol]       0.00236046 [Eh]
    Rotational H            0.889 [kcal/mol]        3.718 [kJ/mol]       0.00141628 [Eh]
    Vibrational H           9.546 [kcal/mol]       39.940 [kJ/mol]       0.01521224 [Eh]
  Correction H             11.916 [kcal/mol]       49.856 [kJ/mol]       0.01898898 [Eh]
  Total H, Enthalpy at  298.15 [K]                                    -399.36632981 [Eh]

  Gibbs free energy, G = H - T * S
    Electronic G            0.000 [kcal/mol]        0.000 [kJ/mol]       0.00000000 [Eh]
    Translational G        -9.402 [kcal/mol]      -39.336 [kJ/mol]      -0.01498243 [Eh]
    Rotational G           -3.270 [kcal/mol]      -13.683 [kJ/mol]      -0.00521156 [Eh]
    Vibrational G           9.534 [kcal/mol]       39.890 [kJ/mol]       0.01519342 [Eh]
  Correction G             -3.138 [kcal/mol]      -13.129 [kJ/mol]      -0.00500057 [Eh]
  Total G, Free enthalpy at  298.15 [K]                               -399.39031936 [Eh]

    Psi4 stopped on: Monday, 19 April 2021 04:00PM
    Psi4 wall time for execution: 0:02:43.24

*** Psi4 exiting successfully. Buy a developer a beer!
