
    -----------------------------------------------------------------------
          Psi4: An Open-Source Ab Initio Electronic Structure Package
                               Psi4 1.3.2 release

                         Git: Rev {HEAD} ecbda83 


    R. M. Parrish, L. A. Burns, D. G. A. Smith, A. C. Simmonett,
    A. E. DePrince III, E. G. Hohenstein, U. Bozkaya, A. Yu. Sokolov,
    R. Di Remigio, R. M. Richard, J. F. Gonthier, A. M. James,
    H. R. McAlexander, A. Kumar, M. Saitow, X. Wang, B. P. Pritchard,
    P. Verma, H. F. Schaefer III, K. Patkowski, R. A. King, E. F. Valeev,
    F. A. Evangelista, J. M. Turney, T. D. Crawford, and C. D. Sherrill,
    J. Chem. Theory Comput. 13(7) pp 3185--3197 (2017).
    (doi: 10.1021/acs.jctc.7b00174)


                         Additional Contributions by
    P. Kraus, H. Kruse, M. H. Lechner, M. C. Schieber, R. A. Shaw,
    A. Alenaizan, R. Galvelis, Z. L. Glick, S. Lehtola, and J. P. Misiewicz

    -----------------------------------------------------------------------


    Psi4 started on: Monday, 19 April 2021 03:59PM

    Process ID: 203559
    Host:       bp1-compute00148.data.bp.acrc.priv
    PSIDATADIR: /work/zw18965/.conda/envs/p4env/share/psi4
    Memory:     500.0 MiB
    Threads:    24
    
  ==> Input File <==

--------------------------------------------------------------------------
memory 144 GB

molecule {
0 1
C    -0.026590255247  -0.000020489742   0.000000000000
N     1.117415244719  -0.000587529582   0.000000000000
H    -1.090824989472   0.000608024615   0.000000000000}

set basis aug-cc-pV(Q+d)Z
 
optimize("WB97M-V")
frequencies("WB97M-V")--------------------------------------------------------------------------

  Memory set to 134.110 GiB by Python driver.
gradient() will perform gradient computation by finite difference of analytic energies.

         ----------------------------------------------------------
                                   FINDIF
                     R. A. King and Jonathon Misiewicz
         ---------------------------------------------------------

  Using finite-differences of energies to determine gradients.
    Generating geometries for use with 3-point formula.
    Displacement size will be 5.00e-03.
    Number of atoms is 3.
    Number of symmetric SALCs is 3.
    Translations projected? 1. Rotations projected? 1.
    Number of geometries (including reference) is 7.

  //>>>>>>>>>>>>>>>>>>>>>>>>>>>>>>>>>>>//
  //    Loading displacement 1 of 7    //
  //<<<<<<<<<<<<<<<<<<<<<<<<<<<<<<<<<<<//

*** tstart() called on bp1-compute00148.data.bp.acrc.priv
*** at Mon Apr 19 15:59:39 2021

   => Loading Basis Set <=

    Name: AUG-CC-PV(Q+D)Z
    Role: ORBITAL
    Keyword: BASIS
    atoms 1 entry C          line   319 file /work/zw18965/.conda/envs/p4env/share/psi4/basis/aug-cc-pv_qpd_z.gbs 
    atoms 2 entry N          line   379 file /work/zw18965/.conda/envs/p4env/share/psi4/basis/aug-cc-pv_qpd_z.gbs 
    atoms 3 entry H          line    56 file /work/zw18965/.conda/envs/p4env/share/psi4/basis/aug-cc-pv_qpd_z.gbs 


         ---------------------------------------------------------
                                   SCF
               by Justin Turney, Rob Parrish, Andy Simmonett
                          and Daniel G. A. Smith
                              RKS Reference
                       24 Threads, 137329 MiB Core
         ---------------------------------------------------------

  ==> Geometry <==

    Molecular point group: cs
    Full point group: C1v

    Geometry (in Angstrom), charge = 0, multiplicity = 1:

       Center              X                  Y                   Z               Mass       
    ------------   -----------------  -----------------  -----------------  -----------------
         C           -0.000003769007     0.000000000000    -0.553370439004    12.000000000000
         N           -0.000003769007     0.000000000000     0.590635201492    14.003074004430
         H            0.000097244820     0.000000000000    -1.617605354029     1.007825032230

  Running in cs symmetry.

  Rotational constants: A = 2254335784.34953  B =      1.50559  C =      1.50559 [cm^-1]
  Rotational constants: A = 67583286594750.21875  B =  45136.34393  C =  45136.34390 [MHz]
  Nuclear repulsion =   24.088624561893237

  Charge       = 0
  Multiplicity = 1
  Electrons    = 14
  Nalpha       = 7
  Nbeta        = 7

  ==> Algorithm <==

  SCF Algorithm Type is DF.
  DIIS enabled.
  MOM disabled.
  Fractional occupation disabled.
  Guess Type is SAD.
  Energy threshold   = 1.00e-08
  Density threshold  = 1.00e-08
  Integral threshold = 0.00e+00

  ==> Primary Basis <==

  Basis Set: AUG-CC-PV(Q+D)Z
    Blend: AUG-CC-PV(Q+D)Z
    Number of shells: 54
    Number of basis function: 206
    Number of Cartesian functions: 265
    Spherical Harmonics?: true
    Max angular momentum: 4

  ==> DFT Potential <==

   => Composite Functional: WB97M-V <= 

    wB97M-V Hyb-GGA Exchange-Correlation Functional

    N. Mardirossian and M. Head-Gordon, J. Chem. Phys. 144, 214110 (2016)

    Deriv               =              1
    GGA                 =           TRUE
    Meta                =           TRUE

    Exchange Hybrid     =           TRUE
    MP2 Hybrid          =          FALSE

   => Exchange-Correlation Functionals <=

    1.0000   wB97M-V exchange-correlation functional

   => Exact (HF) Exchange <=

    0.8500            HF,LR [omega = 0.3000]
    0.1500               HF 

   => VV10 Non-Local Parameters <=

    VV10 B              =     6.0000E+00
    VV10 C              =     1.0000E-02

   => Molecular Quadrature <=

    Radial Scheme          =       TREUTLER
    Pruning Scheme         =           FLAT
    Nuclear Scheme         =       TREUTLER

    BS radius alpha        =              1
    Pruning alpha          =              1
    Radial Points          =             75
    Spherical Points       =            302
    Total Points           =          67950
    Total Blocks           =            576
    Max Points             =            256
    Max Functions          =            206

   => Loading Basis Set <=

    Name: (AUG-CC-PV(Q+D)Z AUX)
    Role: JKFIT
    Keyword: DF_BASIS_SCF
    atoms 1 entry C          line   178 file /work/zw18965/.conda/envs/p4env/share/psi4/basis/aug-cc-pvqz-jkfit.gbs 
    atoms 2 entry N          line   248 file /work/zw18965/.conda/envs/p4env/share/psi4/basis/aug-cc-pvqz-jkfit.gbs 
    atoms 3 entry H          line    70 file /work/zw18965/.conda/envs/p4env/share/psi4/basis/aug-cc-pvqz-jkfit.gbs 

  ==> Pre-Iterations <==

   -------------------------------------------------------
    Irrep   Nso     Nmo     Nalpha   Nbeta   Ndocc  Nsocc
   -------------------------------------------------------
     A'       130     130       0       0       0       0
     A"        76      76       0       0       0       0
   -------------------------------------------------------
    Total     206     206       7       7       7       0
   -------------------------------------------------------

  ==> Integral Setup <==

  ==> DiskDFJK: Density-Fitted J/K Matrices <==

    J tasked:                  Yes
    K tasked:                  Yes
    wK tasked:                 Yes
    Omega:               3.000E-01
    OpenMP threads:             24
    Integrals threads:          24
    Memory [MiB]:           102059
    Algorithm:                Core
    Integral Cache:           NONE
    Schwarz Cutoff:          1E-12
    Fitting Condition:       1E-10

   => Auxiliary Basis Set <=

  Basis Set: (AUG-CC-PV(Q+D)Z AUX)
    Blend: AUG-CC-PVQZ-JKFIT
    Number of shells: 86
    Number of basis function: 360
    Number of Cartesian functions: 497
    Spherical Harmonics?: true
    Max angular momentum: 5

  Cached 100.0% of DFT collocation blocks in 0.916 [GiB].

  Minimum eigenvalue in the overlap matrix is 1.7493273233E-05.
  Using Symmetric Orthogonalization.

  SCF Guess: Superposition of Atomic Densities via on-the-fly atomic UHF.

  ==> Iterations <==

                           Total Energy        Delta E     RMS |[F,P]|

   @DF-RKS iter SAD:   -92.60330310212460   -9.26033e+01   0.00000e+00 
   @DF-RKS iter   1:   -93.34263108786044   -7.39328e-01   3.19844e-03 DIIS
   @DF-RKS iter   2:   -93.31465214744493    2.79789e-02   3.59711e-03 DIIS
   @DF-RKS iter   3:   -93.43268409997877   -1.18032e-01   6.32775e-04 DIIS
   @DF-RKS iter   4:   -93.43651237777821   -3.82828e-03   7.20158e-05 DIIS
   @DF-RKS iter   5:   -93.43655907820278   -4.67004e-05   1.03704e-05 DIIS
   @DF-RKS iter   6:   -93.43656040381200   -1.32561e-06   1.98513e-06 DIIS
   @DF-RKS iter   7:   -93.43656047643461   -7.26226e-08   2.77444e-07 DIIS
   @DF-RKS iter   8:   -93.43656047866652   -2.23191e-09   3.05572e-08 DIIS
   @DF-RKS iter   9:   -93.43656047869216   -2.56364e-11   4.00729e-09 DIIS
  Energy and wave function converged.


  ==> Post-Iterations <==

    Orbital Energies [Eh]
    ---------------------

    Doubly Occupied:                                                      

       1Ap   -14.528518     2Ap   -10.395480     3Ap    -1.053972  
       4Ap    -0.720943     5Ap    -0.497732     1App   -0.472331  
       6Ap    -0.472331  

    Virtual:                                                              

       7Ap     0.010277     8Ap     0.043980     2App    0.043980  
       9Ap     0.045287    10Ap     0.087768     3App    0.087768  
      11Ap     0.097942    12Ap     0.099435    13Ap     0.128836  
       4App    0.128836    14Ap     0.161350     5App    0.193824  
      15Ap     0.193825    16Ap     0.203328    17Ap     0.219889  
       6App    0.219889    18Ap     0.282575    19Ap     0.292772  
      20Ap     0.316129     7App    0.316129    21Ap     0.356157  
       8App    0.356158    22Ap     0.387568    23Ap     0.410571  
       9App    0.410571    24Ap     0.425985    10App    0.425985  
      25Ap     0.436719    26Ap     0.544067    27Ap     0.590445  
      11App    0.590445    12App    0.601105    28Ap     0.601106  
      29Ap     0.622906    30Ap     0.685232    31Ap     0.694270  
      13App    0.694270    32Ap     0.712513    33Ap     0.746584  
      14App    0.746584    34Ap     0.746628    15App    0.746631  
      35Ap     0.866793    16App    0.866793    17App    0.869652  
      36Ap     0.869655    37Ap     0.936967    38Ap     0.984676  
      18App    1.048759    39Ap     1.048759    40Ap     1.054712  
      19App    1.054712    41Ap     1.123343    20App    1.123343  
      21App    1.148166    42Ap     1.148168    43Ap     1.205579  
      44Ap     1.269077    22App    1.334470    45Ap     1.334470  
      46Ap     1.369066    47Ap     1.492211    48Ap     1.498844  
      23App    1.498852    49Ap     1.502199    24App    1.502199  
      50Ap     1.556556    51Ap     1.570121    25App    1.617165  
      52Ap     1.617165    26App    1.647248    53Ap     1.647248  
      27App    1.774966    54Ap     1.774969    55Ap     1.928076  
      28App    1.928076    29App    1.978901    56Ap     1.978907  
      57Ap     1.986536    30App    1.986537    58Ap     2.037571  
      59Ap     2.116631    31App    2.116631    32App    2.190688  
      60Ap     2.190691    61Ap     2.225195    33App    2.225195  
      62Ap     2.294197    63Ap     2.350211    34App    2.350211  
      35App    2.408862    64Ap     2.408862    65Ap     2.551416  
      66Ap     2.625440    36App    2.648946    67Ap     2.648951  
      68Ap     2.743516    37App    2.743516    69Ap     2.833408  
      38App    2.833408    70Ap     2.861320    39App    2.926576  
      71Ap     2.926576    40App    3.050082    72Ap     3.050082  
      73Ap     3.079799    74Ap     3.117985    41App    3.117985  
      75Ap     3.168604    76Ap     3.182158    42App    3.182178  
      43App    3.374171    77Ap     3.374176    78Ap     3.551153  
      44App    3.603562    79Ap     3.603562    80Ap     3.652587  
      45App    3.652587    81Ap     3.716788    46App    3.768390  
      82Ap     3.768402    83Ap     3.944232    47App    3.944232  
      84Ap     4.230118    48App    4.342610    85Ap     4.342611  
      86Ap     4.482915    49App    4.482915    87Ap     4.584909  
      50App    4.593360    88Ap     4.593360    89Ap     4.746823  
      90Ap     5.134792    91Ap     5.670631    51App    5.670643  
      52App    5.695657    92Ap     5.695657    53App    5.699829  
      93Ap     5.699847    54App    5.812964    94Ap     5.812964  
      95Ap     6.125319    55App    6.125321    96Ap     6.161362  
      56App    6.161362    97Ap     6.285191    57App    6.285191  
      98Ap     6.302465    58App    6.549865    99Ap     6.549865  
     100Ap     6.661259    59App    6.794627   101Ap     6.794630  
     102Ap     6.980800    60App    6.980800   103Ap     7.459184  
     104Ap     7.800565    61App    7.800565   105Ap     7.887261  
      62App    7.901452   106Ap     7.901464    63App    7.963023  
     107Ap     7.963052    64App    8.011497   108Ap     8.011497  
     109Ap     8.319514    65App    8.319514   110Ap     8.359456  
      66App    8.444392   111Ap     8.444392    67App    8.672791  
     112Ap     8.672816    68App    8.728935   113Ap     8.728935  
      69App    8.884784   114Ap     8.884786   115Ap     8.901043  
      70App    8.941615   116Ap     8.941615   117Ap     9.258432  
      71App    9.258432   118Ap     9.442405    72App    9.585638  
     119Ap     9.585639   120Ap     9.631226    73App    9.947130  
     121Ap     9.947151   122Ap    10.007236    74App   10.007236  
     123Ap    10.469093   124Ap    10.833383    75App   11.138087  
     125Ap    11.138087   126Ap    12.277304   127Ap    12.542459  
      76App   12.542459   128Ap    14.281979   129Ap    25.599349  
     130Ap    33.286804  

    Final Occupation by Irrep:
             Ap   App 
    DOCC [     6,    1 ]

  @DF-RKS Final Energy:   -93.43656047869216

   => Energetics <=

    Nuclear Repulsion Energy =             24.0886245618932371
    One-Electron Energy =                -173.1527917445324078
    Two-Electron Energy =                  64.5423221484593199
    DFT Exchange-Correlation Energy =      -8.9730910011571581
    Empirical Dispersion Energy =           0.0000000000000000
    VV10 Nonlocal Energy =                  0.0583755566448595
    Total Energy =                        -93.4365604786921580

Computation Completed


Properties will be evaluated at   0.000000,   0.000000,   0.000000 [a0]

Properties computed using the SCF density matrix

  Nuclear Dipole Moment: [e a0]
     X:     0.0001      Y:     0.0000      Z:    -1.5182

  Electronic Dipole Moment: [e a0]
     X:    -0.0000      Y:     0.0000      Z:     0.3164

  Dipole Moment: [e a0]
     X:     0.0000      Y:     0.0000      Z:    -1.2018     Total:     1.2018

  Dipole Moment: [D]
     X:     0.0001      Y:     0.0000      Z:    -3.0546     Total:     3.0546


*** tstop() called on bp1-compute00148.data.bp.acrc.priv at Mon Apr 19 15:59:44 2021
Module time:
	user time   =     116.87 seconds =       1.95 minutes
	system time =       6.99 seconds =       0.12 minutes
	total time  =          5 seconds =       0.08 minutes
Total time:
	user time   =     116.87 seconds =       1.95 minutes
	system time =       6.99 seconds =       0.12 minutes
	total time  =          5 seconds =       0.08 minutes

  //>>>>>>>>>>>>>>>>>>>>>>>>>>>>>>>>>>>//
  //    Loading displacement 2 of 7    //
  //<<<<<<<<<<<<<<<<<<<<<<<<<<<<<<<<<<<//

*** tstart() called on bp1-compute00148.data.bp.acrc.priv
*** at Mon Apr 19 15:59:44 2021

   => Loading Basis Set <=

    Name: AUG-CC-PV(Q+D)Z
    Role: ORBITAL
    Keyword: BASIS
    atoms 1 entry C          line   319 file /work/zw18965/.conda/envs/p4env/share/psi4/basis/aug-cc-pv_qpd_z.gbs 
    atoms 2 entry N          line   379 file /work/zw18965/.conda/envs/p4env/share/psi4/basis/aug-cc-pv_qpd_z.gbs 
    atoms 3 entry H          line    56 file /work/zw18965/.conda/envs/p4env/share/psi4/basis/aug-cc-pv_qpd_z.gbs 


         ---------------------------------------------------------
                                   SCF
               by Justin Turney, Rob Parrish, Andy Simmonett
                          and Daniel G. A. Smith
                              RKS Reference
                       24 Threads, 137329 MiB Core
         ---------------------------------------------------------

  ==> Geometry <==

    Molecular point group: cs
    Full point group: Cs

    Geometry (in Angstrom), charge = 0, multiplicity = 1:

       Center              X                  Y                   Z               Mass       
    ------------   -----------------  -----------------  -----------------  -----------------
         C           -0.000368116871     0.000000000000    -0.553370442583    12.000000000000
         N            0.000146706291     0.000000000000     0.590635197913    14.003074004430
         H            0.002344715923     0.000000000000    -1.617605261683     1.007825032230

  Running in cs symmetry.

  Rotational constants: A = 2257981.74676  B =      1.50559  C =      1.50559 [cm^-1]
  Rotational constants: A = 67692589798.02763  B =  45136.34520  C =  45136.31510 [MHz]
  Nuclear repulsion =   24.088612427769984

  Charge       = 0
  Multiplicity = 1
  Electrons    = 14
  Nalpha       = 7
  Nbeta        = 7

  ==> Algorithm <==

  SCF Algorithm Type is DF.
  DIIS enabled.
  MOM disabled.
  Fractional occupation disabled.
  Guess Type is SAD.
  Energy threshold   = 1.00e-08
  Density threshold  = 1.00e-08
  Integral threshold = 0.00e+00

  ==> Primary Basis <==

  Basis Set: AUG-CC-PV(Q+D)Z
    Blend: AUG-CC-PV(Q+D)Z
    Number of shells: 54
    Number of basis function: 206
    Number of Cartesian functions: 265
    Spherical Harmonics?: true
    Max angular momentum: 4

  ==> DFT Potential <==

   => Composite Functional: WB97M-V <= 

    wB97M-V Hyb-GGA Exchange-Correlation Functional

    N. Mardirossian and M. Head-Gordon, J. Chem. Phys. 144, 214110 (2016)

    Deriv               =              1
    GGA                 =           TRUE
    Meta                =           TRUE

    Exchange Hybrid     =           TRUE
    MP2 Hybrid          =          FALSE

   => Exchange-Correlation Functionals <=

    1.0000   wB97M-V exchange-correlation functional

   => Exact (HF) Exchange <=

    0.8500            HF,LR [omega = 0.3000]
    0.1500               HF 

   => VV10 Non-Local Parameters <=

    VV10 B              =     6.0000E+00
    VV10 C              =     1.0000E-02

   => Molecular Quadrature <=

    Radial Scheme          =       TREUTLER
    Pruning Scheme         =           FLAT
    Nuclear Scheme         =       TREUTLER

    BS radius alpha        =              1
    Pruning alpha          =              1
    Radial Points          =             75
    Spherical Points       =            302
    Total Points           =          67950
    Total Blocks           =            574
    Max Points             =            255
    Max Functions          =            206

   => Loading Basis Set <=

    Name: (AUG-CC-PV(Q+D)Z AUX)
    Role: JKFIT
    Keyword: DF_BASIS_SCF
    atoms 1 entry C          line   178 file /work/zw18965/.conda/envs/p4env/share/psi4/basis/aug-cc-pvqz-jkfit.gbs 
    atoms 2 entry N          line   248 file /work/zw18965/.conda/envs/p4env/share/psi4/basis/aug-cc-pvqz-jkfit.gbs 
    atoms 3 entry H          line    70 file /work/zw18965/.conda/envs/p4env/share/psi4/basis/aug-cc-pvqz-jkfit.gbs 

  ==> Pre-Iterations <==

   -------------------------------------------------------
    Irrep   Nso     Nmo     Nalpha   Nbeta   Ndocc  Nsocc
   -------------------------------------------------------
     A'       130     130       0       0       0       0
     A"        76      76       0       0       0       0
   -------------------------------------------------------
    Total     206     206       7       7       7       0
   -------------------------------------------------------

  ==> Integral Setup <==

  ==> DiskDFJK: Density-Fitted J/K Matrices <==

    J tasked:                  Yes
    K tasked:                  Yes
    wK tasked:                 Yes
    Omega:               3.000E-01
    OpenMP threads:             24
    Integrals threads:          24
    Memory [MiB]:           102058
    Algorithm:                Core
    Integral Cache:           NONE
    Schwarz Cutoff:          1E-12
    Fitting Condition:       1E-10

   => Auxiliary Basis Set <=

  Basis Set: (AUG-CC-PV(Q+D)Z AUX)
    Blend: AUG-CC-PVQZ-JKFIT
    Number of shells: 86
    Number of basis function: 360
    Number of Cartesian functions: 497
    Spherical Harmonics?: true
    Max angular momentum: 5

  Cached 100.0% of DFT collocation blocks in 0.916 [GiB].

  Minimum eigenvalue in the overlap matrix is 1.7493679301E-05.
  Using Symmetric Orthogonalization.

  SCF Guess: Superposition of Atomic Densities via on-the-fly atomic UHF.

  ==> Iterations <==

                           Total Energy        Delta E     RMS |[F,P]|

   @DF-RKS iter SAD:   -92.60330251164430   -9.26033e+01   0.00000e+00 
   @DF-RKS iter   1:   -93.34263037314696   -7.39328e-01   3.19845e-03 DIIS
   @DF-RKS iter   2:   -93.31465080288886    2.79796e-02   3.59713e-03 DIIS
   @DF-RKS iter   3:   -93.43268381201469   -1.18033e-01   6.32775e-04 DIIS
   @DF-RKS iter   4:   -93.43651209209506   -3.82828e-03   7.20163e-05 DIIS
   @DF-RKS iter   5:   -93.43655879318926   -4.67011e-05   1.03705e-05 DIIS
   @DF-RKS iter   6:   -93.43656011883046   -1.32564e-06   1.98516e-06 DIIS
   @DF-RKS iter   7:   -93.43656019145570   -7.26252e-08   2.77452e-07 DIIS
   @DF-RKS iter   8:   -93.43656019368730   -2.23160e-09   3.05623e-08 DIIS
   @DF-RKS iter   9:   -93.43656019371343   -2.61338e-11   4.01778e-09 DIIS
  Energy and wave function converged.


  ==> Post-Iterations <==

    Orbital Energies [Eh]
    ---------------------

    Doubly Occupied:                                                      

       1Ap   -14.528518     2Ap   -10.395480     3Ap    -1.053972  
       4Ap    -0.720942     5Ap    -0.497732     1App   -0.472331  
       6Ap    -0.472330  

    Virtual:                                                              

       7Ap     0.010277     8Ap     0.043979     2App    0.043980  
       9Ap     0.045287    10Ap     0.087767     3App    0.087768  
      11Ap     0.097942    12Ap     0.099435    13Ap     0.128836  
       4App    0.128836    14Ap     0.161351     5App    0.193824  
      15Ap     0.193824    16Ap     0.203327    17Ap     0.219890  
       6App    0.219890    18Ap     0.282575    19Ap     0.292773  
      20Ap     0.316129     7App    0.316129    21Ap     0.356157  
       8App    0.356158    22Ap     0.387568    23Ap     0.410568  
       9App    0.410572    24Ap     0.425984    10App    0.425985  
      25Ap     0.436722    26Ap     0.544067    27Ap     0.590443  
      11App    0.590443    12App    0.601107    28Ap     0.601108  
      29Ap     0.622908    30Ap     0.685232    31Ap     0.694270  
      13App    0.694270    32Ap     0.712514    33Ap     0.746519  
      14App    0.746520    34Ap     0.746693    15App    0.746695  
      35Ap     0.866782    16App    0.866785    17App    0.869659  
      36Ap     0.869662    37Ap     0.936967    38Ap     0.984673  
      18App    1.048758    39Ap     1.048759    40Ap     1.054713  
      19App    1.054713    41Ap     1.123342    20App    1.123343  
      21App    1.148167    42Ap     1.148168    43Ap     1.205580  
      44Ap     1.269079    22App    1.334471    45Ap     1.334472  
      46Ap     1.369064    47Ap     1.492214    48Ap     1.498829  
      23App    1.498837    49Ap     1.502199    24App    1.502205  
      50Ap     1.556558    51Ap     1.570126    52Ap     1.617172  
      25App    1.617172    26App    1.647248    53Ap     1.647251  
      27App    1.774964    54Ap     1.774967    55Ap     1.928074  
      28App    1.928080    29App    1.978900    56Ap     1.978906  
      57Ap     1.986539    30App    1.986539    58Ap     2.037572  
      59Ap     2.116630    31App    2.116630    32App    2.190657  
      60Ap     2.190661    61Ap     2.225210    33App    2.225222  
      62Ap     2.294205    63Ap     2.350211    34App    2.350213  
      35App    2.408856    64Ap     2.408856    65Ap     2.551415  
      66Ap     2.625439    36App    2.648945    67Ap     2.648950  
      68Ap     2.743510    37App    2.743513    69Ap     2.833410  
      38App    2.833410    70Ap     2.861329    39App    2.926575  
      71Ap     2.926575    40App    3.050082    72Ap     3.050082  
      73Ap     3.079796    74Ap     3.117977    41App    3.117984  
      75Ap     3.168622    76Ap     3.182158    42App    3.182177  
      43App    3.374165    77Ap     3.374170    78Ap     3.551155  
      44App    3.603552    79Ap     3.603552    80Ap     3.652587  
      45App    3.652589    81Ap     3.716788    46App    3.768391  
      82Ap     3.768404    83Ap     3.944225    47App    3.944234  
      84Ap     4.230112    48App    4.342605    85Ap     4.342606  
      86Ap     4.482886    49App    4.482915    87Ap     4.584742  
      50App    4.593354    88Ap     4.593520    89Ap     4.746852  
      90Ap     5.134787    91Ap     5.670629    51App    5.670640  
      52App    5.695578    92Ap     5.695578    53App    5.699912  
      93Ap     5.699929    54App    5.812962    94Ap     5.812966  
      95Ap     6.125315    55App    6.125317    96Ap     6.161364  
      56App    6.161364    97Ap     6.285185    57App    6.285186  
      98Ap     6.302460    58App    6.549856    99Ap     6.549856  
     100Ap     6.661254    59App    6.794625   101Ap     6.794628  
     102Ap     6.980799    60App    6.980805   103Ap     7.459167  
     104Ap     7.800564    61App    7.800566   105Ap     7.887238  
      62App    7.901427   106Ap     7.901439    63App    7.963023  
     107Ap     7.963052    64App    8.011495   108Ap     8.011525  
     109Ap     8.319512    65App    8.319512   110Ap     8.359447  
      66App    8.444391   111Ap     8.444395    67App    8.672769  
     112Ap     8.672793    68App    8.728960   113Ap     8.728961  
      69App    8.884757   114Ap     8.884759   115Ap     8.901048  
      70App    8.941634   116Ap     8.941634   117Ap     9.258399  
      71App    9.258426   118Ap     9.442416    72App    9.585637  
     119Ap     9.585637   120Ap     9.631218    73App    9.947055  
     121Ap     9.947075   122Ap    10.007290    74App   10.007291  
     123Ap    10.469107   124Ap    10.833337    75App   11.138072  
     125Ap    11.138132   126Ap    12.277287   127Ap    12.542378  
      76App   12.542403   128Ap    14.281915   129Ap    25.599339  
     130Ap    33.286791  

    Final Occupation by Irrep:
             Ap   App 
    DOCC [     6,    1 ]

  @DF-RKS Final Energy:   -93.43656019371343

   => Energetics <=

    Nuclear Repulsion Energy =             24.0886124277699842
    One-Electron Energy =                -173.1527694939807702
    Two-Electron Energy =                  64.5423112117747735
    DFT Exchange-Correlation Energy =      -8.9730898934476109
    Empirical Dispersion Energy =           0.0000000000000000
    VV10 Nonlocal Energy =                  0.0583755541701888
    Total Energy =                        -93.4365601937134329

Computation Completed


Properties will be evaluated at   0.000000,   0.000000,   0.000000 [a0]

Properties computed using the SCF density matrix

  Nuclear Dipole Moment: [e a0]
     X:     0.0022      Y:     0.0000      Z:    -1.5182

  Electronic Dipole Moment: [e a0]
     X:    -0.0012      Y:     0.0000      Z:     0.3164

  Dipole Moment: [e a0]
     X:     0.0010      Y:     0.0000      Z:    -1.2018     Total:     1.2018

  Dipole Moment: [D]
     X:     0.0026      Y:     0.0000      Z:    -3.0545     Total:     3.0545


*** tstop() called on bp1-compute00148.data.bp.acrc.priv at Mon Apr 19 15:59:49 2021
Module time:
	user time   =     114.56 seconds =       1.91 minutes
	system time =       4.16 seconds =       0.07 minutes
	total time  =          5 seconds =       0.08 minutes
Total time:
	user time   =     231.61 seconds =       3.86 minutes
	system time =      11.15 seconds =       0.19 minutes
	total time  =         10 seconds =       0.17 minutes

  //>>>>>>>>>>>>>>>>>>>>>>>>>>>>>>>>>>>//
  //    Loading displacement 3 of 7    //
  //<<<<<<<<<<<<<<<<<<<<<<<<<<<<<<<<<<<//

*** tstart() called on bp1-compute00148.data.bp.acrc.priv
*** at Mon Apr 19 15:59:49 2021

   => Loading Basis Set <=

    Name: AUG-CC-PV(Q+D)Z
    Role: ORBITAL
    Keyword: BASIS
    atoms 1 entry C          line   319 file /work/zw18965/.conda/envs/p4env/share/psi4/basis/aug-cc-pv_qpd_z.gbs 
    atoms 2 entry N          line   379 file /work/zw18965/.conda/envs/p4env/share/psi4/basis/aug-cc-pv_qpd_z.gbs 
    atoms 3 entry H          line    56 file /work/zw18965/.conda/envs/p4env/share/psi4/basis/aug-cc-pv_qpd_z.gbs 


         ---------------------------------------------------------
                                   SCF
               by Justin Turney, Rob Parrish, Andy Simmonett
                          and Daniel G. A. Smith
                              RKS Reference
                       24 Threads, 137329 MiB Core
         ---------------------------------------------------------

  ==> Geometry <==

    Molecular point group: cs
    Full point group: Cs

    Geometry (in Angstrom), charge = 0, multiplicity = 1:

       Center              X                  Y                   Z               Mass       
    ------------   -----------------  -----------------  -----------------  -----------------
         C            0.000360578858     0.000000000000    -0.553370435425    12.000000000000
         N           -0.000154244305     0.000000000000     0.590635205071    14.003074004430
         H           -0.002150226283     0.000000000000    -1.617605446375     1.007825032230

  Running in cs symmetry.

  Rotational constants: A = 2573453.37617  B =      1.50559  C =      1.50559 [cm^-1]
  Rotational constants: A = 77150191319.16998  B =  45136.34267  C =  45136.31627 [MHz]
  Nuclear repulsion =   24.088613279871939

  Charge       = 0
  Multiplicity = 1
  Electrons    = 14
  Nalpha       = 7
  Nbeta        = 7

  ==> Algorithm <==

  SCF Algorithm Type is DF.
  DIIS enabled.
  MOM disabled.
  Fractional occupation disabled.
  Guess Type is SAD.
  Energy threshold   = 1.00e-08
  Density threshold  = 1.00e-08
  Integral threshold = 0.00e+00

  ==> Primary Basis <==

  Basis Set: AUG-CC-PV(Q+D)Z
    Blend: AUG-CC-PV(Q+D)Z
    Number of shells: 54
    Number of basis function: 206
    Number of Cartesian functions: 265
    Spherical Harmonics?: true
    Max angular momentum: 4

  ==> DFT Potential <==

   => Composite Functional: WB97M-V <= 

    wB97M-V Hyb-GGA Exchange-Correlation Functional

    N. Mardirossian and M. Head-Gordon, J. Chem. Phys. 144, 214110 (2016)

    Deriv               =              1
    GGA                 =           TRUE
    Meta                =           TRUE

    Exchange Hybrid     =           TRUE
    MP2 Hybrid          =          FALSE

   => Exchange-Correlation Functionals <=

    1.0000   wB97M-V exchange-correlation functional

   => Exact (HF) Exchange <=

    0.8500            HF,LR [omega = 0.3000]
    0.1500               HF 

   => VV10 Non-Local Parameters <=

    VV10 B              =     6.0000E+00
    VV10 C              =     1.0000E-02

   => Molecular Quadrature <=

    Radial Scheme          =       TREUTLER
    Pruning Scheme         =           FLAT
    Nuclear Scheme         =       TREUTLER

    BS radius alpha        =              1
    Pruning alpha          =              1
    Radial Points          =             75
    Spherical Points       =            302
    Total Points           =          67950
    Total Blocks           =            572
    Max Points             =            256
    Max Functions          =            206

   => Loading Basis Set <=

    Name: (AUG-CC-PV(Q+D)Z AUX)
    Role: JKFIT
    Keyword: DF_BASIS_SCF
    atoms 1 entry C          line   178 file /work/zw18965/.conda/envs/p4env/share/psi4/basis/aug-cc-pvqz-jkfit.gbs 
    atoms 2 entry N          line   248 file /work/zw18965/.conda/envs/p4env/share/psi4/basis/aug-cc-pvqz-jkfit.gbs 
    atoms 3 entry H          line    70 file /work/zw18965/.conda/envs/p4env/share/psi4/basis/aug-cc-pvqz-jkfit.gbs 

  ==> Pre-Iterations <==

   -------------------------------------------------------
    Irrep   Nso     Nmo     Nalpha   Nbeta   Ndocc  Nsocc
   -------------------------------------------------------
     A'       130     130       0       0       0       0
     A"        76      76       0       0       0       0
   -------------------------------------------------------
    Total     206     206       7       7       7       0
   -------------------------------------------------------

  ==> Integral Setup <==

  ==> DiskDFJK: Density-Fitted J/K Matrices <==

    J tasked:                  Yes
    K tasked:                  Yes
    wK tasked:                 Yes
    Omega:               3.000E-01
    OpenMP threads:             24
    Integrals threads:          24
    Memory [MiB]:           102058
    Algorithm:                Core
    Integral Cache:           NONE
    Schwarz Cutoff:          1E-12
    Fitting Condition:       1E-10

   => Auxiliary Basis Set <=

  Basis Set: (AUG-CC-PV(Q+D)Z AUX)
    Blend: AUG-CC-PVQZ-JKFIT
    Number of shells: 86
    Number of basis function: 360
    Number of Cartesian functions: 497
    Spherical Harmonics?: true
    Max angular momentum: 5

  Cached 100.0% of DFT collocation blocks in 0.917 [GiB].

  Minimum eigenvalue in the overlap matrix is 1.7493637161E-05.
  Using Symmetric Orthogonalization.

  SCF Guess: Superposition of Atomic Densities via on-the-fly atomic UHF.

  ==> Iterations <==

                           Total Energy        Delta E     RMS |[F,P]|

   @DF-RKS iter SAD:   -92.60330254384667   -9.26033e+01   0.00000e+00 
   @DF-RKS iter   1:   -93.34263044968218   -7.39328e-01   3.19845e-03 DIIS
   @DF-RKS iter   2:   -93.31465093384280    2.79795e-02   3.59713e-03 DIIS
   @DF-RKS iter   3:   -93.43268384589840   -1.18033e-01   6.32775e-04 DIIS
   @DF-RKS iter   4:   -93.43651212536373   -3.82828e-03   7.20162e-05 DIIS
   @DF-RKS iter   5:   -93.43655882638387   -4.67010e-05   1.03705e-05 DIIS
   @DF-RKS iter   6:   -93.43656015202149   -1.32564e-06   1.98515e-06 DIIS
   @DF-RKS iter   7:   -93.43656022464667   -7.26252e-08   2.77451e-07 DIIS
   @DF-RKS iter   8:   -93.43656022687811   -2.23145e-09   3.05617e-08 DIIS
   @DF-RKS iter   9:   -93.43656022690401   -2.58922e-11   4.01650e-09 DIIS
  Energy and wave function converged.


  ==> Post-Iterations <==

    Orbital Energies [Eh]
    ---------------------

    Doubly Occupied:                                                      

       1Ap   -14.528518     2Ap   -10.395480     3Ap    -1.053972  
       4Ap    -0.720942     5Ap    -0.497732     1App   -0.472331  
       6Ap    -0.472330  

    Virtual:                                                              

       7Ap     0.010277     8Ap     0.043979     2App    0.043980  
       9Ap     0.045287    10Ap     0.087767     3App    0.087768  
      11Ap     0.097942    12Ap     0.099435    13Ap     0.128836  
       4App    0.128836    14Ap     0.161351     5App    0.193824  
      15Ap     0.193825    16Ap     0.203327    17Ap     0.219890  
       6App    0.219890    18Ap     0.282575    19Ap     0.292773  
      20Ap     0.316129     7App    0.316129    21Ap     0.356157  
       8App    0.356158    22Ap     0.387568    23Ap     0.410569  
       9App    0.410572    24Ap     0.425984    10App    0.425985  
      25Ap     0.436722    26Ap     0.544067    27Ap     0.590443  
      11App    0.590443    12App    0.601107    28Ap     0.601108  
      29Ap     0.622908    30Ap     0.685232    31Ap     0.694270  
      13App    0.694270    32Ap     0.712514    33Ap     0.746524  
      14App    0.746526    34Ap     0.746688    15App    0.746690  
      35Ap     0.866783    16App    0.866786    17App    0.869658  
      36Ap     0.869661    37Ap     0.936967    38Ap     0.984674  
      18App    1.048758    39Ap     1.048759    40Ap     1.054713  
      19App    1.054713    41Ap     1.123342    20App    1.123343  
      21App    1.148167    42Ap     1.148168    43Ap     1.205580  
      44Ap     1.269079    22App    1.334471    45Ap     1.334472  
      46Ap     1.369065    47Ap     1.492214    48Ap     1.498831  
      23App    1.498839    49Ap     1.502199    24App    1.502204  
      50Ap     1.556558    51Ap     1.570125    52Ap     1.617171  
      25App    1.617171    26App    1.647248    53Ap     1.647251  
      27App    1.774964    54Ap     1.774967    55Ap     1.928074  
      28App    1.928079    29App    1.978901    56Ap     1.978906  
      57Ap     1.986539    30App    1.986539    58Ap     2.037572  
      59Ap     2.116630    31App    2.116630    32App    2.190661  
      60Ap     2.190664    61Ap     2.225208    33App    2.225219  
      62Ap     2.294204    63Ap     2.350211    34App    2.350213  
      35App    2.408857    64Ap     2.408857    65Ap     2.551415  
      66Ap     2.625439    36App    2.648945    67Ap     2.648950  
      68Ap     2.743511    37App    2.743513    69Ap     2.833410  
      38App    2.833410    70Ap     2.861328    39App    2.926575  
      71Ap     2.926576    40App    3.050082    72Ap     3.050082  
      73Ap     3.079796    74Ap     3.117978    41App    3.117984  
      75Ap     3.168620    76Ap     3.182158    42App    3.182177  
      43App    3.374166    77Ap     3.374171    78Ap     3.551155  
      44App    3.603553    79Ap     3.603553    80Ap     3.652587  
      45App    3.652589    81Ap     3.716788    46App    3.768391  
      82Ap     3.768403    83Ap     3.944226    47App    3.944233  
      84Ap     4.230113    48App    4.342606    85Ap     4.342606  
      86Ap     4.482889    49App    4.482915    87Ap     4.584762  
      50App    4.593355    88Ap     4.593500    89Ap     4.746848  
      90Ap     5.134787    91Ap     5.670629    51App    5.670641  
      52App    5.695587    92Ap     5.695588    53App    5.699902  
      93Ap     5.699919    54App    5.812962    94Ap     5.812966  
      95Ap     6.125315    55App    6.125318    96Ap     6.161364  
      56App    6.161364    97Ap     6.285185    57App    6.285186  
      98Ap     6.302461    58App    6.549857    99Ap     6.549857  
     100Ap     6.661255    59App    6.794625   101Ap     6.794628  
     102Ap     6.980799    60App    6.980804   103Ap     7.459168  
     104Ap     7.800564    61App    7.800566   105Ap     7.887241  
      62App    7.901430   106Ap     7.901441    63App    7.963023  
     107Ap     7.963052    64App    8.011495   108Ap     8.011521  
     109Ap     8.319513    65App    8.319513   110Ap     8.359449  
      66App    8.444391   111Ap     8.444394    67App    8.672771  
     112Ap     8.672796    68App    8.728957   113Ap     8.728958  
      69App    8.884760   114Ap     8.884762   115Ap     8.901047  
      70App    8.941632   116Ap     8.941632   117Ap     9.258402  
      71App    9.258427   118Ap     9.442415    72App    9.585637  
     119Ap     9.585637   120Ap     9.631218    73App    9.947064  
     121Ap     9.947084   122Ap    10.007283    74App   10.007284  
     123Ap    10.469105   124Ap    10.833343    75App   11.138073  
     125Ap    11.138126   126Ap    12.277289   127Ap    12.542387  
      76App   12.542409   128Ap    14.281922   129Ap    25.599340  
     130Ap    33.286792  

    Final Occupation by Irrep:
             Ap   App 
    DOCC [     6,    1 ]

  @DF-RKS Final Energy:   -93.43656022690401

   => Energetics <=

    Nuclear Repulsion Energy =             24.0886132798719395
    One-Electron Energy =                -173.1527710432867195
    Two-Electron Energy =                  64.5423119667522229
    DFT Exchange-Correlation Energy =      -8.9730899846557541
    Empirical Dispersion Energy =           0.0000000000000000
    VV10 Nonlocal Energy =                  0.0583755544143202
    Total Energy =                        -93.4365602269039925

Computation Completed


Properties will be evaluated at   0.000000,   0.000000,   0.000000 [a0]

Properties computed using the SCF density matrix

  Nuclear Dipole Moment: [e a0]
     X:    -0.0020      Y:     0.0000      Z:    -1.5182

  Electronic Dipole Moment: [e a0]
     X:     0.0011      Y:     0.0000      Z:     0.3164

  Dipole Moment: [e a0]
     X:    -0.0009      Y:     0.0000      Z:    -1.2018     Total:     1.2018

  Dipole Moment: [D]
     X:    -0.0023      Y:     0.0000      Z:    -3.0545     Total:     3.0545


*** tstop() called on bp1-compute00148.data.bp.acrc.priv at Mon Apr 19 15:59:54 2021
Module time:
	user time   =     105.01 seconds =       1.75 minutes
	system time =       2.77 seconds =       0.05 minutes
	total time  =          5 seconds =       0.08 minutes
Total time:
	user time   =     336.78 seconds =       5.61 minutes
	system time =      13.93 seconds =       0.23 minutes
	total time  =         15 seconds =       0.25 minutes

  //>>>>>>>>>>>>>>>>>>>>>>>>>>>>>>>>>>>//
  //    Loading displacement 4 of 7    //
  //<<<<<<<<<<<<<<<<<<<<<<<<<<<<<<<<<<<//

*** tstart() called on bp1-compute00148.data.bp.acrc.priv
*** at Mon Apr 19 15:59:54 2021

   => Loading Basis Set <=

    Name: AUG-CC-PV(Q+D)Z
    Role: ORBITAL
    Keyword: BASIS
    atoms 1 entry C          line   319 file /work/zw18965/.conda/envs/p4env/share/psi4/basis/aug-cc-pv_qpd_z.gbs 
    atoms 2 entry N          line   379 file /work/zw18965/.conda/envs/p4env/share/psi4/basis/aug-cc-pv_qpd_z.gbs 
    atoms 3 entry H          line    56 file /work/zw18965/.conda/envs/p4env/share/psi4/basis/aug-cc-pv_qpd_z.gbs 


         ---------------------------------------------------------
                                   SCF
               by Justin Turney, Rob Parrish, Andy Simmonett
                          and Daniel G. A. Smith
                              RKS Reference
                       24 Threads, 137329 MiB Core
         ---------------------------------------------------------

  ==> Geometry <==

    Molecular point group: cs
    Full point group: C1

    Geometry (in Angstrom), charge = 0, multiplicity = 1:

       Center              X                  Y                   Z               Mass       
    ------------   -----------------  -----------------  -----------------  -----------------
         C           -0.000003769007     0.000000000000    -0.553939834918    12.000000000000
         N           -0.000003767508     0.000000000000     0.591090387484    14.003074004430
         H            0.000097223998     0.000000000000    -1.617150168038     1.007825032230

  Running in cs symmetry.

  Rotational constants: A = 2253906410.42844  B =      1.50376  C =      1.50376 [cm^-1]
  Rotational constants: A = 67570414288429.75000  B =  45081.52822  C =  45081.52819 [MHz]
  Nuclear repulsion =   24.074115500692521

  Charge       = 0
  Multiplicity = 1
  Electrons    = 14
  Nalpha       = 7
  Nbeta        = 7

  ==> Algorithm <==

  SCF Algorithm Type is DF.
  DIIS enabled.
  MOM disabled.
  Fractional occupation disabled.
  Guess Type is SAD.
  Energy threshold   = 1.00e-08
  Density threshold  = 1.00e-08
  Integral threshold = 0.00e+00

  ==> Primary Basis <==

  Basis Set: AUG-CC-PV(Q+D)Z
    Blend: AUG-CC-PV(Q+D)Z
    Number of shells: 54
    Number of basis function: 206
    Number of Cartesian functions: 265
    Spherical Harmonics?: true
    Max angular momentum: 4

  ==> DFT Potential <==

   => Composite Functional: WB97M-V <= 

    wB97M-V Hyb-GGA Exchange-Correlation Functional

    N. Mardirossian and M. Head-Gordon, J. Chem. Phys. 144, 214110 (2016)

    Deriv               =              1
    GGA                 =           TRUE
    Meta                =           TRUE

    Exchange Hybrid     =           TRUE
    MP2 Hybrid          =          FALSE

   => Exchange-Correlation Functionals <=

    1.0000   wB97M-V exchange-correlation functional

   => Exact (HF) Exchange <=

    0.8500            HF,LR [omega = 0.3000]
    0.1500               HF 

   => VV10 Non-Local Parameters <=

    VV10 B              =     6.0000E+00
    VV10 C              =     1.0000E-02

   => Molecular Quadrature <=

    Radial Scheme          =       TREUTLER
    Pruning Scheme         =           FLAT
    Nuclear Scheme         =       TREUTLER

    BS radius alpha        =              1
    Pruning alpha          =              1
    Radial Points          =             75
    Spherical Points       =            302
    Total Points           =          67950
    Total Blocks           =            576
    Max Points             =            256
    Max Functions          =            206

   => Loading Basis Set <=

    Name: (AUG-CC-PV(Q+D)Z AUX)
    Role: JKFIT
    Keyword: DF_BASIS_SCF
    atoms 1 entry C          line   178 file /work/zw18965/.conda/envs/p4env/share/psi4/basis/aug-cc-pvqz-jkfit.gbs 
    atoms 2 entry N          line   248 file /work/zw18965/.conda/envs/p4env/share/psi4/basis/aug-cc-pvqz-jkfit.gbs 
    atoms 3 entry H          line    70 file /work/zw18965/.conda/envs/p4env/share/psi4/basis/aug-cc-pvqz-jkfit.gbs 

  ==> Pre-Iterations <==

   -------------------------------------------------------
    Irrep   Nso     Nmo     Nalpha   Nbeta   Ndocc  Nsocc
   -------------------------------------------------------
     A'       130     130       0       0       0       0
     A"        76      76       0       0       0       0
   -------------------------------------------------------
    Total     206     206       7       7       7       0
   -------------------------------------------------------

  ==> Integral Setup <==

  ==> DiskDFJK: Density-Fitted J/K Matrices <==

    J tasked:                  Yes
    K tasked:                  Yes
    wK tasked:                 Yes
    Omega:               3.000E-01
    OpenMP threads:             24
    Integrals threads:          24
    Memory [MiB]:           102059
    Algorithm:                Core
    Integral Cache:           NONE
    Schwarz Cutoff:          1E-12
    Fitting Condition:       1E-10

   => Auxiliary Basis Set <=

  Basis Set: (AUG-CC-PV(Q+D)Z AUX)
    Blend: AUG-CC-PVQZ-JKFIT
    Number of shells: 86
    Number of basis function: 360
    Number of Cartesian functions: 497
    Spherical Harmonics?: true
    Max angular momentum: 5

  Cached 100.0% of DFT collocation blocks in 0.916 [GiB].

  Minimum eigenvalue in the overlap matrix is 1.7446226081E-05.
  Using Symmetric Orthogonalization.

  SCF Guess: Superposition of Atomic Densities via on-the-fly atomic UHF.

  ==> Iterations <==

                           Total Energy        Delta E     RMS |[F,P]|

   @DF-RKS iter SAD:   -92.60210437312350   -9.26021e+01   0.00000e+00 
   @DF-RKS iter   1:   -93.34297626922077   -7.40872e-01   3.19144e-03 DIIS
   @DF-RKS iter   2:   -93.31474093136849    2.82353e-02   3.59516e-03 DIIS
   @DF-RKS iter   3:   -93.43267924056812   -1.17938e-01   6.32435e-04 DIIS
   @DF-RKS iter   4:   -93.43650536172881   -3.82612e-03   7.19088e-05 DIIS
   @DF-RKS iter   5:   -93.43655193604403   -4.65743e-05   1.03848e-05 DIIS
   @DF-RKS iter   6:   -93.43655326359429   -1.32755e-06   1.99215e-06 DIIS
   @DF-RKS iter   7:   -93.43655333653703   -7.29427e-08   2.78003e-07 DIIS
   @DF-RKS iter   8:   -93.43655333877194   -2.23491e-09   3.05742e-08 DIIS
   @DF-RKS iter   9:   -93.43655333879808   -2.61338e-11   3.99545e-09 DIIS
  Energy and wave function converged.


  ==> Post-Iterations <==

    Orbital Energies [Eh]
    ---------------------

    Doubly Occupied:                                                      

       1Ap   -14.528853     2Ap   -10.395730     3Ap    -1.053617  
       4Ap    -0.721362     5Ap    -0.497837     1App   -0.472107  
       6Ap    -0.472107  

    Virtual:                                                              

       7Ap     0.010278     8Ap     0.043948     2App    0.043948  
       9Ap     0.045288    10Ap     0.087600     3App    0.087600  
      11Ap     0.097941    12Ap     0.099450    13Ap     0.128700  
       4App    0.128700    14Ap     0.161415     5App    0.193832  
      15Ap     0.193833    16Ap     0.203334    17Ap     0.219855  
       6App    0.219855    18Ap     0.282735    19Ap     0.292733  
      20Ap     0.316075     7App    0.316075    21Ap     0.356151  
       8App    0.356152    22Ap     0.387464    23Ap     0.410635  
       9App    0.410635    24Ap     0.425960    10App    0.425960  
      25Ap     0.436698    26Ap     0.544109    27Ap     0.590429  
      11App    0.590429    12App    0.601039    28Ap     0.601040  
      29Ap     0.623044    30Ap     0.685242    31Ap     0.694244  
      13App    0.694244    32Ap     0.712282    33Ap     0.746551  
      14App    0.746551    34Ap     0.746645    15App    0.746648  
      35Ap     0.866770    16App    0.866770    17App    0.869682  
      36Ap     0.869685    37Ap     0.936471    38Ap     0.984794  
      18App    1.048902    39Ap     1.048902    40Ap     1.054637  
      19App    1.054637    41Ap     1.123131    20App    1.123131  
      21App    1.148062    42Ap     1.148064    43Ap     1.205276  
      44Ap     1.269170    22App    1.334374    45Ap     1.334374  
      46Ap     1.368770    47Ap     1.492090    48Ap     1.498836  
      23App    1.498844    49Ap     1.501752    24App    1.501752  
      50Ap     1.556608    51Ap     1.570022    52Ap     1.617272  
      25App    1.617272    26App    1.647255    53Ap     1.647255  
      27App    1.774730    54Ap     1.774733    55Ap     1.928175  
      28App    1.928175    29App    1.978958    56Ap     1.978964  
      57Ap     1.986487    30App    1.986487    58Ap     2.038199  
      59Ap     2.116552    31App    2.116552    32App    2.190928  
      60Ap     2.190931    61Ap     2.225704    33App    2.225704  
      62Ap     2.294063    63Ap     2.350032    34App    2.350032  
      35App    2.409070    64Ap     2.409070    65Ap     2.551481  
      66Ap     2.625326    36App    2.648789    67Ap     2.648794  
      68Ap     2.742545    37App    2.742545    69Ap     2.833091  
      38App    2.833091    70Ap     2.861102    71Ap     2.926481  
      39App    2.926481    72Ap     3.049996    40App    3.049996  
      73Ap     3.079387    74Ap     3.118047    41App    3.118047  
      75Ap     3.168832    76Ap     3.181985    42App    3.182005  
      43App    3.374772    77Ap     3.374777    78Ap     3.550352  
      79Ap     3.602432    44App    3.602432    80Ap     3.652255  
      45App    3.652255    81Ap     3.717397    46App    3.767944  
      82Ap     3.767957    83Ap     3.944522    47App    3.944522  
      84Ap     4.230862    48App    4.341845    85Ap     4.341845  
      86Ap     4.482879    49App    4.482879    87Ap     4.585915  
      50App    4.593223    88Ap     4.593223    89Ap     4.746078  
      90Ap     5.132307    91Ap     5.670581    51App    5.670593  
      52App    5.695202    92Ap     5.695202    53App    5.700617  
      93Ap     5.700634    54App    5.812953    94Ap     5.812953  
      95Ap     6.124406    55App    6.124409    96Ap     6.161248  
      56App    6.161248    97Ap     6.285293    57App    6.285293  
      98Ap     6.302739    58App    6.551044    99Ap     6.551044  
     100Ap     6.660355    59App    6.793676   101Ap     6.793679  
     102Ap     6.980422    60App    6.980422   103Ap     7.460431  
     104Ap     7.798590    61App    7.798590   105Ap     7.888724  
      62App    7.903258   106Ap     7.903270    63App    7.962766  
     107Ap     7.962795    64App    8.012743   108Ap     8.012743  
     109Ap     8.318451    65App    8.318451   110Ap     8.360471  
      66App    8.443945   111Ap     8.443945    67App    8.673277  
     112Ap     8.673301    68App    8.728541   113Ap     8.728541  
      69App    8.886186   114Ap     8.886188   115Ap     8.900277  
      70App    8.940749   116Ap     8.940749   117Ap     9.259117  
      71App    9.259117   118Ap     9.442873    72App    9.583791  
     119Ap     9.583792   120Ap     9.631802    73App    9.944791  
     121Ap     9.944811   122Ap    10.007243    74App   10.007243  
     123Ap    10.468375   124Ap    10.830039    75App   11.137645  
     125Ap    11.137645   126Ap    12.275007   127Ap    12.541769  
      76App   12.541769   128Ap    14.285867   129Ap    25.597463  
     130Ap    33.275832  

    Final Occupation by Irrep:
             Ap   App 
    DOCC [     6,    1 ]

  @DF-RKS Final Energy:   -93.43655333879808

   => Energetics <=

    Nuclear Repulsion Energy =             24.0741155006925212
    One-Electron Energy =                -173.1234962976008092
    Two-Electron Energy =                  64.5269239354533539
    DFT Exchange-Correlation Energy =      -8.9724720171872612
    Empirical Dispersion Energy =           0.0000000000000000
    VV10 Nonlocal Energy =                  0.0583755398441033
    Total Energy =                        -93.4365533387980776

Computation Completed


Properties will be evaluated at   0.000000,   0.000000,   0.000000 [a0]

Properties computed using the SCF density matrix

  Nuclear Dipole Moment: [e a0]
     X:     0.0001      Y:     0.0000      Z:    -1.5177

  Electronic Dipole Moment: [e a0]
     X:    -0.0000      Y:     0.0000      Z:     0.3165

  Dipole Moment: [e a0]
     X:     0.0000      Y:     0.0000      Z:    -1.2013     Total:     1.2013

  Dipole Moment: [D]
     X:     0.0001      Y:     0.0000      Z:    -3.0533     Total:     3.0533


*** tstop() called on bp1-compute00148.data.bp.acrc.priv at Mon Apr 19 15:59:59 2021
Module time:
	user time   =     106.68 seconds =       1.78 minutes
	system time =       2.99 seconds =       0.05 minutes
	total time  =          5 seconds =       0.08 minutes
Total time:
	user time   =     443.60 seconds =       7.39 minutes
	system time =      16.92 seconds =       0.28 minutes
	total time  =         20 seconds =       0.33 minutes

  //>>>>>>>>>>>>>>>>>>>>>>>>>>>>>>>>>>>//
  //    Loading displacement 5 of 7    //
  //<<<<<<<<<<<<<<<<<<<<<<<<<<<<<<<<<<<//

*** tstart() called on bp1-compute00148.data.bp.acrc.priv
*** at Mon Apr 19 15:59:59 2021

   => Loading Basis Set <=

    Name: AUG-CC-PV(Q+D)Z
    Role: ORBITAL
    Keyword: BASIS
    atoms 1 entry C          line   319 file /work/zw18965/.conda/envs/p4env/share/psi4/basis/aug-cc-pv_qpd_z.gbs 
    atoms 2 entry N          line   379 file /work/zw18965/.conda/envs/p4env/share/psi4/basis/aug-cc-pv_qpd_z.gbs 
    atoms 3 entry H          line    56 file /work/zw18965/.conda/envs/p4env/share/psi4/basis/aug-cc-pv_qpd_z.gbs 


         ---------------------------------------------------------
                                   SCF
               by Justin Turney, Rob Parrish, Andy Simmonett
                          and Daniel G. A. Smith
                              RKS Reference
                       24 Threads, 137329 MiB Core
         ---------------------------------------------------------

  ==> Geometry <==

    Molecular point group: cs
    Full point group: C1v

    Geometry (in Angstrom), charge = 0, multiplicity = 1:

       Center              X                  Y                   Z               Mass       
    ------------   -----------------  -----------------  -----------------  -----------------
         C           -0.000003769007     0.000000000000    -0.552801043090    12.000000000000
         N           -0.000003770505     0.000000000000     0.590180015500    14.003074004430
         H            0.000097265642     0.000000000000    -1.618060540020     1.007825032230

  Running in cs symmetry.

  Rotational constants: A = 2254768744.75374  B =      1.50742  C =      1.50742 [cm^-1]
  Rotational constants: A = 67596266421129.84375  B =  45191.23653  C =  45191.23650 [MHz]
  Nuclear repulsion =   24.103170320198970

  Charge       = 0
  Multiplicity = 1
  Electrons    = 14
  Nalpha       = 7
  Nbeta        = 7

  ==> Algorithm <==

  SCF Algorithm Type is DF.
  DIIS enabled.
  MOM disabled.
  Fractional occupation disabled.
  Guess Type is SAD.
  Energy threshold   = 1.00e-08
  Density threshold  = 1.00e-08
  Integral threshold = 0.00e+00

  ==> Primary Basis <==

  Basis Set: AUG-CC-PV(Q+D)Z
    Blend: AUG-CC-PV(Q+D)Z
    Number of shells: 54
    Number of basis function: 206
    Number of Cartesian functions: 265
    Spherical Harmonics?: true
    Max angular momentum: 4

  ==> DFT Potential <==

   => Composite Functional: WB97M-V <= 

    wB97M-V Hyb-GGA Exchange-Correlation Functional

    N. Mardirossian and M. Head-Gordon, J. Chem. Phys. 144, 214110 (2016)

    Deriv               =              1
    GGA                 =           TRUE
    Meta                =           TRUE

    Exchange Hybrid     =           TRUE
    MP2 Hybrid          =          FALSE

   => Exchange-Correlation Functionals <=

    1.0000   wB97M-V exchange-correlation functional

   => Exact (HF) Exchange <=

    0.8500            HF,LR [omega = 0.3000]
    0.1500               HF 

   => VV10 Non-Local Parameters <=

    VV10 B              =     6.0000E+00
    VV10 C              =     1.0000E-02

   => Molecular Quadrature <=

    Radial Scheme          =       TREUTLER
    Pruning Scheme         =           FLAT
    Nuclear Scheme         =       TREUTLER

    BS radius alpha        =              1
    Pruning alpha          =              1
    Radial Points          =             75
    Spherical Points       =            302
    Total Points           =          67950
    Total Blocks           =            576
    Max Points             =            256
    Max Functions          =            206

   => Loading Basis Set <=

    Name: (AUG-CC-PV(Q+D)Z AUX)
    Role: JKFIT
    Keyword: DF_BASIS_SCF
    atoms 1 entry C          line   178 file /work/zw18965/.conda/envs/p4env/share/psi4/basis/aug-cc-pvqz-jkfit.gbs 
    atoms 2 entry N          line   248 file /work/zw18965/.conda/envs/p4env/share/psi4/basis/aug-cc-pvqz-jkfit.gbs 
    atoms 3 entry H          line    70 file /work/zw18965/.conda/envs/p4env/share/psi4/basis/aug-cc-pvqz-jkfit.gbs 

  ==> Pre-Iterations <==

   -------------------------------------------------------
    Irrep   Nso     Nmo     Nalpha   Nbeta   Ndocc  Nsocc
   -------------------------------------------------------
     A'       130     130       0       0       0       0
     A"        76      76       0       0       0       0
   -------------------------------------------------------
    Total     206     206       7       7       7       0
   -------------------------------------------------------

  ==> Integral Setup <==

  ==> DiskDFJK: Density-Fitted J/K Matrices <==

    J tasked:                  Yes
    K tasked:                  Yes
    wK tasked:                 Yes
    Omega:               3.000E-01
    OpenMP threads:             24
    Integrals threads:          24
    Memory [MiB]:           102059
    Algorithm:                Core
    Integral Cache:           NONE
    Schwarz Cutoff:          1E-12
    Fitting Condition:       1E-10

   => Auxiliary Basis Set <=

  Basis Set: (AUG-CC-PV(Q+D)Z AUX)
    Blend: AUG-CC-PVQZ-JKFIT
    Number of shells: 86
    Number of basis function: 360
    Number of Cartesian functions: 497
    Spherical Harmonics?: true
    Max angular momentum: 5

  Cached 100.0% of DFT collocation blocks in 0.916 [GiB].

  Minimum eigenvalue in the overlap matrix is 1.7540306055E-05.
  Using Symmetric Orthogonalization.

  SCF Guess: Superposition of Atomic Densities via on-the-fly atomic UHF.

  ==> Iterations <==

                           Total Energy        Delta E     RMS |[F,P]|

   @DF-RKS iter SAD:   -92.60449979243023   -9.26045e+01   0.00000e+00 
   @DF-RKS iter   1:   -93.34227821674281   -7.37778e-01   3.20546e-03 DIIS
   @DF-RKS iter   2:   -93.31455754200462    2.77207e-02   3.59905e-03 DIIS
   @DF-RKS iter   3:   -93.43268239619111   -1.18125e-01   6.33116e-04 DIIS
   @DF-RKS iter   4:   -93.43651281948820   -3.83042e-03   7.21242e-05 DIIS
   @DF-RKS iter   5:   -93.43655964828952   -4.68288e-05   1.03558e-05 DIIS
   @DF-RKS iter   6:   -93.43656097197109   -1.32368e-06   1.97805e-06 DIIS
   @DF-RKS iter   7:   -93.43656104427338   -7.23023e-08   2.76887e-07 DIIS
   @DF-RKS iter   8:   -93.43656104650117   -2.22779e-09   3.05420e-08 DIIS
   @DF-RKS iter   9:   -93.43656104652730   -2.61338e-11   4.01906e-09 DIIS
  Energy and wave function converged.


  ==> Post-Iterations <==

    Orbital Energies [Eh]
    ---------------------

    Doubly Occupied:                                                      

       1Ap   -14.528182     2Ap   -10.395229     3Ap    -1.054327  
       4Ap    -0.720524     5Ap    -0.497628     1App   -0.472554  
       6Ap    -0.472554  

    Virtual:                                                              

       7Ap     0.010277     8Ap     0.044011     2App    0.044011  
       9Ap     0.045285    10Ap     0.087934     3App    0.087934  
      11Ap     0.097942    12Ap     0.099420    13Ap     0.128974  
       4App    0.128974    14Ap     0.161285     5App    0.193816  
      15Ap     0.193817    16Ap     0.203321    17Ap     0.219924  
       6App    0.219924    18Ap     0.282415    19Ap     0.292812  
      20Ap     0.316183     7App    0.316183    21Ap     0.356163  
       8App    0.356164    22Ap     0.387671    23Ap     0.410507  
       9App    0.410507    24Ap     0.426010    10App    0.426010  
      25Ap     0.436740    26Ap     0.544024    27Ap     0.590462  
      11App    0.590462    12App    0.601170    28Ap     0.601171  
      29Ap     0.622768    30Ap     0.685220    13App    0.694296  
      31Ap     0.694296    32Ap     0.712744    33Ap     0.746610  
      14App    0.746613    34Ap     0.746618    15App    0.746619  
      35Ap     0.866814    16App    0.866814    17App    0.869623  
      36Ap     0.869626    37Ap     0.937463    38Ap     0.984557  
      18App    1.048616    39Ap     1.048616    19App    1.054787  
      40Ap     1.054787    41Ap     1.123556    20App    1.123556  
      21App    1.148271    42Ap     1.148272    43Ap     1.205882  
      44Ap     1.268982    22App    1.334567    45Ap     1.334567  
      46Ap     1.369367    47Ap     1.492329    48Ap     1.498851  
      23App    1.498859    49Ap     1.502647    24App    1.502647  
      50Ap     1.556510    51Ap     1.570221    25App    1.617057  
      52Ap     1.617057    26App    1.647242    53Ap     1.647242  
      27App    1.775203    54Ap     1.775206    55Ap     1.927977  
      28App    1.927977    29App    1.978845    56Ap     1.978851  
      57Ap     1.986586    30App    1.986587    58Ap     2.036941  
      31App    2.116710    59Ap     2.116710    32App    2.190448  
      60Ap     2.190452    61Ap     2.224687    33App    2.224687  
      62Ap     2.294330    63Ap     2.350388    34App    2.350388  
      35App    2.408653    64Ap     2.408653    65Ap     2.551342  
      66Ap     2.625567    36App    2.649105    67Ap     2.649110  
      68Ap     2.744487    37App    2.744487    69Ap     2.833726  
      38App    2.833726    70Ap     2.861533    71Ap     2.926671  
      39App    2.926671    40App    3.050169    72Ap     3.050169  
      73Ap     3.080210    74Ap     3.117924    41App    3.117924  
      75Ap     3.168380    76Ap     3.182330    42App    3.182349  
      43App    3.373566    77Ap     3.373571    78Ap     3.551956  
      44App    3.604694    79Ap     3.604694    80Ap     3.652921  
      45App    3.652921    81Ap     3.716178    46App    3.768839  
      82Ap     3.768852    83Ap     3.943941    47App    3.943941  
      84Ap     4.229364    48App    4.343374    85Ap     4.343375  
      86Ap     4.482948    49App    4.482948    87Ap     4.583873  
      50App    4.593495    88Ap     4.593495    89Ap     4.747608  
      90Ap     5.137282    91Ap     5.670681    51App    5.670693  
      52App    5.696116    92Ap     5.696116    53App    5.699042  
      93Ap     5.699059    54App    5.812969    94Ap     5.812969  
      95Ap     6.126232    55App    6.126234    96Ap     6.161474  
      56App    6.161474    97Ap     6.285094    57App    6.285094  
      98Ap     6.302182    58App    6.548690    99Ap     6.548690  
     100Ap     6.662150    59App    6.795578   101Ap     6.795581  
     102Ap     6.981173    60App    6.981173   103Ap     7.457931  
     104Ap     7.802555    61App    7.802555   105Ap     7.885799  
      62App    7.899649   106Ap     7.899660    63App    7.963281  
     107Ap     7.963309    64App    8.010253   108Ap     8.010253  
     109Ap     8.320577    65App    8.320577   110Ap     8.358397  
      66App    8.444837   111Ap     8.444837    67App    8.672292  
     112Ap     8.672317    68App    8.729326   113Ap     8.729326  
      69App    8.883394   114Ap     8.883396   115Ap     8.901824  
      70App    8.942485   116Ap     8.942485   117Ap     9.257750  
      71App    9.257750   118Ap     9.441907    72App    9.587491  
     119Ap     9.587492   120Ap     9.630648    73App    9.949479  
     121Ap     9.949499   122Ap    10.007211    74App   10.007211  
     123Ap    10.469743   124Ap    10.836810    75App   11.138543  
     125Ap    11.138544   126Ap    12.279630   127Ap    12.543176  
      76App   12.543176   128Ap    14.278060   129Ap    25.601284  
     130Ap    33.297777  

    Final Occupation by Irrep:
             Ap   App 
    DOCC [     6,    1 ]

  @DF-RKS Final Energy:   -93.43656104652730

   => Energetics <=

    Nuclear Repulsion Energy =             24.1031703201989700
    One-Electron Energy =                -173.1821457345987199
    Two-Electron Energy =                  64.5577513540113870
    DFT Exchange-Correlation Energy =      -8.9737125632188288
    Empirical Dispersion Energy =           0.0000000000000000
    VV10 Nonlocal Energy =                  0.0583755770798710
    Total Energy =                        -93.4365610465273022

Computation Completed


Properties will be evaluated at   0.000000,   0.000000,   0.000000 [a0]

Properties computed using the SCF density matrix

  Nuclear Dipole Moment: [e a0]
     X:     0.0001      Y:     0.0000      Z:    -1.5186

  Electronic Dipole Moment: [e a0]
     X:    -0.0000      Y:     0.0000      Z:     0.3164

  Dipole Moment: [e a0]
     X:     0.0000      Y:     0.0000      Z:    -1.2022     Total:     1.2022

  Dipole Moment: [D]
     X:     0.0001      Y:     0.0000      Z:    -3.0558     Total:     3.0558


*** tstop() called on bp1-compute00148.data.bp.acrc.priv at Mon Apr 19 16:00:04 2021
Module time:
	user time   =     108.39 seconds =       1.81 minutes
	system time =       2.98 seconds =       0.05 minutes
	total time  =          5 seconds =       0.08 minutes
Total time:
	user time   =     552.16 seconds =       9.20 minutes
	system time =      19.92 seconds =       0.33 minutes
	total time  =         25 seconds =       0.42 minutes

  //>>>>>>>>>>>>>>>>>>>>>>>>>>>>>>>>>>>//
  //    Loading displacement 6 of 7    //
  //<<<<<<<<<<<<<<<<<<<<<<<<<<<<<<<<<<<//

*** tstart() called on bp1-compute00148.data.bp.acrc.priv
*** at Mon Apr 19 16:00:04 2021

   => Loading Basis Set <=

    Name: AUG-CC-PV(Q+D)Z
    Role: ORBITAL
    Keyword: BASIS
    atoms 1 entry C          line   319 file /work/zw18965/.conda/envs/p4env/share/psi4/basis/aug-cc-pv_qpd_z.gbs 
    atoms 2 entry N          line   379 file /work/zw18965/.conda/envs/p4env/share/psi4/basis/aug-cc-pv_qpd_z.gbs 
    atoms 3 entry H          line    56 file /work/zw18965/.conda/envs/p4env/share/psi4/basis/aug-cc-pv_qpd_z.gbs 


         ---------------------------------------------------------
                                   SCF
               by Justin Turney, Rob Parrish, Andy Simmonett
                          and Daniel G. A. Smith
                              RKS Reference
                       24 Threads, 137329 MiB Core
         ---------------------------------------------------------

  ==> Geometry <==

    Molecular point group: cs
    Full point group: C1v

    Geometry (in Angstrom), charge = 0, multiplicity = 1:

       Center              X                  Y                   Z               Mass       
    ------------   -----------------  -----------------  -----------------  -----------------
         C           -0.000003769007     0.000000000000    -0.553370439004    12.000000000000
         N           -0.000003777388     0.000000000000     0.590818411276    14.003074004430
         H            0.000097361265     0.000000000000    -1.620150934943     1.007825032230

  Running in cs symmetry.

  Rotational constants: A = 2251051636.27509  B =      1.50406  C =      1.50406 [cm^-1]
  Rotational constants: A = 67484830312383.14062  B =  45090.68637  C =  45090.68634 [MHz]
  Nuclear repulsion =   24.076324293855492

  Charge       = 0
  Multiplicity = 1
  Electrons    = 14
  Nalpha       = 7
  Nbeta        = 7

  ==> Algorithm <==

  SCF Algorithm Type is DF.
  DIIS enabled.
  MOM disabled.
  Fractional occupation disabled.
  Guess Type is SAD.
  Energy threshold   = 1.00e-08
  Density threshold  = 1.00e-08
  Integral threshold = 0.00e+00

  ==> Primary Basis <==

  Basis Set: AUG-CC-PV(Q+D)Z
    Blend: AUG-CC-PV(Q+D)Z
    Number of shells: 54
    Number of basis function: 206
    Number of Cartesian functions: 265
    Spherical Harmonics?: true
    Max angular momentum: 4

  ==> DFT Potential <==

   => Composite Functional: WB97M-V <= 

    wB97M-V Hyb-GGA Exchange-Correlation Functional

    N. Mardirossian and M. Head-Gordon, J. Chem. Phys. 144, 214110 (2016)

    Deriv               =              1
    GGA                 =           TRUE
    Meta                =           TRUE

    Exchange Hybrid     =           TRUE
    MP2 Hybrid          =          FALSE

   => Exchange-Correlation Functionals <=

    1.0000   wB97M-V exchange-correlation functional

   => Exact (HF) Exchange <=

    0.8500            HF,LR [omega = 0.3000]
    0.1500               HF 

   => VV10 Non-Local Parameters <=

    VV10 B              =     6.0000E+00
    VV10 C              =     1.0000E-02

   => Molecular Quadrature <=

    Radial Scheme          =       TREUTLER
    Pruning Scheme         =           FLAT
    Nuclear Scheme         =       TREUTLER

    BS radius alpha        =              1
    Pruning alpha          =              1
    Radial Points          =             75
    Spherical Points       =            302
    Total Points           =          67950
    Total Blocks           =            574
    Max Points             =            256
    Max Functions          =            206

   => Loading Basis Set <=

    Name: (AUG-CC-PV(Q+D)Z AUX)
    Role: JKFIT
    Keyword: DF_BASIS_SCF
    atoms 1 entry C          line   178 file /work/zw18965/.conda/envs/p4env/share/psi4/basis/aug-cc-pvqz-jkfit.gbs 
    atoms 2 entry N          line   248 file /work/zw18965/.conda/envs/p4env/share/psi4/basis/aug-cc-pvqz-jkfit.gbs 
    atoms 3 entry H          line    70 file /work/zw18965/.conda/envs/p4env/share/psi4/basis/aug-cc-pvqz-jkfit.gbs 

  ==> Pre-Iterations <==

   -------------------------------------------------------
    Irrep   Nso     Nmo     Nalpha   Nbeta   Ndocc  Nsocc
   -------------------------------------------------------
     A'       130     130       0       0       0       0
     A"        76      76       0       0       0       0
   -------------------------------------------------------
    Total     206     206       7       7       7       0
   -------------------------------------------------------

  ==> Integral Setup <==

  ==> DiskDFJK: Density-Fitted J/K Matrices <==

    J tasked:                  Yes
    K tasked:                  Yes
    wK tasked:                 Yes
    Omega:               3.000E-01
    OpenMP threads:             24
    Integrals threads:          24
    Memory [MiB]:           102059
    Algorithm:                Core
    Integral Cache:           NONE
    Schwarz Cutoff:          1E-12
    Fitting Condition:       1E-10

   => Auxiliary Basis Set <=

  Basis Set: (AUG-CC-PV(Q+D)Z AUX)
    Blend: AUG-CC-PVQZ-JKFIT
    Number of shells: 86
    Number of basis function: 360
    Number of Cartesian functions: 497
    Spherical Harmonics?: true
    Max angular momentum: 5

  Cached 100.0% of DFT collocation blocks in 0.916 [GiB].

  Minimum eigenvalue in the overlap matrix is 1.7671694881E-05.
  Using Symmetric Orthogonalization.

  SCF Guess: Superposition of Atomic Densities via on-the-fly atomic UHF.

  ==> Iterations <==

                           Total Energy        Delta E     RMS |[F,P]|

   @DF-RKS iter SAD:   -92.60259458333431   -9.26026e+01   0.00000e+00 
   @DF-RKS iter   1:   -93.34237465280303   -7.39780e-01   3.20209e-03 DIIS
   @DF-RKS iter   2:   -93.31392156048130    2.84531e-02   3.60708e-03 DIIS
   @DF-RKS iter   3:   -93.43268925362260   -1.18768e-01   6.32042e-04 DIIS
   @DF-RKS iter   4:   -93.43651048996345   -3.82124e-03   7.21549e-05 DIIS
   @DF-RKS iter   5:   -93.43655740142798   -4.69115e-05   1.03939e-05 DIIS
   @DF-RKS iter   6:   -93.43655873438377   -1.33296e-06   1.99302e-06 DIIS
   @DF-RKS iter   7:   -93.43655880762849   -7.32447e-08   2.78823e-07 DIIS
   @DF-RKS iter   8:   -93.43655880988338   -2.25489e-09   3.06802e-08 DIIS
   @DF-RKS iter   9:   -93.43655880990954   -2.61622e-11   4.02306e-09 DIIS
  Energy and wave function converged.


  ==> Post-Iterations <==

    Orbital Energies [Eh]
    ---------------------

    Doubly Occupied:                                                      

       1Ap   -14.528535     2Ap   -10.395716     3Ap    -1.053879  
       4Ap    -0.720195     5Ap    -0.497695     1App   -0.472250  
       6Ap    -0.472250  

    Virtual:                                                              

       7Ap     0.010256     8Ap     0.043966     2App    0.043966  
       9Ap     0.045241    10Ap     0.087780     3App    0.087780  
      11Ap     0.097927    12Ap     0.099363    13Ap     0.128824  
       4App    0.128824    14Ap     0.161078     5App    0.193843  
      15Ap     0.193844    16Ap     0.203228    17Ap     0.219803  
       6App    0.219803    18Ap     0.282110    19Ap     0.292860  
      20Ap     0.316249     7App    0.316249    21Ap     0.356201  
       8App    0.356202    22Ap     0.387543    23Ap     0.410282  
       9App    0.410282    24Ap     0.426002    10App    0.426002  
      25Ap     0.436676    26Ap     0.543824    27Ap     0.590360  
      11App    0.590360    12App    0.601276    28Ap     0.601277  
      29Ap     0.622619    30Ap     0.685058    13App    0.694317  
      31Ap     0.694317    32Ap     0.712377    33Ap     0.746588  
      14App    0.746591    34Ap     0.746751    15App    0.746751  
      35Ap     0.866613    16App    0.866613    17App    0.869470  
      36Ap     0.869473    37Ap     0.935833    38Ap     0.984599  
      18App    1.048473    39Ap     1.048473    19App    1.054740  
      40Ap     1.054740    41Ap     1.123057    20App    1.123057  
      21App    1.148059    42Ap     1.148061    43Ap     1.205687  
      44Ap     1.268657    22App    1.334374    45Ap     1.334374  
      46Ap     1.368812    47Ap     1.491341    48Ap     1.498840  
      23App    1.498848    49Ap     1.502240    24App    1.502240  
      50Ap     1.555415    51Ap     1.570065    52Ap     1.616639  
      25App    1.616639    26App    1.647671    53Ap     1.647671  
      27App    1.775400    54Ap     1.775403    55Ap     1.928317  
      28App    1.928317    29App    1.978830    56Ap     1.978836  
      57Ap     1.986569    30App    1.986570    58Ap     2.036224  
      59Ap     2.116544    31App    2.116544    32App    2.189130  
      60Ap     2.189134    61Ap     2.223415    33App    2.223415  
      62Ap     2.294384    63Ap     2.349137    34App    2.349137  
      35App    2.408085    64Ap     2.408085    65Ap     2.548908  
      66Ap     2.625818    36App    2.648576    67Ap     2.648581  
      68Ap     2.743142    37App    2.743142    69Ap     2.833390  
      38App    2.833390    70Ap     2.861542    71Ap     2.926794  
      39App    2.926794    40App    3.049989    72Ap     3.049989  
      73Ap     3.079408    74Ap     3.117060    41App    3.117060  
      75Ap     3.166726    76Ap     3.182011    42App    3.182031  
      43App    3.371640    77Ap     3.371645    78Ap     3.550628  
      79Ap     3.602738    44App    3.602738    80Ap     3.651073  
      45App    3.651073    81Ap     3.714883    46App    3.768080  
      82Ap     3.768092    83Ap     3.944083    47App    3.944083  
      84Ap     4.225792    48App    4.342009    85Ap     4.342010  
      86Ap     4.480823    49App    4.480823    87Ap     4.586108  
      50App    4.591361    88Ap     4.591361    89Ap     4.744368  
      90Ap     5.132812    91Ap     5.670627    51App    5.670639  
      52App    5.696057    92Ap     5.696057    53App    5.698934  
      93Ap     5.698952    54App    5.811889    94Ap     5.811889  
      95Ap     6.125435    55App    6.125438    96Ap     6.161774  
      56App    6.161774    97Ap     6.282322    57App    6.282322  
      98Ap     6.300616    58App    6.546325    99Ap     6.546325  
     100Ap     6.659642    59App    6.790798   101Ap     6.790801  
     102Ap     6.976735    60App    6.976735   103Ap     7.448910  
     104Ap     7.807007    61App    7.807007   105Ap     7.879743  
      62App    7.894052   106Ap     7.894063    63App    7.963018  
     107Ap     7.963047    64App    8.007742   108Ap     8.007742  
     109Ap     8.319206    65App    8.319206   110Ap     8.359867  
      66App    8.442855   111Ap     8.442855    67App    8.671019  
     112Ap     8.671045    68App    8.724947   113Ap     8.724947  
      69App    8.880466   114Ap     8.880468   115Ap     8.900370  
      70App    8.941138   116Ap     8.941138   117Ap     9.254707  
      71App    9.254707   118Ap     9.443132    72App    9.584721  
     119Ap     9.584721   120Ap     9.626194    73App    9.944040  
     121Ap     9.944061   122Ap     9.999295    74App    9.999295  
     123Ap    10.464015   124Ap    10.838096    75App   11.127017  
     125Ap    11.127017   126Ap    12.273197   127Ap    12.534172  
      76App   12.534172   128Ap    14.258884   129Ap    25.585973  
     130Ap    33.281495  

    Final Occupation by Irrep:
             Ap   App 
    DOCC [     6,    1 ]

  @DF-RKS Final Energy:   -93.43655880990954

   => Energetics <=

    Nuclear Repulsion Energy =             24.0763242938554924
    One-Electron Energy =                -173.1303098016321940
    Two-Electron Energy =                  64.5312277615636418
    DFT Exchange-Correlation Energy =      -8.9721753005889315
    Empirical Dispersion Energy =           0.0000000000000000
    VV10 Nonlocal Energy =                  0.0583742368924515
    Total Energy =                        -93.4365588099095419

Computation Completed


Properties will be evaluated at   0.000000,   0.000000,   0.000000 [a0]

Properties computed using the SCF density matrix

  Nuclear Dipole Moment: [e a0]
     X:     0.0001      Y:     0.0000      Z:    -1.5206

  Electronic Dipole Moment: [e a0]
     X:    -0.0000      Y:     0.0000      Z:     0.3176

  Dipole Moment: [e a0]
     X:     0.0000      Y:     0.0000      Z:    -1.2030     Total:     1.2030

  Dipole Moment: [D]
     X:     0.0001      Y:     0.0000      Z:    -3.0577     Total:     3.0577


*** tstop() called on bp1-compute00148.data.bp.acrc.priv at Mon Apr 19 16:00:08 2021
Module time:
	user time   =     107.41 seconds =       1.79 minutes
	system time =       2.97 seconds =       0.05 minutes
[...]
    ------------   -----------------  -----------------  -----------------  -----------------
         C           -0.000002335203     0.000000000000    -0.553652777452    12.000000000000
         N           -0.000002339466     0.000000000000     0.591080115742    14.003074004430
         H            0.000060310211     0.000000000000    -1.620425392936     1.007825032230

  Running in cs symmetry.

  Rotational constants: A = 5865324913.89051  B =      1.50286  C =      1.50286 [cm^-1]
  Rotational constants: A = 175838017290387.56250  B =  45054.59510  C =  45054.59509 [MHz]
  Nuclear repulsion =   24.066708403307416

  Charge       = 0
  Multiplicity = 1
  Electrons    = 14
  Nalpha       = 7
  Nbeta        = 7

  ==> Algorithm <==

  SCF Algorithm Type is DF.
  DIIS enabled.
  MOM disabled.
  Fractional occupation disabled.
  Guess Type is SAD.
  Energy threshold   = 1.00e-10
  Density threshold  = 1.00e-10
  Integral threshold = 0.00e+00

  ==> Primary Basis <==

  Basis Set: AUG-CC-PV(Q+D)Z
    Blend: AUG-CC-PV(Q+D)Z
    Number of shells: 54
    Number of basis function: 206
    Number of Cartesian functions: 265
    Spherical Harmonics?: true
    Max angular momentum: 4

  ==> DFT Potential <==

   => Composite Functional: WB97M-V <= 

    wB97M-V Hyb-GGA Exchange-Correlation Functional

    N. Mardirossian and M. Head-Gordon, J. Chem. Phys. 144, 214110 (2016)

    Deriv               =              1
    GGA                 =           TRUE
    Meta                =           TRUE

    Exchange Hybrid     =           TRUE
    MP2 Hybrid          =          FALSE

   => Exchange-Correlation Functionals <=

    1.0000   wB97M-V exchange-correlation functional

   => Exact (HF) Exchange <=

    0.8500            HF,LR [omega = 0.3000]
    0.1500               HF 

   => VV10 Non-Local Parameters <=

    VV10 B              =     6.0000E+00
    VV10 C              =     1.0000E-02

   => Molecular Quadrature <=

    Radial Scheme          =       TREUTLER
    Pruning Scheme         =           FLAT
    Nuclear Scheme         =       TREUTLER

    BS radius alpha        =              1
    Pruning alpha          =              1
    Radial Points          =             75
    Spherical Points       =            302
    Total Points           =          67950
    Total Blocks           =            580
    Max Points             =            252
    Max Functions          =            206

   => Loading Basis Set <=

    Name: (AUG-CC-PV(Q+D)Z AUX)
    Role: JKFIT
    Keyword: DF_BASIS_SCF
    atoms 1 entry C          line   178 file /work/zw18965/.conda/envs/p4env/share/psi4/basis/aug-cc-pvqz-jkfit.gbs 
    atoms 2 entry N          line   248 file /work/zw18965/.conda/envs/p4env/share/psi4/basis/aug-cc-pvqz-jkfit.gbs 
    atoms 3 entry H          line    70 file /work/zw18965/.conda/envs/p4env/share/psi4/basis/aug-cc-pvqz-jkfit.gbs 

  ==> Pre-Iterations <==

   -------------------------------------------------------
    Irrep   Nso     Nmo     Nalpha   Nbeta   Ndocc  Nsocc
   -------------------------------------------------------
     A'       130     130       0       0       0       0
     A"        76      76       0       0       0       0
   -------------------------------------------------------
    Total     206     206       7       7       7       0
   -------------------------------------------------------

  ==> Integral Setup <==

  ==> DiskDFJK: Density-Fitted J/K Matrices <==

    J tasked:                  Yes
    K tasked:                  Yes
    wK tasked:                 Yes
    Omega:               3.000E-01
    OpenMP threads:             24
    Integrals threads:          24
    Memory [MiB]:           102059
    Algorithm:                Core
    Integral Cache:           NONE
    Schwarz Cutoff:          1E-12
    Fitting Condition:       1E-10

   => Auxiliary Basis Set <=

  Basis Set: (AUG-CC-PV(Q+D)Z AUX)
    Blend: AUG-CC-PVQZ-JKFIT
    Number of shells: 86
    Number of basis function: 360
    Number of Cartesian functions: 497
    Spherical Harmonics?: true
    Max angular momentum: 5

  Cached 100.0% of DFT collocation blocks in 0.915 [GiB].

  Minimum eigenvalue in the overlap matrix is 1.7683453036E-05.
  Using Symmetric Orthogonalization.

  SCF Guess: Superposition of Atomic Densities via on-the-fly atomic UHF.

  ==> Iterations <==

                           Total Energy        Delta E     RMS |[F,P]|

   @DF-RKS iter SAD:   -92.60186222194329   -9.26019e+01   0.00000e+00 
   @DF-RKS iter   1:   -93.34249662843564   -7.40634e-01   3.19934e-03 DIIS
   @DF-RKS iter   2:   -93.31382114791754    2.86755e-02   3.60810e-03 DIIS
   @DF-RKS iter   3:   -93.43268938830475   -1.18868e-01   6.31725e-04 DIIS
   @DF-RKS iter   4:   -93.43650812414900   -3.81874e-03   7.21287e-05 DIIS
   @DF-RKS iter   5:   -93.43655501357377   -4.68894e-05   1.04057e-05 DIIS
   @DF-RKS iter   6:   -93.43655634893669   -1.33536e-06   1.99810e-06 DIIS
   @DF-RKS iter   7:   -93.43655642246438   -7.35277e-08   2.79375e-07 DIIS
   @DF-RKS iter   8:   -93.43655642472537   -2.26099e-09   3.07121e-08 DIIS
   @DF-RKS iter   9:   -93.43655642475161   -2.62474e-11   4.02033e-09 DIIS
   @DF-RKS iter  10:   -93.43655642475193   -3.12639e-13   4.92592e-10 DIIS
   @DF-RKS iter  11:   -93.43655642475221   -2.84217e-13   6.66630e-11 DIIS
  Energy and wave function converged.


  ==> Post-Iterations <==

    Orbital Energies [Eh]
    ---------------------

    Doubly Occupied:                                                      

       1Ap   -14.528704     2Ap   -10.395887     3Ap    -1.053684  
       4Ap    -0.720256     5Ap    -0.497739     1App   -0.472123  
       6Ap    -0.472123  

    Virtual:                                                              

       7Ap     0.010252     8Ap     0.043947     2App    0.043947  
       9Ap     0.045233    10Ap     0.087700     3App    0.087700  
      11Ap     0.097924    12Ap     0.099356    13Ap     0.128754  
       4App    0.128754    14Ap     0.161056     5App    0.193851  
      15Ap     0.193852    16Ap     0.203212    17Ap     0.219769  
       6App    0.219769    18Ap     0.282097    19Ap     0.292858  
      20Ap     0.316246     7App    0.316246    21Ap     0.356207  
       8App    0.356207    22Ap     0.387487    23Ap     0.410257  
       9App    0.410257    24Ap     0.425992    10App    0.425992  
      25Ap     0.436657    26Ap     0.543797    27Ap     0.590335  
      11App    0.590335    12App    0.601277    28Ap     0.601278  
      29Ap     0.622631    30Ap     0.685028    31Ap     0.694313  
      13App    0.694313    32Ap     0.712237    33Ap     0.746589  
      14App    0.746592    34Ap     0.746768    15App    0.746768  
      35Ap     0.866567    16App    0.866567    17App    0.869449  
      36Ap     0.869452    37Ap     0.935362    38Ap     0.984643  
      18App    1.048488    39Ap     1.048488    40Ap     1.054709  
      19App    1.054709    41Ap     1.122895    20App    1.122895  
      21App    1.147986    42Ap     1.147988    43Ap     1.205557  
      44Ap     1.268622    22App    1.334307    45Ap     1.334307  
      46Ap     1.368614    47Ap     1.491114    48Ap     1.498835  
      23App    1.498843    49Ap     1.502027    24App    1.502027  
      50Ap     1.555204    51Ap     1.570016    25App    1.616589  
      52Ap     1.616589    26App    1.647757    53Ap     1.647757  
      27App    1.775368    54Ap     1.775370    55Ap     1.928413  
      28App    1.928413    29App    1.978844    56Ap     1.978850  
      57Ap     1.986551    30App    1.986552    58Ap     2.036271  
      59Ap     2.116488    31App    2.116488    32App    2.188944  
      60Ap     2.188947    61Ap     2.223316    33App    2.223316  
      62Ap     2.294355    63Ap     2.348838    34App    2.348838  
      35App    2.408035    64Ap     2.408035    65Ap     2.548451  
      66Ap     2.625831    36App    2.648425    67Ap     2.648430  
      68Ap     2.742588    37App    2.742588    69Ap     2.833229  
      38App    2.833229    70Ap     2.861480    71Ap     2.926789  
      39App    2.926789    72Ap     3.049928    40App    3.049928  
      73Ap     3.079128    74Ap     3.116910    41App    3.116910  
      75Ap     3.166470    76Ap     3.181895    42App    3.181914  
      43App    3.371446    77Ap     3.371451    78Ap     3.550123  
      79Ap     3.602015    44App    3.602015    80Ap     3.650609  
      45App    3.650609    81Ap     3.714817    46App    3.767795  
      82Ap     3.767808    83Ap     3.944200    47App    3.944200  
      84Ap     4.225319    48App    4.341512    85Ap     4.341512  
      86Ap     4.480393    49App    4.480393    87Ap     4.586827  
      50App    4.590903    88Ap     4.590903    89Ap     4.743526  
      90Ap     5.131186    91Ap     5.670602    51App    5.670614  
      52App    5.695908    92Ap     5.695908    53App    5.699147  
      93Ap     5.699165    54App    5.811679    94Ap     5.811679  
      95Ap     6.125009    55App    6.125011    96Ap     6.161799  
      56App    6.161799    97Ap     6.281807    57App    6.281807  
      98Ap     6.300397    58App    6.546211    99Ap     6.546211  
     100Ap     6.658884    59App    6.789577   101Ap     6.789581  
     102Ap     6.975744    60App    6.975744   103Ap     7.447511  
     104Ap     7.807281    61App    7.807281   105Ap     7.878987  
      62App    7.893490   106Ap     7.893501    63App    7.962890  
     107Ap     7.962918    64App    8.007623   108Ap     8.007623  
      65App    8.318618   109Ap     8.318618   110Ap     8.360452  
      66App    8.442331   111Ap     8.442331    67App    8.670920  
     112Ap     8.670946    68App    8.723986   113Ap     8.723986  
      69App    8.880299   114Ap     8.880300   115Ap     8.899864  
     116Ap     8.940615    70App    8.940615   117Ap     9.254315  
      71App    9.254315   118Ap     9.443545    72App    9.583624  
     119Ap     9.583625   120Ap     9.625491    73App    9.942278  
     121Ap     9.942299    74App    9.997753   122Ap     9.997753  
     123Ap    10.462718   124Ap    10.837310    75App   11.124615  
     125Ap    11.124615   126Ap    12.271243   127Ap    12.532174  
      76App   12.532174   128Ap    14.256277   129Ap    25.582355  
     130Ap    33.275019  

    Final Occupation by Irrep:
             Ap   App 
    DOCC [     6,    1 ]

  @DF-RKS Final Energy:   -93.43655642475221

   => Energetics <=

    Nuclear Repulsion Energy =             24.0667084033074161
    One-Electron Energy =                -173.1113592291936527
    Two-Electron Energy =                  64.5214082403658580
    DFT Exchange-Correlation Energy =      -8.9716878070116017
    Empirical Dispersion Energy =           0.0000000000000000
    VV10 Nonlocal Energy =                  0.0583739677797707
    Total Energy =                        -93.4365564247522116

Computation Completed


Properties will be evaluated at   0.000000,   0.000000,   0.000000 [a0]

Properties computed using the SCF density matrix

  Nuclear Dipole Moment: [e a0]
     X:     0.0001      Y:     0.0000      Z:    -1.5208

  Electronic Dipole Moment: [e a0]
     X:    -0.0000      Y:     0.0000      Z:     0.3178

  Dipole Moment: [e a0]
     X:     0.0000      Y:     0.0000      Z:    -1.2030     Total:     1.2030

  Dipole Moment: [D]
     X:     0.0001      Y:     0.0000      Z:    -3.0577     Total:     3.0577


*** tstop() called on bp1-compute00148.data.bp.acrc.priv at Mon Apr 19 16:02:17 2021
Module time:
	user time   =     116.56 seconds =       1.94 minutes
	system time =       2.84 seconds =       0.05 minutes
	total time  =          6 seconds =       0.10 minutes
Total time:
	user time   =    3569.98 seconds =      59.50 minutes
	system time =      98.01 seconds =       1.63 minutes
	total time  =        158 seconds =       2.63 minutes

         ----------------------------------------------------------
                                   FINDIF
                     R. A. King and Jonathon Misiewicz
         ---------------------------------------------------------

  Computing second-derivative from energies using projected, 
  symmetry-adapted, cartesian coordinates.

  13 energies passed in, including the reference geometry.
    Using 3-point formula.
    Energy without displacement:  -93.4365617034
    Check energies below for precision!
    0: -1        :       -93.4365614108
    0: 1         :       -93.4365614466
    1: -1        :       -93.4365584714
    1: 1         :       -93.4365583728
    2: -1        :       -93.4365567096
    2: 1         :       -93.4365572734
    0: 1, 1: 1   :       -93.4365580938
    0: -1, 1: -1 :       -93.4365581862
    0: 1, 2: 1   :       -93.4365570225
    0: -1, 2: -1 :       -93.4365564112
    1: 1, 2: 1   :       -93.4365569169
    1: -1, 2: -1 :       -93.4365564248

-------------------------------------------------------------


  ==> Harmonic Vibrational Analysis <==

  non-mass-weighted Hessian:       Symmetric? True   Hermitian? True   Lin Dep Dim?  6 (0)
  projection of translations (True) and rotations (True) removed 5 degrees of freedom (6)
  total projector:                 Symmetric? True   Hermitian? True   Lin Dep Dim?  5 (5)
  mass-weighted Hessian:           Symmetric? True   Hermitian? True   Lin Dep Dim?  6 (0)
  pre-proj  low-frequency mode:    0.0000i [cm^-1]
  pre-proj  low-frequency mode:    0.0000i [cm^-1]
  pre-proj  low-frequency mode:    0.0000  [cm^-1]
  pre-proj  low-frequency mode:    0.0000  [cm^-1]
  pre-proj  low-frequency mode:    0.0000  [cm^-1]
  pre-proj  low-frequency mode:    0.0000  [cm^-1]
  pre-proj  all modes:['0.0000i' '0.0000i' '0.0000' '0.0000' '0.0000' '0.0000' '762.0189'
 '2230.0617' '3453.1399']
  projected mass-weighted Hessian: Symmetric? True   Hermitian? True   Lin Dep Dim?  6 (5)
  post-proj low-frequency mode:    0.0000i [cm^-1] (-)
  post-proj low-frequency mode:    0.0000i [cm^-1] (-)
  post-proj low-frequency mode:    0.0000i [cm^-1] (-)
  post-proj low-frequency mode:    0.0000  [cm^-1] (-)
  post-proj low-frequency mode:    0.0000  [cm^-1] (-)
  post-proj low-frequency mode:    0.0000  [cm^-1] (-)
  post-proj  all modes:['0.0000i' '0.0000i' '0.0000i' '0.0000' '0.0000' '0.0000' '762.0189'
 '2230.0617' '3453.1399']

  Vibration                       7                   8                   9           
  Freq [cm^-1]                 762.0189           2230.0617           3453.1399       
  Irrep                           Ap                  Ap                  Ap          
  Reduced mass [u]              1.3451              4.9948              1.1966        
  Force const [mDyne/A]         0.4602             14.6353              8.4067        
  Turning point v=0 [a0]        0.3427              0.1040              0.1707        
  RMS dev v=0 [a0 u^1/2]        0.2811              0.1643              0.1320        
  Char temp [K]               1096.3756           3208.5623           4968.2995       
  ----------------------------------------------------------------------------------
      1   C               -0.16  0.00  0.00   -0.00 -0.00 -0.41   -0.00 -0.00 -0.13   
      2   N                0.07 -0.00 -0.00    0.00 -0.00  0.41    0.00 -0.00  0.04   
      3   H                0.98  0.00  0.00    0.00  0.00 -0.82    0.00  0.00  0.99   

  ==> Thermochemistry Components <==

  Entropy, S
    Electronic S            0.000 [cal/(mol K)]        0.000 [J/(mol K)]       0.00000000 [mEh/K] (multiplicity = 1)
    Translational S        35.816 [cal/(mol K)]      149.856 [J/(mol K)]       0.05707695 [mEh/K] (mol. weight = 27.0109 [u], P = 101325.00 [Pa])
    Rotational S           -3.147 [cal/(mol K)]      -13.166 [J/(mol K)]      -0.00501469 [mEh/K] (symmetry no. = 1)
    Vibrational S           0.241 [cal/(mol K)]        1.008 [J/(mol K)]       0.00038409 [mEh/K]
  Total S                  32.911 [cal/(mol K)]      137.698 [J/(mol K)]       0.05244635 [mEh/K]
  Correction S              0.000 [cal/(mol K)]        0.000 [J/(mol K)]       0.00000000 [mEh/K]

  Constant volume heat capacity, Cv
    Electronic Cv           0.000 [cal/(mol K)]        0.000 [J/(mol K)]       0.00000000 [mEh/K]
    Translational Cv        2.981 [cal/(mol K)]       12.472 [J/(mol K)]       0.00475022 [mEh/K]
    Rotational Cv           2.981 [cal/(mol K)]       12.472 [J/(mol K)]       0.00475022 [mEh/K]
    Vibrational Cv          0.720 [cal/(mol K)]        3.014 [J/(mol K)]       0.00114783 [mEh/K]
  Total Cv                  6.682 [cal/(mol K)]       27.957 [J/(mol K)]       0.01064827 [mEh/K]
  Correction Cv             0.000 [cal/(mol K)]        0.000 [J/(mol K)]       0.00000000 [mEh/K]

  Constant pressure heat capacity, Cp
    Electronic Cp           0.000 [cal/(mol K)]        0.000 [J/(mol K)]       0.00000000 [mEh/K]
    Translational Cp        4.968 [cal/(mol K)]       20.786 [J/(mol K)]       0.00791703 [mEh/K]
    Rotational Cp           2.981 [cal/(mol K)]       12.472 [J/(mol K)]       0.00475022 [mEh/K]
    Vibrational Cp          0.720 [cal/(mol K)]        3.014 [J/(mol K)]       0.00114783 [mEh/K]
  Total Cp                  8.669 [cal/(mol K)]       36.271 [J/(mol K)]       0.01381508 [mEh/K]
  Correction Cp             0.000 [cal/(mol K)]        0.000 [J/(mol K)]       0.00000000 [mEh/K]

  ==> Thermochemistry Energy Analysis <==

  Raw electronic energy, E0
  Total E0, Electronic energy at well bottom at 0 [K]                  -93.43656170 [Eh]

  Zero-point energy, ZPE_vib = Sum_i nu_i / 2
    Electronic ZPE          0.000 [kcal/mol]        0.000 [kJ/mol]       0.00000000 [Eh]
    Translational ZPE       0.000 [kcal/mol]        0.000 [kJ/mol]       0.00000000 [Eh]
    Rotational ZPE          0.000 [kcal/mol]        0.000 [kJ/mol]       0.00000000 [Eh]
    Vibrational ZPE         9.214 [kcal/mol]       38.551 [kJ/mol]       0.01468329 [Eh]        3222.610 [cm^-1]
  Correction ZPE            9.214 [kcal/mol]       38.551 [kJ/mol]       0.01468329 [Eh]        3222.610 [cm^-1]
  Total ZPE, Electronic energy at 0 [K]                                -93.42187841 [Eh]

  Thermal Energy, E (includes ZPE)
    Electronic E            0.000 [kcal/mol]        0.000 [kJ/mol]       0.00000000 [Eh]
    Translational E         0.889 [kcal/mol]        3.718 [kJ/mol]       0.00141628 [Eh]
    Rotational E            0.889 [kcal/mol]        3.718 [kJ/mol]       0.00141628 [Eh]
    Vibrational E           9.271 [kcal/mol]       38.788 [kJ/mol]       0.01477360 [Eh]
  Correction E             11.048 [kcal/mol]       46.225 [kJ/mol]       0.01760616 [Eh]
  Total E, Electronic energy at  298.15 [K]                            -93.41895555 [Eh]

  Enthalpy, H_trans = E_trans + k_B * T
    Electronic H            0.000 [kcal/mol]        0.000 [kJ/mol]       0.00000000 [Eh]
    Translational H         1.481 [kcal/mol]        6.197 [kJ/mol]       0.00236046 [Eh]
    Rotational H            0.889 [kcal/mol]        3.718 [kJ/mol]       0.00141628 [Eh]
    Vibrational H           9.271 [kcal/mol]       38.788 [kJ/mol]       0.01477360 [Eh]
  Correction H             11.641 [kcal/mol]       48.704 [kJ/mol]       0.01855034 [Eh]
  Total H, Enthalpy at  298.15 [K]                                     -93.41801136 [Eh]

  Gibbs free energy, G = H - T * S
    Electronic G            0.000 [kcal/mol]        0.000 [kJ/mol]       0.00000000 [Eh]
    Translational G        -9.197 [kcal/mol]      -38.482 [kJ/mol]      -0.01465703 [Eh]
    Rotational G            1.827 [kcal/mol]        7.644 [kJ/mol]       0.00291141 [Eh]
    Vibrational G           9.199 [kcal/mol]       38.487 [kJ/mol]       0.01465908 [Eh]
  Correction G              1.828 [kcal/mol]        7.649 [kJ/mol]       0.00291346 [Eh]
  Total G, Free enthalpy at  298.15 [K]                                -93.43364824 [Eh]

    Psi4 stopped on: Monday, 19 April 2021 04:02PM
    Psi4 wall time for execution: 0:02:38.36

*** Psi4 exiting successfully. Buy a developer a beer!
