
    -----------------------------------------------------------------------
          Psi4: An Open-Source Ab Initio Electronic Structure Package
                               Psi4 1.3.2 release

                         Git: Rev {HEAD} ecbda83 


    R. M. Parrish, L. A. Burns, D. G. A. Smith, A. C. Simmonett,
    A. E. DePrince III, E. G. Hohenstein, U. Bozkaya, A. Yu. Sokolov,
    R. Di Remigio, R. M. Richard, J. F. Gonthier, A. M. James,
    H. R. McAlexander, A. Kumar, M. Saitow, X. Wang, B. P. Pritchard,
    P. Verma, H. F. Schaefer III, K. Patkowski, R. A. King, E. F. Valeev,
    F. A. Evangelista, J. M. Turney, T. D. Crawford, and C. D. Sherrill,
    J. Chem. Theory Comput. 13(7) pp 3185--3197 (2017).
    (doi: 10.1021/acs.jctc.7b00174)


                         Additional Contributions by
    P. Kraus, H. Kruse, M. H. Lechner, M. C. Schieber, R. A. Shaw,
    A. Alenaizan, R. Galvelis, Z. L. Glick, S. Lehtola, and J. P. Misiewicz

    -----------------------------------------------------------------------


    Psi4 started on: Monday, 19 April 2021 03:36PM

    Process ID: 47264
    Host:       bp1-login01.data.bp.acrc.priv
    PSIDATADIR: /work/zw18965/.conda/envs/p4env/share/psi4
    Memory:     500.0 MiB
    Threads:    12
    
  ==> Input File <==

--------------------------------------------------------------------------
memory 144 GB

molecule {
0 1
F     0.463464000728   0.000000000000   0.000000000000
H    -0.463464000728   0.000000000000   0.000000000000}

set basis aug-cc-pV(Q+d)Z
 
optimize("WB97M-V")
frequencies("WB97M-V")--------------------------------------------------------------------------

  Memory set to 134.110 GiB by Python driver.
gradient() will perform gradient computation by finite difference of analytic energies.

         ----------------------------------------------------------
                                   FINDIF
                     R. A. King and Jonathon Misiewicz
         ---------------------------------------------------------

  Using finite-differences of energies to determine gradients.
    Generating geometries for use with 3-point formula.
    Displacement size will be 5.00e-03.
    Number of atoms is 2.
    Number of symmetric SALCs is 1.
    Translations projected? 1. Rotations projected? 1.
    Number of geometries (including reference) is 3.

  //>>>>>>>>>>>>>>>>>>>>>>>>>>>>>>>>>>>//
  //    Loading displacement 1 of 3    //
  //<<<<<<<<<<<<<<<<<<<<<<<<<<<<<<<<<<<//

*** tstart() called on bp1-login01.data.bp.acrc.priv
*** at Mon Apr 19 15:36:39 2021

   => Loading Basis Set <=

    Name: AUG-CC-PV(Q+D)Z
    Role: ORBITAL
    Keyword: BASIS
    atoms 1 entry F          line   499 file /work/zw18965/.conda/envs/p4env/share/psi4/basis/aug-cc-pv_qpd_z.gbs 
    atoms 2 entry H          line    56 file /work/zw18965/.conda/envs/p4env/share/psi4/basis/aug-cc-pv_qpd_z.gbs 


         ---------------------------------------------------------
                                   SCF
               by Justin Turney, Rob Parrish, Andy Simmonett
                          and Daniel G. A. Smith
                              RKS Reference
                       12 Threads, 137329 MiB Core
         ---------------------------------------------------------

  ==> Geometry <==

    Molecular point group: c2v
    Full point group: C_inf_v

    Geometry (in Angstrom), charge = 0, multiplicity = 1:

       Center              X                  Y                   Z               Mass       
    ------------   -----------------  -----------------  -----------------  -----------------
         F            0.000000000000     0.000000000000     0.046694521018    18.998403162730
         H            0.000000000000     0.000000000000    -0.880233480438     1.007825032230

  Running in c2v symmetry.

  Rotational constants: A = ************  B =     20.50064  C =     20.50064 [cm^-1]
  Rotational constants: A = ************  B = 614593.79748  C = 614593.79748 [MHz]
  Nuclear repulsion =    5.138041885183113

  Charge       = 0
  Multiplicity = 1
  Electrons    = 10
  Nalpha       = 5
  Nbeta        = 5

  ==> Algorithm <==

  SCF Algorithm Type is DF.
  DIIS enabled.
  MOM disabled.
  Fractional occupation disabled.
  Guess Type is SAD.
  Energy threshold   = 1.00e-08
  Density threshold  = 1.00e-08
  Integral threshold = 0.00e+00

  ==> Primary Basis <==

  Basis Set: AUG-CC-PV(Q+D)Z
    Blend: AUG-CC-PV(Q+D)Z
    Number of shells: 34
    Number of basis function: 126
    Number of Cartesian functions: 160
    Spherical Harmonics?: true
    Max angular momentum: 4

  ==> DFT Potential <==

   => Composite Functional: WB97M-V <= 

    wB97M-V Hyb-GGA Exchange-Correlation Functional

    N. Mardirossian and M. Head-Gordon, J. Chem. Phys. 144, 214110 (2016)

    Deriv               =              1
    GGA                 =           TRUE
    Meta                =           TRUE

    Exchange Hybrid     =           TRUE
    MP2 Hybrid          =          FALSE

   => Exchange-Correlation Functionals <=

    1.0000   wB97M-V exchange-correlation functional

   => Exact (HF) Exchange <=

    0.8500            HF,LR [omega = 0.3000]
    0.1500               HF 

   => VV10 Non-Local Parameters <=

    VV10 B              =     6.0000E+00
    VV10 C              =     1.0000E-02

   => Molecular Quadrature <=

    Radial Scheme          =       TREUTLER
    Pruning Scheme         =           FLAT
    Nuclear Scheme         =       TREUTLER

    BS radius alpha        =              1
    Pruning alpha          =              1
    Radial Points          =             75
    Spherical Points       =            302
    Total Points           =          45300
    Total Blocks           =            415
    Max Points             =            254
    Max Functions          =            126

   => Loading Basis Set <=

    Name: (AUG-CC-PV(Q+D)Z AUX)
    Role: JKFIT
    Keyword: DF_BASIS_SCF
    atoms 1 entry F          line   388 file /work/zw18965/.conda/envs/p4env/share/psi4/basis/aug-cc-pvqz-jkfit.gbs 
    atoms 2 entry H          line    70 file /work/zw18965/.conda/envs/p4env/share/psi4/basis/aug-cc-pvqz-jkfit.gbs 

  ==> Pre-Iterations <==

   -------------------------------------------------------
    Irrep   Nso     Nmo     Nalpha   Nbeta   Ndocc  Nsocc
   -------------------------------------------------------
     A1        50      50       0       0       0       0
     A2        16      16       0       0       0       0
     B1        30      30       0       0       0       0
     B2        30      30       0       0       0       0
   -------------------------------------------------------
    Total     126     126       5       5       5       0
   -------------------------------------------------------

  ==> Integral Setup <==

  ==> DiskDFJK: Density-Fitted J/K Matrices <==

    J tasked:                  Yes
    K tasked:                  Yes
    wK tasked:                 Yes
    Omega:               3.000E-01
    OpenMP threads:             12
    Integrals threads:          12
    Memory [MiB]:           102607
    Algorithm:                Core
    Integral Cache:           NONE
    Schwarz Cutoff:          1E-12
    Fitting Condition:       1E-10

   => Auxiliary Basis Set <=

  Basis Set: (AUG-CC-PV(Q+D)Z AUX)
    Blend: AUG-CC-PVQZ-JKFIT
    Number of shells: 52
    Number of basis function: 218
    Number of Cartesian functions: 299
    Spherical Harmonics?: true
    Max angular momentum: 5

  Cached 100.0% of DFT collocation blocks in 0.380 [GiB].

  Minimum eigenvalue in the overlap matrix is 1.1850591798E-04.
  Using Symmetric Orthogonalization.

  SCF Guess: Superposition of Atomic Densities via on-the-fly atomic UHF.

  ==> Iterations <==

                           Total Energy        Delta E     RMS |[F,P]|

   @DF-RKS iter SAD:  -100.11570540193387   -1.00116e+02   0.00000e+00 
   @DF-RKS iter   1:  -100.41382815696923   -2.98123e-01   5.94294e-03 DIIS
   @DF-RKS iter   2:  -100.40941842080014    4.40974e-03   6.98067e-03 DIIS
   @DF-RKS iter   3:  -100.46590751037243   -5.64891e-02   2.45144e-04 DIIS
   @DF-RKS iter   4:  -100.46598631497940   -7.88046e-05   5.56135e-05 DIIS
   @DF-RKS iter   5:  -100.46599161079793   -5.29582e-06   5.73611e-06 DIIS
   @DF-RKS iter   6:  -100.46599170594068   -9.51428e-08   8.50535e-07 DIIS
   @DF-RKS iter   7:  -100.46599170907005   -3.12937e-09   1.19848e-07 DIIS
   @DF-RKS iter   8:  -100.46599170915229   -8.22382e-11   1.69015e-08 DIIS
   @DF-RKS iter   9:  -100.46599170915364   -1.35003e-12   1.72387e-09 DIIS
  Energy and wave function converged.


  ==> Post-Iterations <==

    Orbital Energies [Eh]
    ---------------------

    Doubly Occupied:                                                      

       1A1   -24.899048     2A1    -1.335017     3A1    -0.663348  
       1B1    -0.530206     1B2    -0.530206  

    Virtual:                                                              

       4A1     0.007959     5A1     0.091142     2B2     0.140211  
       2B1     0.140211     6A1     0.145536     3B2     0.195548  
       3B1     0.195548     7A1     0.213709     8A1     0.317596  
       9A1     0.501789     1A2     0.528373    10A1     0.528374  
       4B2     0.556476     4B1     0.556476    11A1     0.621648  
      12A1     0.702346     2A2     0.716335    13A1     0.716336  
       5B2     0.717896     5B1     0.717896     6B2     0.771124  
       6B1     0.771124    14A1     0.857351     7B2     1.159546  
       7B1     1.159546    15A1     1.338408    16A1     1.422596  
       8B1     1.430585     8B2     1.430585    17A1     1.567149  
       3A2     1.618607    18A1     1.618607     9B2     1.697704  
       9B1     1.697704     4A2     1.883547    19A1     1.883548  
      10B2     1.925917    10B1     1.925917    20A1     1.968623  
      11B2     1.973816    11B1     1.973816    21A1     2.018683  
       5A2     2.018685    22A1     2.059231    12B2     2.359331  
      12B1     2.359331    23A1     2.654079    13B2     2.657452  
      13B1     2.657452    24A1     2.934729    14B2     3.013067  
      14B1     3.013067     6A2     3.032189    25A1     3.032191  
      26A1     3.630937    15B2     4.352026    15B1     4.352026  
      27A1     4.359072     7A2     4.516854    28A1     4.516855  
      16B2     4.666836    16B1     4.666836    29A1     4.965000  
      30A1     5.038631     8A2     5.038633    17B1     5.170978  
      17B2     5.170978    18B2     5.288230    18B1     5.288230  
      31A1     5.349236     9A2     5.349245    32A1     5.485897  
      19B2     5.594881    19B1     5.594881    10A2     5.753708  
      33A1     5.753709    34A1     5.892933    20B1     6.161168  
      20B2     6.161168    35A1     6.454802    21B2     6.544717  
      21B1     6.544717    22B2     7.618894    22B1     7.618894  
      11A2     7.735283    36A1     7.735296    37A1     7.768304  
      38A1     8.378543    39A1     8.436302    12A2     8.436307  
      23B1     8.534804    23B2     8.534804    40A1    10.249126  
      24B1    10.471374    24B2    10.471374    41A1    11.953219  
      13A2    13.238184    42A1    13.238200    25B2    13.333052  
      25B1    13.333052    26B1    13.360752    26B2    13.360752  
      43A1    13.587859    14A2    13.587869    27B1    14.091616  
      27B2    14.091616    44A1    14.114009    45A1    14.625186  
      28B2    15.379213    28B1    15.379213    46A1    15.537032  
      15A2    15.537039    29B1    15.973822    29B2    15.973822  
      16A2    16.338632    47A1    16.338658    48A1    16.749402  
      30B1    17.388943    30B2    17.388943    49A1    19.635392  
      50A1    55.348468  

    Final Occupation by Irrep:
             A1    A2    B1    B2 
    DOCC [     3,    0,    1,    1 ]

  @DF-RKS Final Energy:  -100.46599170915364

   => Energetics <=

    Nuclear Repulsion Energy =              5.1380418851831129
    One-Electron Energy =                -150.3499293917575415
    Two-Electron Energy =                  52.6103018622899654
    DFT Exchange-Correlation Energy =      -7.9077882446980867
    Empirical Dispersion Energy =           0.0000000000000000
    VV10 Nonlocal Energy =                  0.0433821798289225
    Total Energy =                       -100.4659917091536414

Computation Completed


Properties will be evaluated at   0.000000,   0.000000,   0.000000 [a0]

Properties computed using the SCF density matrix

  Nuclear Dipole Moment: [e a0]
     X:     0.0000      Y:     0.0000      Z:    -0.8692

  Electronic Dipole Moment: [e a0]
     X:     0.0000      Y:     0.0000      Z:     0.1568

  Dipole Moment: [e a0]
     X:     0.0000      Y:     0.0000      Z:    -0.7124     Total:     0.7124

  Dipole Moment: [D]
     X:     0.0000      Y:     0.0000      Z:    -1.8107     Total:     1.8107


*** tstop() called on bp1-login01.data.bp.acrc.priv at Mon Apr 19 15:36:42 2021
Module time:
	user time   =      35.07 seconds =       0.58 minutes
	system time =       2.38 seconds =       0.04 minutes
	total time  =          3 seconds =       0.05 minutes
Total time:
	user time   =      35.07 seconds =       0.58 minutes
	system time =       2.38 seconds =       0.04 minutes
	total time  =          3 seconds =       0.05 minutes

  //>>>>>>>>>>>>>>>>>>>>>>>>>>>>>>>>>>>//
  //    Loading displacement 2 of 3    //
  //<<<<<<<<<<<<<<<<<<<<<<<<<<<<<<<<<<<//

*** tstart() called on bp1-login01.data.bp.acrc.priv
*** at Mon Apr 19 15:36:42 2021

   => Loading Basis Set <=

    Name: AUG-CC-PV(Q+D)Z
    Role: ORBITAL
    Keyword: BASIS
    atoms 1 entry F          line   499 file /work/zw18965/.conda/envs/p4env/share/psi4/basis/aug-cc-pv_qpd_z.gbs 
    atoms 2 entry H          line    56 file /work/zw18965/.conda/envs/p4env/share/psi4/basis/aug-cc-pv_qpd_z.gbs 


         ---------------------------------------------------------
                                   SCF
               by Justin Turney, Rob Parrish, Andy Simmonett
                          and Daniel G. A. Smith
                              RKS Reference
                       12 Threads, 137329 MiB Core
         ---------------------------------------------------------

  ==> Geometry <==

    Molecular point group: c2v
    Full point group: C_inf_v

    Geometry (in Angstrom), charge = 0, multiplicity = 1:

       Center              X                  Y                   Z               Mass       
    ------------   -----------------  -----------------  -----------------  -----------------
         F            0.000000000000     0.000000000000     0.046558275398    18.998403162730
         H            0.000000000000     0.000000000000    -0.877665128660     1.007825032230

  Running in c2v symmetry.

  Rotational constants: A = ************  B =     20.62080  C =     20.62080 [cm^-1]
  Rotational constants: A = ************  B = 618196.08868  C = 618196.08868 [MHz]
  Nuclear repulsion =    5.153077573147348

  Charge       = 0
  Multiplicity = 1
  Electrons    = 10
  Nalpha       = 5
  Nbeta        = 5

  ==> Algorithm <==

  SCF Algorithm Type is DF.
  DIIS enabled.
  MOM disabled.
  Fractional occupation disabled.
  Guess Type is SAD.
  Energy threshold   = 1.00e-08
  Density threshold  = 1.00e-08
  Integral threshold = 0.00e+00

  ==> Primary Basis <==

  Basis Set: AUG-CC-PV(Q+D)Z
    Blend: AUG-CC-PV(Q+D)Z
    Number of shells: 34
    Number of basis function: 126
    Number of Cartesian functions: 160
    Spherical Harmonics?: true
    Max angular momentum: 4

  ==> DFT Potential <==

   => Composite Functional: WB97M-V <= 

    wB97M-V Hyb-GGA Exchange-Correlation Functional

    N. Mardirossian and M. Head-Gordon, J. Chem. Phys. 144, 214110 (2016)

    Deriv               =              1
    GGA                 =           TRUE
    Meta                =           TRUE

    Exchange Hybrid     =           TRUE
    MP2 Hybrid          =          FALSE

   => Exchange-Correlation Functionals <=

    1.0000   wB97M-V exchange-correlation functional

   => Exact (HF) Exchange <=

    0.8500            HF,LR [omega = 0.3000]
    0.1500               HF 

   => VV10 Non-Local Parameters <=

    VV10 B              =     6.0000E+00
    VV10 C              =     1.0000E-02

   => Molecular Quadrature <=

    Radial Scheme          =       TREUTLER
    Pruning Scheme         =           FLAT
    Nuclear Scheme         =       TREUTLER

    BS radius alpha        =              1
    Pruning alpha          =              1
    Radial Points          =             75
    Spherical Points       =            302
    Total Points           =          45300
    Total Blocks           =            415
    Max Points             =            255
    Max Functions          =            126

   => Loading Basis Set <=

    Name: (AUG-CC-PV(Q+D)Z AUX)
    Role: JKFIT
    Keyword: DF_BASIS_SCF
    atoms 1 entry F          line   388 file /work/zw18965/.conda/envs/p4env/share/psi4/basis/aug-cc-pvqz-jkfit.gbs 
    atoms 2 entry H          line    70 file /work/zw18965/.conda/envs/p4env/share/psi4/basis/aug-cc-pvqz-jkfit.gbs 

  ==> Pre-Iterations <==

   -------------------------------------------------------
    Irrep   Nso     Nmo     Nalpha   Nbeta   Ndocc  Nsocc
   -------------------------------------------------------
     A1        50      50       0       0       0       0
     A2        16      16       0       0       0       0
     B1        30      30       0       0       0       0
     B2        30      30       0       0       0       0
   -------------------------------------------------------
    Total     126     126       5       5       5       0
   -------------------------------------------------------

  ==> Integral Setup <==

  ==> DiskDFJK: Density-Fitted J/K Matrices <==

    J tasked:                  Yes
    K tasked:                  Yes
    wK tasked:                 Yes
    Omega:               3.000E-01
    OpenMP threads:             12
    Integrals threads:          12
    Memory [MiB]:           102607
    Algorithm:                Core
    Integral Cache:           NONE
    Schwarz Cutoff:          1E-12
    Fitting Condition:       1E-10

   => Auxiliary Basis Set <=

  Basis Set: (AUG-CC-PV(Q+D)Z AUX)
    Blend: AUG-CC-PVQZ-JKFIT
    Number of shells: 52
    Number of basis function: 218
    Number of Cartesian functions: 299
    Spherical Harmonics?: true
    Max angular momentum: 5

  Cached 100.0% of DFT collocation blocks in 0.380 [GiB].

  Minimum eigenvalue in the overlap matrix is 1.1739432056E-04.
  Using Symmetric Orthogonalization.

  SCF Guess: Superposition of Atomic Densities via on-the-fly atomic UHF.

  ==> Iterations <==

                           Total Energy        Delta E     RMS |[F,P]|

   @DF-RKS iter SAD:  -100.11697467064984   -1.00117e+02   0.00000e+00 
   @DF-RKS iter   1:  -100.41392888477054   -2.96954e-01   5.94500e-03 DIIS
   @DF-RKS iter   2:  -100.40969750143634    4.23138e-03   6.96881e-03 DIIS
   @DF-RKS iter   3:  -100.46593868024564   -5.62412e-02   2.43794e-04 DIIS
   @DF-RKS iter   4:  -100.46601671739072   -7.80371e-05   5.51648e-05 DIIS
   @DF-RKS iter   5:  -100.46602192181622   -5.20443e-06   5.69167e-06 DIIS
   @DF-RKS iter   6:  -100.46602201486816   -9.30519e-08   8.38060e-07 DIIS
   @DF-RKS iter   7:  -100.46602201787977   -3.01161e-09   1.17394e-07 DIIS
   @DF-RKS iter   8:  -100.46602201795788   -7.81171e-11   1.65626e-08 DIIS
   @DF-RKS iter   9:  -100.46602201795893   -1.05160e-12   1.69835e-09 DIIS
  Energy and wave function converged.


  ==> Post-Iterations <==

    Orbital Energies [Eh]
    ---------------------

    Doubly Occupied:                                                      

       1A1   -24.898995     2A1    -1.335872     3A1    -0.664036  
       1B2    -0.530449     1B1    -0.530449  

    Virtual:                                                              

       4A1     0.008071     5A1     0.091234     2B2     0.140181  
       2B1     0.140181     6A1     0.145855     3B1     0.195609  
       3B2     0.195609     7A1     0.213710     8A1     0.318010  
       9A1     0.502766     1A2     0.528418    10A1     0.528419  
       4B1     0.556545     4B2     0.556545    11A1     0.621855  
      12A1     0.702394     2A2     0.716222    13A1     0.716223  
       5B2     0.717813     5B1     0.717813     6B2     0.771200  
       6B1     0.771200    14A1     0.856875     7B1     1.160115  
       7B2     1.160115    15A1     1.340290    16A1     1.423459  
       8B1     1.430658     8B2     1.430658    17A1     1.566663  
       3A2     1.618902    18A1     1.618902     9B1     1.697383  
       9B2     1.697383     4A2     1.882752    19A1     1.882753  
      10B1     1.926450    10B2     1.926450    20A1     1.969331  
      11B1     1.974537    11B2     1.974537    21A1     2.018945  
       5A2     2.018946    22A1     2.057704    12B1     2.359214  
      12B2     2.359214    23A1     2.656398    13B1     2.656638  
      13B2     2.656638    24A1     2.937092    14B1     3.016431  
      14B2     3.016431     6A2     3.036472    25A1     3.036474  
      26A1     3.630216    15B1     4.356103    15B2     4.356103  
      27A1     4.362655     7A2     4.516659    28A1     4.516660  
      16B2     4.667605    16B1     4.667605    29A1     4.964330  
      30A1     5.040796     8A2     5.040798    17B1     5.171184  
      17B2     5.171184    18B1     5.288452    18B2     5.288452  
      31A1     5.348379     9A2     5.348388    32A1     5.485105  
      19B1     5.596572    19B2     5.596572    10A2     5.755656  
      33A1     5.755657    34A1     5.890095    20B1     6.160588  
      20B2     6.160588    35A1     6.464277    21B2     6.548228  
      21B1     6.548228    22B1     7.620804    22B2     7.620804  
      11A2     7.740388    36A1     7.740400    37A1     7.775895  
      38A1     8.390082    39A1     8.444711    12A2     8.444716  
      23B2     8.538929    23B1     8.538929    40A1    10.264524  
      24B1    10.489807    24B2    10.489807    41A1    11.948394  
      13A2    13.237973    42A1    13.237989    25B1    13.333316  
      25B2    13.333316    26B1    13.361796    26B2    13.361796  
      43A1    13.590556    14A2    13.590566    27B1    14.097475  
      27B2    14.097475    44A1    14.116282    45A1    14.633400  
      28B1    15.379453    28B2    15.379453    46A1    15.536773  
      15A2    15.536780    29B1    15.972896    29B2    15.972896  
      16A2    16.340219    47A1    16.340244    48A1    16.763586  
      30B2    17.410186    30B1    17.410186    49A1    19.661245  
      50A1    55.368832  

    Final Occupation by Irrep:
             A1    A2    B1    B2 
    DOCC [     3,    0,    1,    1 ]

  @DF-RKS Final Energy:  -100.46602201795893

   => Energetics <=

    Nuclear Repulsion Energy =              5.1530775731473479
    One-Electron Energy =                -150.3754544155630697
    Two-Electron Energy =                  52.6218643817708340
    DFT Exchange-Correlation Energy =      -7.9088929854936767
    Empirical Dispersion Energy =           0.0000000000000000
    VV10 Nonlocal Energy =                  0.0433834281796280
    Total Energy =                       -100.4660220179589345

Computation Completed


Properties will be evaluated at   0.000000,   0.000000,   0.000000 [a0]

Properties computed using the SCF density matrix

  Nuclear Dipole Moment: [e a0]
     X:     0.0000      Y:     0.0000      Z:    -0.8667

  Electronic Dipole Moment: [e a0]
     X:     0.0000      Y:     0.0000      Z:     0.1560

  Dipole Moment: [e a0]
     X:     0.0000      Y:     0.0000      Z:    -0.7107     Total:     0.7107

  Dipole Moment: [D]
     X:     0.0000      Y:     0.0000      Z:    -1.8064     Total:     1.8064


*** tstop() called on bp1-login01.data.bp.acrc.priv at Mon Apr 19 15:36:45 2021
Module time:
	user time   =      36.69 seconds =       0.61 minutes
	system time =       1.59 seconds =       0.03 minutes
	total time  =          3 seconds =       0.05 minutes
Total time:
	user time   =      71.88 seconds =       1.20 minutes
	system time =       3.97 seconds =       0.07 minutes
	total time  =          6 seconds =       0.10 minutes

  //>>>>>>>>>>>>>>>>>>>>>>>>>>>>>>>>>>>//
  //    Loading displacement 3 of 3    //
  //<<<<<<<<<<<<<<<<<<<<<<<<<<<<<<<<<<<//

*** tstart() called on bp1-login01.data.bp.acrc.priv
*** at Mon Apr 19 15:36:45 2021

   => Loading Basis Set <=

    Name: AUG-CC-PV(Q+D)Z
    Role: ORBITAL
    Keyword: BASIS
    atoms 1 entry F          line   499 file /work/zw18965/.conda/envs/p4env/share/psi4/basis/aug-cc-pv_qpd_z.gbs 
    atoms 2 entry H          line    56 file /work/zw18965/.conda/envs/p4env/share/psi4/basis/aug-cc-pv_qpd_z.gbs 


         ---------------------------------------------------------
                                   SCF
               by Justin Turney, Rob Parrish, Andy Simmonett
                          and Daniel G. A. Smith
                              RKS Reference
                       12 Threads, 137329 MiB Core
         ---------------------------------------------------------

  ==> Geometry <==

    Molecular point group: c2v
    Full point group: C_inf_v

    Geometry (in Angstrom), charge = 0, multiplicity = 1:

       Center              X                  Y                   Z               Mass       
    ------------   -----------------  -----------------  -----------------  -----------------
         F            0.000000000000     0.000000000000     0.046830766638    18.998403162730
         H            0.000000000000     0.000000000000    -0.882801832216     1.007825032230

  Running in c2v symmetry.

  Rotational constants: A = ************  B =     20.38153  C =     20.38153 [cm^-1]
  Rotational constants: A = ************  B = 611022.90117  C = 611022.90117 [MHz]
  Nuclear repulsion =    5.123093684431766

  Charge       = 0
  Multiplicity = 1
  Electrons    = 10
  Nalpha       = 5
  Nbeta        = 5

  ==> Algorithm <==

  SCF Algorithm Type is DF.
  DIIS enabled.
  MOM disabled.
  Fractional occupation disabled.
  Guess Type is SAD.
  Energy threshold   = 1.00e-08
  Density threshold  = 1.00e-08
  Integral threshold = 0.00e+00

  ==> Primary Basis <==

  Basis Set: AUG-CC-PV(Q+D)Z
    Blend: AUG-CC-PV(Q+D)Z
    Number of shells: 34
    Number of basis function: 126
    Number of Cartesian functions: 160
    Spherical Harmonics?: true
    Max angular momentum: 4

  ==> DFT Potential <==

   => Composite Functional: WB97M-V <= 

    wB97M-V Hyb-GGA Exchange-Correlation Functional

    N. Mardirossian and M. Head-Gordon, J. Chem. Phys. 144, 214110 (2016)

    Deriv               =              1
    GGA                 =           TRUE
    Meta                =           TRUE

    Exchange Hybrid     =           TRUE
    MP2 Hybrid          =          FALSE

   => Exchange-Correlation Functionals <=

    1.0000   wB97M-V exchange-correlation functional

   => Exact (HF) Exchange <=

    0.8500            HF,LR [omega = 0.3000]
    0.1500               HF 

   => VV10 Non-Local Parameters <=

    VV10 B              =     6.0000E+00
    VV10 C              =     1.0000E-02

   => Molecular Quadrature <=

    Radial Scheme          =       TREUTLER
    Pruning Scheme         =           FLAT
    Nuclear Scheme         =       TREUTLER

    BS radius alpha        =              1
    Pruning alpha          =              1
    Radial Points          =             75
    Spherical Points       =            302
    Total Points           =          45300
    Total Blocks           =            415
    Max Points             =            255
    Max Functions          =            126

   => Loading Basis Set <=

    Name: (AUG-CC-PV(Q+D)Z AUX)
    Role: JKFIT
    Keyword: DF_BASIS_SCF
    atoms 1 entry F          line   388 file /work/zw18965/.conda/envs/p4env/share/psi4/basis/aug-cc-pvqz-jkfit.gbs 
    atoms 2 entry H          line    70 file /work/zw18965/.conda/envs/p4env/share/psi4/basis/aug-cc-pvqz-jkfit.gbs 

  ==> Pre-Iterations <==

   -------------------------------------------------------
    Irrep   Nso     Nmo     Nalpha   Nbeta   Ndocc  Nsocc
   -------------------------------------------------------
     A1        50      50       0       0       0       0
     A2        16      16       0       0       0       0
     B1        30      30       0       0       0       0
     B2        30      30       0       0       0       0
   -------------------------------------------------------
    Total     126     126       5       5       5       0
   -------------------------------------------------------

  ==> Integral Setup <==

  ==> DiskDFJK: Density-Fitted J/K Matrices <==

    J tasked:                  Yes
    K tasked:                  Yes
    wK tasked:                 Yes
    Omega:               3.000E-01
    OpenMP threads:             12
    Integrals threads:          12
    Memory [MiB]:           102607
    Algorithm:                Core
    Integral Cache:           NONE
    Schwarz Cutoff:          1E-12
    Fitting Condition:       1E-10

   => Auxiliary Basis Set <=

  Basis Set: (AUG-CC-PV(Q+D)Z AUX)
    Blend: AUG-CC-PVQZ-JKFIT
    Number of shells: 52
    Number of basis function: 218
    Number of Cartesian functions: 299
    Spherical Harmonics?: true
    Max angular momentum: 5

  Cached 100.0% of DFT collocation blocks in 0.380 [GiB].

  Minimum eigenvalue in the overlap matrix is 1.1962466136E-04.
  Using Symmetric Orthogonalization.

  SCF Guess: Superposition of Atomic Densities via on-the-fly atomic UHF.

  ==> Iterations <==

                           Total Energy        Delta E     RMS |[F,P]|

   @DF-RKS iter SAD:  -100.11442867892112   -1.00114e+02   0.00000e+00 
   @DF-RKS iter   1:  -100.41370942709462   -2.99281e-01   5.94104e-03 DIIS
   @DF-RKS iter   2:  -100.40911945308657    4.58997e-03   6.99276e-03 DIIS
   @DF-RKS iter   3:  -100.46586107941727   -5.67416e-02   2.46497e-04 DIIS
   @DF-RKS iter   4:  -100.46594066238747   -7.95830e-05   5.60648e-05 DIIS
   @DF-RKS iter   5:  -100.46594605098626   -5.38860e-06   5.78155e-06 DIIS
   @DF-RKS iter   6:  -100.46594614829225   -9.73060e-08   8.63227e-07 DIIS
   @DF-RKS iter   7:  -100.46594615154430   -3.25205e-09   1.22327e-07 DIIS
   @DF-RKS iter   8:  -100.46594615163048   -8.61746e-11   1.72377e-08 DIIS
   @DF-RKS iter   9:  -100.46594615163171   -1.23634e-12   1.74907e-09 DIIS
  Energy and wave function converged.


  ==> Post-Iterations <==

    Orbital Energies [Eh]
    ---------------------

    Doubly Occupied:                                                      

       1A1   -24.899099     2A1    -1.334168     3A1    -0.662662  
       1B2    -0.529964     1B1    -0.529964  

    Virtual:                                                              

       4A1     0.007846     5A1     0.091048     2B2     0.140240  
       2B1     0.140240     6A1     0.145216     3B1     0.195488  
       3B2     0.195488     7A1     0.213708     8A1     0.317182  
       9A1     0.500816     1A2     0.528328    10A1     0.528328  
       4B1     0.556411     4B2     0.556411    11A1     0.621450  
      12A1     0.702299     2A2     0.716447    13A1     0.716448  
       5B1     0.717971     5B2     0.717971     6B1     0.771047  
       6B2     0.771047    14A1     0.857829     7B1     1.158980  
       7B2     1.158980    15A1     1.336525    16A1     1.421725  
       8B1     1.430510     8B2     1.430510    17A1     1.567661  
       3A2     1.618311    18A1     1.618311     9B1     1.698016  
       9B2     1.698016     4A2     1.884342    19A1     1.884343  
      10B1     1.925391    10B2     1.925391    20A1     1.967899  
      11B1     1.973096    11B2     1.973096    21A1     2.018427  
       5A2     2.018428    22A1     2.060762    12B1     2.359377  
      12B2     2.359377    23A1     2.651760    13B2     2.658364  
      13B1     2.658364    24A1     2.932384    14B1     3.009707  
      14B2     3.009707     6A2     3.027909    25A1     3.027911  
      26A1     3.631580    15B2     4.347908    15B1     4.347908  
      27A1     4.355661     7A2     4.517049    28A1     4.517050  
      16B2     4.666069    16B1     4.666069    29A1     4.965613  
      30A1     5.036456     8A2     5.036459    17B1     5.170732  
      17B2     5.170732    18B2     5.288011    18B1     5.288011  
      31A1     5.350088     9A2     5.350097    32A1     5.486552  
      19B2     5.593165    19B1     5.593165    10A2     5.751766  
      33A1     5.751767    34A1     5.895874    20B2     6.161850  
      20B1     6.161850    35A1     6.445444    21B1     6.541232  
      21B2     6.541232    22B2     7.616977    22B1     7.616977  
      11A2     7.730055    36A1     7.730068    37A1     7.760543  
      38A1     8.367271    39A1     8.428080    12A2     8.428085  
      23B2     8.530780    23B1     8.530780    40A1    10.233903  
      24B2    10.452957    24B1    10.452957    41A1    11.957300  
      13A2    13.238395    42A1    13.238411    25B2    13.332786  
      25B1    13.332786    26B2    13.359589    26B1    13.359589  
      43A1    13.585231    14A2    13.585240    27B2    14.085678  
      27B1    14.085678    44A1    14.111894    45A1    14.617074  
      28B2    15.378975    28B1    15.378975    46A1    15.537267  
      15A2    15.537273    29B2    15.974896    29B1    15.974896  
      16A2    16.337062    47A1    16.337089    48A1    16.735615  
      30B1    17.367920    30B2    17.367920    49A1    19.609383  
      50A1    55.328233  

    Final Occupation by Irrep:
             A1    A2    B1    B2 
    DOCC [     3,    0,    1,    1 ]

  @DF-RKS Final Energy:  -100.46594615163171

   => Energetics <=

    Nuclear Repulsion Energy =              5.1230936844317663
    One-Electron Energy =                -150.3245306935168344
    Two-Electron Energy =                  52.5988006570543476
    DFT Exchange-Correlation Energy =      -7.9066907400689965
    Empirical Dispersion Energy =           0.0000000000000000
    VV10 Nonlocal Energy =                  0.0433809404679919
    Total Energy =                       -100.4659461516317123

Computation Completed


Properties will be evaluated at   0.000000,   0.000000,   0.000000 [a0]

Properties computed using the SCF density matrix

  Nuclear Dipole Moment: [e a0]
     X:     0.0000      Y:     0.0000      Z:    -0.8718

  Electronic Dipole Moment: [e a0]
     X:     0.0000      Y:     0.0000      Z:     0.1577

  Dipole Moment: [e a0]
     X:     0.0000      Y:     0.0000      Z:    -0.7141     Total:     0.7141

  Dipole Moment: [D]
     X:     0.0000      Y:     0.0000      Z:    -1.8151     Total:     1.8151


*** tstop() called on bp1-login01.data.bp.acrc.priv at Mon Apr 19 15:36:48 2021
Module time:
	user time   =      36.29 seconds =       0.60 minutes
	system time =       1.47 seconds =       0.02 minutes
	total time  =          3 seconds =       0.05 minutes
Total time:
	user time   =     108.27 seconds =       1.80 minutes
	system time =       5.44 seconds =       0.09 minutes
	total time  =          9 seconds =       0.15 minutes

         ----------------------------------------------------------
                                   FINDIF
                     R. A. King and Jonathon Misiewicz
         ---------------------------------------------------------

  Computing gradient from energies.
    Using 3-point formula.
    Energy without displacement: -100.4659917092
    Check energies below for precision!
    Forces are for mass-weighted, symmetry-adapted cartesians (in au).

     Coord      Energy(-1)        Energy(+1)            Force
        0   -100.4660220180   -100.4659461516      0.0075866327


-------------------------------------------------------------
  ## New Matrix (Symmetry 0) ##
  Irrep: 1 Size: 2 x 3

                 1                   2                   3

    1     0.00000000000000     0.00000000000000     0.00742194225567
    2     0.00000000000000     0.00000000000000    -0.00742194225567




			-----------------------------------------
			 OPTKING 2.0: for geometry optimizations 
			  - R.A. King,  Bethel University        
			-----------------------------------------

	Internal coordinates to be generated automatically.
	Detected frag 1 with atoms:  1 2
	---Fragment 1 Bond Connectivity---
	 1 : 2
	 2 : 1

	---Fragment 1 Geometry and Gradient---
	 F           0.0000000000        0.0000000000        0.0882398563
	 H           0.0000000000        0.0000000000       -1.6634002045
	             0.0000000000        0.0000000000        0.0074219423
	             0.0000000000        0.0000000000       -0.0074219423

	Previous optimization step data not found.  Starting new optimization.

	---Fragment 1 Intrafragment Coordinates---
	 - Coordinate -           - BOHR/RAD -       - ANG/DEG -
	 R(1,2)           =         1.751640	       0.926928

	Current energy   :      -100.4659917092

	Generating empirical Hessian (Schlegel '84) for each fragment.
	Taking RFO optimization step.
	Going to follow RFO solution 1.
	Using RFO vector 1.
	Norm of target step-size    0.01173
	Projected energy change by RFO approximation:        -0.0000182418

	Back-transformation to cartesian coordinates...
	Successfully converged to displaced geometry.

	--- Internal Coordinate Step in ANG or DEG, aJ/ANG or AJ/DEG ---
	 ---------------------------------------------------------------------------
	   Coordinate                Previous        Force       Change         New 
	   ----------                --------       ------       ------       ------
	    1 R(1,2)          =      0.926928    -0.061147    -0.006210     0.920718
	 ---------------------------------------------------------------------------
	Successfully symmetrized geometry.

  ==> Convergence Check <==

  Measures of convergence in internal coordinates in au.
  Criteria marked as inactive (o), active & met (*), and active & unmet ( ).
  --------------------------------------------------------------------------------------------- ~
   Step     Total Energy     Delta E     MAX Force     RMS Force      MAX Disp      RMS Disp    ~
  --------------------------------------------------------------------------------------------- ~
    Convergence Criteria    1.00e-06 *    3.00e-04 *             o    1.20e-03 *             o  ~
  --------------------------------------------------------------------------------------------- ~
      1    -100.46599171   -1.00e+02      7.42e-03      7.42e-03 o    1.17e-02      1.17e-02 o  ~
  ---------------------------------------------------------------------------------------------

	Writing optimization data to binary file.
	Structure for next step:
	Cartesian Geometry (in Angstrom)
	    F     0.0000000000   0.0000000000   0.0435897546
	    H     0.0000000000   0.0000000000  -0.8771287108
			--------------------------
			 OPTKING Finished Execution 
			--------------------------

    Structure for next step:
    Molecular point group: c2v
    Full point group: C_inf_v

    Geometry (in Angstrom), charge = 0, multiplicity = 1:

    F            0.000000000000     0.000000000000     0.046381712318
    H            0.000000000000     0.000000000000    -0.874336756699

gradient() will perform gradient computation by finite difference of analytic energies.

         ----------------------------------------------------------
                                   FINDIF
                     R. A. King and Jonathon Misiewicz
         ---------------------------------------------------------

  Using finite-differences of energies to determine gradients.
    Generating geometries for use with 3-point formula.
    Displacement size will be 5.00e-03.
    Number of atoms is 2.
    Number of symmetric SALCs is 1.
    Translations projected? 1. Rotations projected? 1.
    Number of geometries (including reference) is 3.

  //>>>>>>>>>>>>>>>>>>>>>>>>>>>>>>>>>>>//
  //    Loading displacement 1 of 3    //
  //<<<<<<<<<<<<<<<<<<<<<<<<<<<<<<<<<<<//

*** tstart() called on bp1-login01.data.bp.acrc.priv
*** at Mon Apr 19 15:36:48 2021

   => Loading Basis Set <=

    Name: AUG-CC-PV(Q+D)Z
    Role: ORBITAL
    Keyword: BASIS
    atoms 1 entry F          line   499 file /work/zw18965/.conda/envs/p4env/share/psi4/basis/aug-cc-pv_qpd_z.gbs 
    atoms 2 entry H          line    56 file /work/zw18965/.conda/envs/p4env/share/psi4/basis/aug-cc-pv_qpd_z.gbs 


         ---------------------------------------------------------
                                   SCF
               by Justin Turney, Rob Parrish, Andy Simmonett
                          and Daniel G. A. Smith
                              RKS Reference
                       12 Threads, 137329 MiB Core
         ---------------------------------------------------------

  ==> Geometry <==

    Molecular point group: c2v
    Full point group: C_inf_v

    Geometry (in Angstrom), charge = 0, multiplicity = 1:

       Center              X                  Y                   Z               Mass       
    ------------   -----------------  -----------------  -----------------  -----------------
         F            0.000000000000     0.000000000000     0.046381712318    18.998403162730
         H            0.000000000000     0.000000000000    -0.874336756699     1.007825032230

  Running in c2v symmetry.

  Rotational constants: A = ************  B =     20.77810  C =     20.77810 [cm^-1]
  Rotational constants: A = ************  B = 622911.66962  C = 622911.66962 [MHz]
  Nuclear repulsion =    5.172693995279186

  Charge       = 0
  Multiplicity = 1
  Electrons    = 10
  Nalpha       = 5
  Nbeta        = 5

  ==> Algorithm <==

  SCF Algorithm Type is DF.
  DIIS enabled.
  MOM disabled.
  Fractional occupation disabled.
  Guess Type is READ.
  Energy threshold   = 1.00e-08
  Density threshold  = 1.00e-08
  Integral threshold = 0.00e+00

  ==> Primary Basis <==

  Basis Set: AUG-CC-PV(Q+D)Z
    Blend: AUG-CC-PV(Q+D)Z
    Number of shells: 34
    Number of basis function: 126
    Number of Cartesian functions: 160
    Spherical Harmonics?: true
    Max angular momentum: 4

  ==> DFT Potential <==

   => Composite Functional: WB97M-V <= 

    wB97M-V Hyb-GGA Exchange-Correlation Functional

    N. Mardirossian and M. Head-Gordon, J. Chem. Phys. 144, 214110 (2016)

    Deriv               =              1
    GGA                 =           TRUE
    Meta                =           TRUE

    Exchange Hybrid     =           TRUE
    MP2 Hybrid          =          FALSE

   => Exchange-Correlation Functionals <=

    1.0000   wB97M-V exchange-correlation functional

   => Exact (HF) Exchange <=

    0.8500            HF,LR [omega = 0.3000]
    0.1500               HF 

   => VV10 Non-Local Parameters <=

    VV10 B              =     6.0000E+00
    VV10 C              =     1.0000E-02

   => Molecular Quadrature <=

    Radial Scheme          =       TREUTLER
    Pruning Scheme         =           FLAT
    Nuclear Scheme         =       TREUTLER

    BS radius alpha        =              1
    Pruning alpha          =              1
    Radial Points          =             75
    Spherical Points       =            302
    Total Points           =          45300
    Total Blocks           =            417
    Max Points             =            255
    Max Functions          =            126

   => Loading Basis Set <=

    Name: (AUG-CC-PV(Q+D)Z AUX)
    Role: JKFIT
    Keyword: DF_BASIS_SCF
    atoms 1 entry F          line   388 file /work/zw18965/.conda/envs/p4env/share/psi4/basis/aug-cc-pvqz-jkfit.gbs 
    atoms 2 entry H          line    70 file /work/zw18965/.conda/envs/p4env/share/psi4/basis/aug-cc-pvqz-jkfit.gbs 

   => Loading Basis Set <=

    Name: AUG-CC-PV(Q+D)Z
    Role: ORBITAL
    Keyword: BASIS
    atoms 1 entry F          line   499 file /work/zw18965/.conda/envs/p4env/share/psi4/basis/aug-cc-pv_qpd_z.gbs 
    atoms 2 entry H          line    56 file /work/zw18965/.conda/envs/p4env/share/psi4/basis/aug-cc-pv_qpd_z.gbs 

  Reading orbitals from file 180, no projection.

  ==> Pre-Iterations <==

   -------------------------------------------------------
    Irrep   Nso     Nmo     Nalpha   Nbeta   Ndocc  Nsocc
   -------------------------------------------------------
     A1        50      50       0       0       0       0
     A2        16      16       0       0       0       0
     B1        30      30       0       0       0       0
     B2        30      30       0       0       0       0
   -------------------------------------------------------
    Total     126     126       5       5       5       0
   -------------------------------------------------------

  ==> Integral Setup <==

  ==> DiskDFJK: Density-Fitted J/K Matrices <==

    J tasked:                  Yes
    K tasked:                  Yes
    wK tasked:                 Yes
    Omega:               3.000E-01
    OpenMP threads:             12
    Integrals threads:          12
    Memory [MiB]:           102608
    Algorithm:                Core
    Integral Cache:           NONE
    Schwarz Cutoff:          1E-12
    Fitting Condition:       1E-10

   => Auxiliary Basis Set <=

  Basis Set: (AUG-CC-PV(Q+D)Z AUX)
    Blend: AUG-CC-PVQZ-JKFIT
    Number of shells: 52
    Number of basis function: 218
    Number of Cartesian functions: 299
    Spherical Harmonics?: true
    Max angular momentum: 5

  Cached 100.0% of DFT collocation blocks in 0.380 [GiB].

  Minimum eigenvalue in the overlap matrix is 1.1596444329E-04.
  Using Symmetric Orthogonalization.

  SCF Guess: Orbitals guess was supplied from a previous computation.

  ==> Iterations <==

                           Total Energy        Delta E     RMS |[F,P]|

   @DF-RKS iter   0:  -100.46828170350611   -1.00468e+02   2.27257e-04 
   @DF-RKS iter   1:  -100.46603664793061    2.24506e-03   3.41924e-05 DIIS
   @DF-RKS iter   2:  -100.46603798038885   -1.33246e-06   1.17419e-05 DIIS
   @DF-RKS iter   3:  -100.46603810631373   -1.25925e-07   3.03809e-06 DIIS
   @DF-RKS iter   4:  -100.46603811764652   -1.13328e-08   9.60978e-07 DIIS
   @DF-RKS iter   5:  -100.46603811984247   -2.19595e-09   1.03002e-07 DIIS
   @DF-RKS iter   6:  -100.46603811988621   -4.37410e-11   8.40754e-09 DIIS
  Energy and wave function converged.


  ==> Post-Iterations <==

    Orbital Energies [Eh]
    ---------------------

    Doubly Occupied:                                                      

       1A1   -24.898925     2A1    -1.336989     3A1    -0.664927  
       1B2    -0.530765     1B1    -0.530765  

    Virtual:                                                              

       4A1     0.008214     5A1     0.091350     2B2     0.140141  
       2B1     0.140141     6A1     0.146264     3B1     0.195690  
       3B2     0.195690     7A1     0.213711     8A1     0.318544  
       9A1     0.504036     1A2     0.528476    10A1     0.528476  
       4B1     0.556639     4B2     0.556639    11A1     0.622135  
      12A1     0.702453     2A2     0.716073    13A1     0.716074  
       5B2     0.717694     5B1     0.717694     6B1     0.771295  
       6B2     0.771295    14A1     0.856264     7B2     1.160859  
       7B1     1.160859    15A1     1.342729    16A1     1.424566  
       8B1     1.430753     8B2     1.430753    17A1     1.566073  
       3A2     1.619286    18A1     1.619286     9B2     1.696953  
       9B1     1.696953     4A2     1.881723    19A1     1.881723  
      10B2     1.927153    10B1     1.927153    20A1     1.970223  
      11B2     1.975475    11B1     1.975475    21A1     2.019290  
       5A2     2.019292    22A1     2.055733    12B2     2.358952  
      12B1     2.358952    13B2     2.655730    13B1     2.655730  
      23A1     2.659402    24A1     2.940180    14B2     3.020795  
      14B1     3.020795     6A2     3.042027    25A1     3.042029  
      26A1     3.629170    15B2     4.361322    15B1     4.361322  
      27A1     4.367548     7A2     4.516406    28A1     4.516407  
      16B1     4.668607    16B2     4.668607    29A1     4.963375  
      30A1     5.043586     8A2     5.043588    17B1     5.171394  
      17B2     5.171394    18B2     5.288746    18B1     5.288746  
      31A1     5.347263     9A2     5.347272    32A1     5.483871  
      19B2     5.598729    19B1     5.598729    10A2     5.758188  
      33A1     5.758189    34A1     5.886591    20B2     6.159997  
      20B1     6.159997    35A1     6.476722    21B2     6.552817  
      21B1     6.552817    22B2     7.623270    22B1     7.623270  
      11A2     7.746816    36A1     7.746827    37A1     7.785467  
      38A1     8.405435    39A1     8.455891    12A2     8.455896  
      23B2     8.544427    23B1     8.544427    40A1    10.284738  
      24B2    10.513714    24B1    10.513714    41A1    11.941032  
      13A2    13.237698    42A1    13.237714    25B1    13.333658  
      25B2    13.333658    26B2    13.362971    26B1    13.362971  
      43A1    13.594155    14A2    13.594165    27B2    14.104946  
      27B1    14.104946    44A1    14.119483    45A1    14.644193  
      28B2    15.379766    28B1    15.379766    46A1    15.536402  
      15A2    15.536409    29B2    15.971926    29B1    15.971926  
      16A2    16.342302    47A1    16.342327    48A1    16.782561  
      30B2    17.438037    30B1    17.438037    49A1    19.694497  
      50A1    55.395411  

    Final Occupation by Irrep:
             A1    A2    B1    B2 
    DOCC [     3,    0,    1,    1 ]

  @DF-RKS Final Energy:  -100.46603811988621

   => Energetics <=

    Nuclear Repulsion Energy =              5.1726939952791859
    One-Electron Energy =                -150.4087228490260486
    Two-Electron Energy =                  52.6369412825232885
    DFT Exchange-Correlation Energy =      -7.9103356083265330
    Empirical Dispersion Energy =           0.0000000000000000
    VV10 Nonlocal Energy =                  0.0433850596639082
    Total Energy =                       -100.4660381198862069

Computation Completed


Properties will be evaluated at   0.000000,   0.000000,   0.000000 [a0]

Properties computed using the SCF density matrix

  Nuclear Dipole Moment: [e a0]
     X:     0.0000      Y:     0.0000      Z:    -0.8634

  Electronic Dipole Moment: [e a0]
     X:     0.0000      Y:     0.0000      Z:     0.1550

  Dipole Moment: [e a0]
     X:     0.0000      Y:     0.0000      Z:    -0.7085     Total:     0.7085

  Dipole Moment: [D]
     X:     0.0000      Y:     0.0000      Z:    -1.8007     Total:     1.8007


*** tstop() called on bp1-login01.data.bp.acrc.priv at Mon Apr 19 15:36:51 2021
Module time:
	user time   =      24.28 seconds =       0.40 minutes
	system time =       0.68 seconds =       0.01 minutes
	total time  =          3 seconds =       0.05 minutes
Total time:
	user time   =     132.87 seconds =       2.21 minutes
	system time =       6.13 seconds =       0.10 minutes
	total time  =         12 seconds =       0.20 minutes

  //>>>>>>>>>>>>>>>>>>>>>>>>>>>>>>>>>>>//
  //    Loading displacement 2 of 3    //
  //<<<<<<<<<<<<<<<<<<<<<<<<<<<<<<<<<<<//

*** tstart() called on bp1-login01.data.bp.acrc.priv
*** at Mon Apr 19 15:36:51 2021

   => Loading Basis Set <=

    Name: AUG-CC-PV(Q+D)Z
    Role: ORBITAL
    Keyword: BASIS
    atoms 1 entry F          line   499 file /work/zw18965/.conda/envs/p4env/share/psi4/basis/aug-cc-pv_qpd_z.gbs 
    atoms 2 entry H          line    56 file /work/zw18965/.conda/envs/p4env/share/psi4/basis/aug-cc-pv_qpd_z.gbs 


         ---------------------------------------------------------
                                   SCF
               by Justin Turney, Rob Parrish, Andy Simmonett
                          and Daniel G. A. Smith
                              RKS Reference
                       12 Threads, 137329 MiB Core
         ---------------------------------------------------------

  ==> Geometry <==

    Molecular point group: c2v
    Full point group: C_inf_v

    Geometry (in Angstrom), charge = 0, multiplicity = 1:

       Center              X                  Y                   Z               Mass       
    ------------   -----------------  -----------------  -----------------  -----------------
         F            0.000000000000     0.000000000000     0.046245466699    18.998403162730
         H            0.000000000000     0.000000000000    -0.871768404921     1.007825032230

  Running in c2v symmetry.

  Rotational constants: A = ************  B =     20.90071  C =     20.90071 [cm^-1]
  Rotational constants: A = ************  B = 626587.44632  C = 626587.44632 [MHz]
  Nuclear repulsion =    5.187933476023386

  Charge       = 0
  Multiplicity = 1
  Electrons    = 10
  Nalpha       = 5
  Nbeta        = 5

  ==> Algorithm <==

  SCF Algorithm Type is DF.
  DIIS enabled.
  MOM disabled.
  Fractional occupation disabled.
  Guess Type is READ.
  Energy threshold   = 1.00e-08
  Density threshold  = 1.00e-08
  Integral threshold = 0.00e+00

  ==> Primary Basis <==

  Basis Set: AUG-CC-PV(Q+D)Z
    Blend: AUG-CC-PV(Q+D)Z
    Number of shells: 34
    Number of basis function: 126
    Number of Cartesian functions: 160
    Spherical Harmonics?: true
    Max angular momentum: 4

  ==> DFT Potential <==

   => Composite Functional: WB97M-V <= 

    wB97M-V Hyb-GGA Exchange-Correlation Functional

    N. Mardirossian and M. Head-Gordon, J. Chem. Phys. 144, 214110 (2016)

    Deriv               =              1
    GGA                 =           TRUE
    Meta                =           TRUE

    Exchange Hybrid     =           TRUE
    MP2 Hybrid          =          FALSE

   => Exchange-Correlation Functionals <=

    1.0000   wB97M-V exchange-correlation functional

   => Exact (HF) Exchange <=

    0.8500            HF,LR [omega = 0.3000]
    0.1500               HF 

   => VV10 Non-Local Parameters <=

    VV10 B              =     6.0000E+00
    VV10 C              =     1.0000E-02

   => Molecular Quadrature <=

    Radial Scheme          =       TREUTLER
    Pruning Scheme         =           FLAT
    Nuclear Scheme         =       TREUTLER

    BS radius alpha        =              1
    Pruning alpha          =              1
    Radial Points          =             75
    Spherical Points       =            302
    Total Points           =          45300
    Total Blocks           =            416
    Max Points             =            255
    Max Functions          =            126

   => Loading Basis Set <=

    Name: (AUG-CC-PV(Q+D)Z AUX)
    Role: JKFIT
    Keyword: DF_BASIS_SCF
    atoms 1 entry F          line   388 file /work/zw18965/.conda/envs/p4env/share/psi4/basis/aug-cc-pvqz-jkfit.gbs 
    atoms 2 entry H          line    70 file /work/zw18965/.conda/envs/p4env/share/psi4/basis/aug-cc-pvqz-jkfit.gbs 

   => Loading Basis Set <=

    Name: AUG-CC-PV(Q+D)Z
    Role: ORBITAL
    Keyword: BASIS
    atoms 1 entry F          line   499 file /work/zw18965/.conda/envs/p4env/share/psi4/basis/aug-cc-pv_qpd_z.gbs 
    atoms 2 entry H          line    56 file /work/zw18965/.conda/envs/p4env/share/psi4/basis/aug-cc-pv_qpd_z.gbs 

  Reading orbitals from file 180, no projection.

  ==> Pre-Iterations <==

   -------------------------------------------------------
    Irrep   Nso     Nmo     Nalpha   Nbeta   Ndocc  Nsocc
   -------------------------------------------------------
     A1        50      50       0       0       0       0
     A2        16      16       0       0       0       0
     B1        30      30       0       0       0       0
     B2        30      30       0       0       0       0
   -------------------------------------------------------
    Total     126     126       5       5       5       0
   -------------------------------------------------------

  ==> Integral Setup <==

  ==> DiskDFJK: Density-Fitted J/K Matrices <==

    J tasked:                  Yes
    K tasked:                  Yes
    wK tasked:                 Yes
    Omega:               3.000E-01
    OpenMP threads:             12
    Integrals threads:          12
    Memory [MiB]:           102607
    Algorithm:                Core
    Integral Cache:           NONE
    Schwarz Cutoff:          1E-12
    Fitting Condition:       1E-10

   => Auxiliary Basis Set <=

  Basis Set: (AUG-CC-PV(Q+D)Z AUX)
    Blend: AUG-CC-PVQZ-JKFIT
    Number of shells: 52
    Number of basis function: 218
    Number of Cartesian functions: 299
    Spherical Harmonics?: true
    Max angular momentum: 5

  Cached 100.0% of DFT collocation blocks in 0.380 [GiB].

  Minimum eigenvalue in the overlap matrix is 1.1486932485E-04.
  Using Symmetric Orthogonalization.

  SCF Guess: Orbitals guess was supplied from a previous computation.

  ==> Iterations <==

                           Total Energy        Delta E     RMS |[F,P]|

   @DF-RKS iter   0:  -100.46701790436943   -1.00467e+02   1.00703e-04 
   @DF-RKS iter   1:  -100.46603199114941    9.85913e-04   1.49489e-05 DIIS
   @DF-RKS iter   2:  -100.46603224568589   -2.54536e-07   5.09726e-06 DIIS
   @DF-RKS iter   3:  -100.46603226939254   -2.37066e-08   1.27640e-06 DIIS
   @DF-RKS iter   4:  -100.46603227140226   -2.00971e-09   4.36275e-07 DIIS
   @DF-RKS iter   5:  -100.46603227182750   -4.25246e-10   4.47020e-08 DIIS
   @DF-RKS iter   6:  -100.46603227183591   -8.41283e-12   3.65402e-09 DIIS
  Energy and wave function converged.


  ==> Post-Iterations <==

    Orbital Energies [Eh]
    ---------------------

    Doubly Occupied:                                                      

       1A1   -24.898868     2A1    -1.337860     3A1    -0.665616  
       1B1    -0.531010     1B2    -0.531010  

    Virtual:                                                              

       4A1     0.008323     5A1     0.091438     2B1     0.140110  
       2B2     0.140110     6A1     0.146578     3B1     0.195753  
       3B2     0.195753     7A1     0.213712     8A1     0.318955  
       9A1     0.505019     1A2     0.528520    10A1     0.528520  
       4B2     0.556716     4B1     0.556716    11A1     0.622361  
      12A1     0.702499     2A2     0.715958    13A1     0.715958  
       5B1     0.717594     5B2     0.717594     6B1     0.771366  
       6B2     0.771366    14A1     0.855796     7B2     1.161437  
       7B1     1.161437    15A1     1.344608    16A1     1.425413  
       8B1     1.430825     8B2     1.430825    17A1     1.565650  
      18A1     1.619582     3A2     1.619582     9B2     1.696611  
       9B1     1.696611     4A2     1.880929    19A1     1.880929  
      10B1     1.927705    10B2     1.927705    20A1     1.970891  
      11B2     1.976201    11B1     1.976201    21A1     2.019562  
       5A2     2.019563    22A1     2.054218    12B1     2.358663  
      12B2     2.358663    13B2     2.655146    13B1     2.655146  
      23A1     2.661720    24A1     2.942584    14B2     3.024166  
      14B1     3.024166     6A2     3.046317    25A1     3.046318  
      26A1     3.628280    15B2     4.365300    15B1     4.365300  
      27A1     4.371513     7A2     4.516210    28A1     4.516212  
      16B2     4.669385    16B1     4.669385    29A1     4.962570  
      30A1     5.045727     8A2     5.045730    17B1     5.171509  
      17B2     5.171509    18B2     5.288977    18B1     5.288977  
      31A1     5.346397     9A2     5.346406    32A1     5.482756  
      19B2     5.600365    19B1     5.600365    10A2     5.760149  
      33A1     5.760150    34A1     5.884036    20B2     6.159668  
      20B1     6.159668    35A1     6.486447    21B1     6.556389  
      21B2     6.556389    22B2     7.625165    22B1     7.625165  
      11A2     7.751631    36A1     7.751642    37A1     7.792643  
      38A1     8.417593    39A1     8.464737    12A2     8.464743  
      23B2     8.548787    23B1     8.548787    40A1    10.300534  
      24B2    10.532174    24B1    10.532174    41A1    11.934495  
      13A2    13.237486    42A1    13.237502    25B2    13.333920  
      25B1    13.333920    26B2    13.363739    26B1    13.363739  
      43A1    13.597014    14A2    13.597024    27B1    14.110614  
      27B2    14.110614    44A1    14.122165    45A1    14.652632  
      28B2    15.380011    28B1    15.380011    46A1    15.536088  
      15A2    15.536095    29B2    15.971362    29B1    15.971362  
      16A2    16.343931    47A1    16.343956    48A1    16.797662  
      30B2    17.459774    30B1    17.459774    49A1    19.719947  
      50A1    55.416064  

    Final Occupation by Irrep:
             A1    A2    B1    B2 
    DOCC [     3,    0,    1,    1 ]

  @DF-RKS Final Energy:  -100.46603227183591

   => Energetics <=

    Nuclear Repulsion Energy =              5.1879334760233862
    One-Electron Energy =                -150.4345408604610270
    Two-Electron Energy =                  52.6486459069945312
    DFT Exchange-Correlation Energy =      -7.9114571229557971
    Empirical Dispersion Energy =           0.0000000000000000
    VV10 Nonlocal Energy =                  0.0433863285630040
    Total Energy =                       -100.4660322718359140

Computation Completed


Properties will be evaluated at   0.000000,   0.000000,   0.000000 [a0]

Properties computed using the SCF density matrix

  Nuclear Dipole Moment: [e a0]
     X:     0.0000      Y:     0.0000      Z:    -0.8609

  Electronic Dipole Moment: [e a0]
     X:     0.0000      Y:     0.0000      Z:     0.1541

  Dipole Moment: [e a0]
     X:     0.0000      Y:     0.0000      Z:    -0.7067     Total:     0.7067

  Dipole Moment: [D]
     X:     0.0000      Y:     0.0000      Z:    -1.7963     Total:     1.7963


*** tstop() called on bp1-login01.data.bp.acrc.priv at Mon Apr 19 15:36:53 2021
Module time:
	user time   =      25.59 seconds =       0.43 minutes
	system time =       0.80 seconds =       0.01 minutes
	total time  =          2 seconds =       0.03 minutes
Total time:
	user time   =     158.57 seconds =       2.64 minutes
	system time =       6.93 seconds =       0.12 minutes
	total time  =         14 seconds =       0.23 minutes

  //>>>>>>>>>>>>>>>>>>>>>>>>>>>>>>>>>>>//
  //    Loading displacement 3 of 3    //
  //<<<<<<<<<<<<<<<<<<<<<<<<<<<<<<<<<<<//

*** tstart() called on bp1-login01.data.bp.acrc.priv
*** at Mon Apr 19 15:36:53 2021

   => Loading Basis Set <=

    Name: AUG-CC-PV(Q+D)Z
    Role: ORBITAL
    Keyword: BASIS
    atoms 1 entry F          line   499 file /work/zw18965/.conda/envs/p4env/share/psi4/basis/aug-cc-pv_qpd_z.gbs 
    atoms 2 entry H          line    56 file /work/zw18965/.conda/envs/p4env/share/psi4/basis/aug-cc-pv_qpd_z.gbs 


         ---------------------------------------------------------
                                   SCF
               by Justin Turney, Rob Parrish, Andy Simmonett
                          and Daniel G. A. Smith
                              RKS Reference
                       12 Threads, 137329 MiB Core
         ---------------------------------------------------------

  ==> Geometry <==

    Molecular point group: c2v
    Full point group: C_inf_v

    Geometry (in Angstrom), charge = 0, multiplicity = 1:

       Center              X                  Y                   Z               Mass       
    ------------   -----------------  -----------------  -----------------  -----------------
         F            0.000000000000     0.000000000000     0.046517957938    18.998403162730
         H            0.000000000000     0.000000000000    -0.876905108477     1.007825032230

  Running in c2v symmetry.

  Rotational constants: A = ************  B =     20.65656  C =     20.65656 [cm^-1]
  Rotational constants: A = ************  B = 619268.14335  C = 619268.14335 [MHz]
  Nuclear repulsion =    5.157543783823277

  Charge       = 0
  Multiplicity = 1
  Electrons    = 10
  Nalpha       = 5
  Nbeta        = 5

  ==> Algorithm <==

  SCF Algorithm Type is DF.
  DIIS enabled.
  MOM disabled.
  Fractional occupation disabled.
  Guess Type is READ.
  Energy threshold   = 1.00e-08
  Density threshold  = 1.00e-08
  Integral threshold = 0.00e+00

  ==> Primary Basis <==

  Basis Set: AUG-CC-PV(Q+D)Z
    Blend: AUG-CC-PV(Q+D)Z
    Number of shells: 34
    Number of basis function: 126
    Number of Cartesian functions: 160
    Spherical Harmonics?: true
    Max angular momentum: 4

  ==> DFT Potential <==

   => Composite Functional: WB97M-V <= 

    wB97M-V Hyb-GGA Exchange-Correlation Functional

    N. Mardirossian and M. Head-Gordon, J. Chem. Phys. 144, 214110 (2016)

    Deriv               =              1
    GGA                 =           TRUE
    Meta                =           TRUE

    Exchange Hybrid     =           TRUE
    MP2 Hybrid          =          FALSE

   => Exchange-Correlation Functionals <=

    1.0000   wB97M-V exchange-correlation functional

   => Exact (HF) Exchange <=

    0.8500            HF,LR [omega = 0.3000]
    0.1500               HF 

   => VV10 Non-Local Parameters <=

    VV10 B              =     6.0000E+00
    VV10 C              =     1.0000E-02

   => Molecular Quadrature <=

    Radial Scheme          =       TREUTLER
    Pruning Scheme         =           FLAT
    Nuclear Scheme         =       TREUTLER

    BS radius alpha        =              1
    Pruning alpha          =              1
    Radial Points          =             75
    Spherical Points       =            302
    Total Points           =          45300
    Total Blocks           =            416
    Max Points             =            255
    Max Functions          =            126

   => Loading Basis Set <=

    Name: (AUG-CC-PV(Q+D)Z AUX)
    Role: JKFIT
    Keyword: DF_BASIS_SCF
    atoms 1 entry F          line   388 file /work/zw18965/.conda/envs/p4env/share/psi4/basis/aug-cc-pvqz-jkfit.gbs 
    atoms 2 entry H          line    70 file /work/zw18965/.conda/envs/p4env/share/psi4/basis/aug-cc-pvqz-jkfit.gbs 

   => Loading Basis Set <=

    Name: AUG-CC-PV(Q+D)Z
    Role: ORBITAL
    Keyword: BASIS
    atoms 1 entry F          line   499 file /work/zw18965/.conda/envs/p4env/share/psi4/basis/aug-cc-pv_qpd_z.gbs 
    atoms 2 entry H          line    56 file /work/zw18965/.conda/envs/p4env/share/psi4/basis/aug-cc-pv_qpd_z.gbs 

  Reading orbitals from file 180, no projection.

  ==> Pre-Iterations <==

   -------------------------------------------------------
    Irrep   Nso     Nmo     Nalpha   Nbeta   Ndocc  Nsocc
   -------------------------------------------------------
     A1        50      50       0       0       0       0
     A2        16      16       0       0       0       0
     B1        30      30       0       0       0       0
     B2        30      30       0       0       0       0
   -------------------------------------------------------
    Total     126     126       5       5       5       0
   -------------------------------------------------------

  ==> Integral Setup <==

  ==> DiskDFJK: Density-Fitted J/K Matrices <==

    J tasked:                  Yes
    K tasked:                  Yes
    wK tasked:                 Yes
    Omega:               3.000E-01
    OpenMP threads:             12
    Integrals threads:          12
    Memory [MiB]:           102608
    Algorithm:                Core
    Integral Cache:           NONE
    Schwarz Cutoff:          1E-12
    Fitting Condition:       1E-10

   => Auxiliary Basis Set <=

  Basis Set: (AUG-CC-PV(Q+D)Z AUX)
    Blend: AUG-CC-PVQZ-JKFIT
    Number of shells: 52
    Number of basis function: 218
    Number of Cartesian functions: 299
    Spherical Harmonics?: true
    Max angular momentum: 5

  Cached 100.0% of DFT collocation blocks in 0.380 [GiB].

  Minimum eigenvalue in the overlap matrix is 1.1706675232E-04.
  Using Symmetric Orthogonalization.

  SCF Guess: Orbitals guess was supplied from a previous computation.

  ==> Iterations <==

                           Total Energy        Delta E     RMS |[F,P]|

   @DF-RKS iter   0:  -100.46504952151400   -1.00465e+02   1.00145e-04 
   @DF-RKS iter   1:  -100.46602773889026   -9.78217e-04   1.49592e-05 DIIS
   @DF-RKS iter   2:  -100.46602799433246   -2.55442e-07   5.07032e-06 DIIS
   @DF-RKS iter   3:  -100.46602801783590   -2.35034e-08   1.22995e-06 DIIS
   @DF-RKS iter   4:  -100.46602801971187   -1.87597e-09   4.52922e-07 DIIS
   @DF-RKS iter   5:  -100.46602802014733   -4.35463e-10   4.47294e-08 DIIS
   @DF-RKS iter   6:  -100.46602802015575   -8.41283e-12   3.70841e-09 DIIS
  Energy and wave function converged.


  ==> Post-Iterations <==

    Orbital Energies [Eh]
    ---------------------

    Doubly Occupied:                                                      

       1A1   -24.898979     2A1    -1.336126     3A1    -0.664239  
       1B2    -0.530521     1B1    -0.530521  

    Virtual:                                                              

       4A1     0.008104     5A1     0.091261     2B1     0.140172  
       2B2     0.140172     6A1     0.145949     3B2     0.195628  
       3B1     0.195628     7A1     0.213710     8A1     0.318132  
       9A1     0.503056     1A2     0.528432    10A1     0.528432  
       4B1     0.556566     4B2     0.556566    11A1     0.621917  
      12A1     0.702407     2A2     0.716188    13A1     0.716189  
       5B1     0.717787     5B2     0.717787     6B2     0.771222  
       6B1     0.771222    14A1     0.856735     7B1     1.160285  
       7B2     1.160285    15A1     1.340847    16A1     1.423713  
       8B1     1.430680     8B2     1.430680    17A1     1.566524  
       3A2     1.618990    18A1     1.618990     9B1     1.697286  
       9B2     1.697286     4A2     1.882517    19A1     1.882517  
      10B1     1.926609    10B2     1.926609    20A1     1.969538  
      11B2     1.974751    11B1     1.974751    21A1     2.019023  
       5A2     2.019024    22A1     2.057253    12B1     2.359165  
      12B2     2.359165    13B1     2.656416    13B2     2.656416  
      23A1     2.657084    24A1     2.937795    14B1     3.017427  
      14B2     3.017427     6A2     3.037740    25A1     3.037742  
      26A1     3.629988    15B1     4.357301    15B2     4.357301  
      27A1     4.363747     7A2     4.516601    28A1     4.516602  
      16B2     4.667834    16B1     4.667834    29A1     4.964120  
      30A1     5.041434     8A2     5.041437    17B1     5.171238  
      17B2     5.171238    18B2     5.288519    18B1     5.288519  
      31A1     5.348125     9A2     5.348134    32A1     5.484844  
      19B2     5.597068    19B1     5.597068    10A2     5.756233  
      33A1     5.756234    34A1     5.889277    20B2     6.160437  
      20B1     6.160437    35A1     6.467103    21B1     6.549272  
      21B2     6.549272    22B1     7.621368    22B2     7.621368  
      11A2     7.741874    36A1     7.741886    37A1     7.778107  
      38A1     8.393548    39A1     8.447235    12A2     8.447241  
      23B2     8.540169    23B1     8.540169    40A1    10.269114  
      24B2    10.495264    24B1    10.495264    41A1    11.946823  
      13A2    13.237910    42A1    13.237926    25B1    13.333394  
      25B2    13.333394    26B2    13.362082    26B1    13.362082  
      43A1    13.591367    14A2    13.591377    27B1    14.099193  
      27B2    14.099193    44A1    14.116987    45A1    14.635850  
      28B1    15.379524    28B2    15.379524    46A1    15.536692  
      15A2    15.536699    29B2    15.972651    29B1    15.972651  
      16A2    16.340692    47A1    16.340717    48A1    16.767860  
      30B2    17.416514    30B1    17.416514    49A1    19.668864  
      50A1    55.374883  

    Final Occupation by Irrep:
             A1    A2    B1    B2 
    DOCC [     3,    0,    1,    1 ]

  @DF-RKS Final Energy:  -100.46602802015575

   => Energetics <=

    Nuclear Repulsion Energy =              5.1575437838232769
    One-Electron Energy =                -150.3830320414413961
    Two-Electron Energy =                  52.6252977211805941
    DFT Exchange-Correlation Energy =      -7.9092212829508677
    Empirical Dispersion Energy =           0.0000000000000000
    VV10 Nonlocal Energy =                  0.0433837992326311
    Total Energy =                       -100.4660280201557470

Computation Completed


Properties will be evaluated at   0.000000,   0.000000,   0.000000 [a0]

Properties computed using the SCF density matrix

  Nuclear Dipole Moment: [e a0]
     X:     0.0000      Y:     0.0000      Z:    -0.8660

  Electronic Dipole Moment: [e a0]
     X:     0.0000      Y:     0.0000      Z:     0.1558

  Dipole Moment: [e a0]
     X:     0.0000      Y:     0.0000      Z:    -0.7102     Total:     0.7102

  Dipole Moment: [D]
     X:     0.0000      Y:     0.0000      Z:    -1.8051     Total:     1.8051


*** tstop() called on bp1-login01.data.bp.acrc.priv at Mon Apr 19 15:36:55 2021
Module time:
	user time   =      25.52 seconds =       0.43 minutes
	system time =       0.76 seconds =       0.01 minutes
	total time  =          2 seconds =       0.03 minutes
Total time:
	user time   =     184.19 seconds =       3.07 minutes
	system time =       7.69 seconds =       0.13 minutes
	total time  =         16 seconds =       0.27 minutes

         ----------------------------------------------------------
                                   FINDIF
                     R. A. King and Jonathon Misiewicz
         ---------------------------------------------------------

  Computing gradient from energies.
    Using 3-point formula.
    Energy without displacement: -100.4660381199
    Check energies below for precision!
    Forces are for mass-weighted, symmetry-adapted cartesians (in au).

     Coord      Energy(-1)        Energy(+1)            Force
        0   -100.4660322718   -100.4660280202      0.0004251680


-------------------------------------------------------------
  ## New Matrix (Symmetry 0) ##
  Irrep: 1 Size: 2 x 3

                 1                   2                   3

    1     0.00000000000000     0.00000000000000     0.00041593847817
    2     0.00000000000000     0.00000000000000    -0.00041593847817




			-----------------------------------------
			 OPTKING 2.0: for geometry optimizations 
			  - R.A. King,  Bethel University        
			-----------------------------------------

	Previous internal coordinate definitions found.
	---Fragment 1 Geometry and Gradient---
	 F           0.0000000000        0.0000000000        0.0876487335
	 H           0.0000000000        0.0000000000       -1.6522570116
	             0.0000000000        0.0000000000        0.0004159385
	             0.0000000000        0.0000000000       -0.0004159385

	---Fragment 1 Intrafragment Coordinates---
	 - Coordinate -           - BOHR/RAD -       - ANG/DEG -
	 R(1,2)           =         1.739906	       0.920718

	Current energy   :      -100.4660381199

	Energy change for the previous step:
		Projected    :        -0.0000182418
		Actual       :        -0.0000464107
	Energy ratio indicates good step: Trust radius increased to 1.000e+00.


	Performing BFGS update.
	Previous computed or guess Hessian on step 1.
	Steps to be used in Hessian update: 1
	Taking RFO optimization step.
	Going to follow RFO solution 1.
	Using RFO vector 1.
	Norm of target step-size    0.00070
	Projected energy change by RFO approximation:        -0.0000000471

	Back-transformation to cartesian coordinates...
	Successfully converged to displaced geometry.

	--- Internal Coordinate Step in ANG or DEG, aJ/ANG or AJ/DEG ---
	 ---------------------------------------------------------------------------
	   Coordinate                Previous        Force       Change         New 
	   ----------                --------       ------       ------       ------
	    1 R(1,2)          =      0.920718    -0.003427    -0.000369     0.920350
	 ---------------------------------------------------------------------------
	Successfully symmetrized geometry.

  ==> Convergence Check <==

  Measures of convergence in internal coordinates in au.
  Criteria marked as inactive (o), active & met (*), and active & unmet ( ).
  ---------------------------------------------------------------------------------------------
   Step     Total Energy     Delta E     MAX Force     RMS Force      MAX Disp      RMS Disp   
  ---------------------------------------------------------------------------------------------
    Convergence Criteria    1.00e-06 *    3.00e-04 *             o    1.20e-03 *             o
  ---------------------------------------------------------------------------------------------
      2    -100.46603812   -4.64e-05      4.16e-04      4.16e-04 o    6.97e-04 *    6.97e-04 o  ~
  ---------------------------------------------------------------------------------------------

	Writing optimization data to binary file.
	Structure for next step:
	Cartesian Geometry (in Angstrom)
	    F     0.0000000000   0.0000000000   0.0461973858
	    H     0.0000000000   0.0000000000  -0.8741524269
			--------------------------
			 OPTKING Finished Execution 
			--------------------------

    Structure for next step:
    Molecular point group: c2v
    Full point group: C_inf_v

    Geometry (in Angstrom), charge = 0, multiplicity = 1:

    F            0.000000000000     0.000000000000     0.046363141230
    H            0.000000000000     0.000000000000    -0.873986675086

gradient() will perform gradient computation by finite difference of analytic energies.

         ----------------------------------------------------------
                                   FINDIF
                     R. A. King and Jonathon Misiewicz
         ---------------------------------------------------------

  Using finite-differences of energies to determine gradients.
    Generating geometries for use with 3-point formula.
    Displacement size will be 5.00e-03.
    Number of atoms is 2.
    Number of symmetric SALCs is 1.
    Translations projected? 1. Rotations projected? 1.
    Number of geometries (including reference) is 3.

  //>>>>>>>>>>>>>>>>>>>>>>>>>>>>>>>>>>>//
  //    Loading displacement 1 of 3    //
  //<<<<<<<<<<<<<<<<<<<<<<<<<<<<<<<<<<<//

*** tstart() called on bp1-login01.data.bp.acrc.priv
*** at Mon Apr 19 15:36:55 2021

   => Loading Basis Set <=

    Name: AUG-CC-PV(Q+D)Z
    Role: ORBITAL
    Keyword: BASIS
    atoms 1 entry F          line   499 file /work/zw18965/.conda/envs/p4env/share/psi4/basis/aug-cc-pv_qpd_z.gbs 
    atoms 2 entry H          line    56 file /work/zw18965/.conda/envs/p4env/share/psi4/basis/aug-cc-pv_qpd_z.gbs 


         ---------------------------------------------------------
                                   SCF
               by Justin Turney, Rob Parrish, Andy Simmonett
                          and Daniel G. A. Smith
                              RKS Reference
                       12 Threads, 137329 MiB Core
         ---------------------------------------------------------

  ==> Geometry <==

    Molecular point group: c2v
    Full point group: C_inf_v

    Geometry (in Angstrom), charge = 0, multiplicity = 1:

       Center              X                  Y                   Z               Mass       
    ------------   -----------------  -----------------  -----------------  -----------------
         F            0.000000000000     0.000000000000     0.046363141230    18.998403162730
         H            0.000000000000     0.000000000000    -0.873986675086     1.007825032230

  Running in c2v symmetry.

  Rotational constants: A = ************  B =     20.79475  C =     20.79475 [cm^-1]
  Rotational constants: A = ************  B = 623410.79301  C = 623410.79301 [MHz]
  Nuclear repulsion =    5.174765954855258

  Charge       = 0
  Multiplicity = 1
  Electrons    = 10
  Nalpha       = 5
  Nbeta        = 5

  ==> Algorithm <==

  SCF Algorithm Type is DF.
  DIIS enabled.
  MOM disabled.
  Fractional occupation disabled.
  Guess Type is READ.
  Energy threshold   = 1.00e-08
  Density threshold  = 1.00e-08
[...]
      15A2    15.536050    29B1    15.971298    29B2    15.971298  
      16A2    16.344155    47A1    16.344179    48A1    16.799751  
      30B2    17.462754    30B1    17.462754    49A1    19.723401  
      50A1    55.418888  

    Final Occupation by Irrep:
             A1    A2    B1    B2 
    DOCC [     3,    0,    1,    1 ]

  @DF-RKS Final Energy:  -100.46603022220185

   => Energetics <=

    Nuclear Repulsion Energy =              5.1900176646090923
    One-Electron Energy =                -150.4380697805349030
    Two-Electron Energy =                  52.6502459243117258
    DFT Exchange-Correlation Energy =      -7.9116105327086261
    Empirical Dispersion Energy =           0.0000000000000000
    VV10 Nonlocal Energy =                  0.0433865021208672
    Total Energy =                       -100.4660302222018515

Computation Completed


Properties will be evaluated at   0.000000,   0.000000,   0.000000 [a0]

Properties computed using the SCF density matrix

  Nuclear Dipole Moment: [e a0]
     X:     0.0000      Y:     0.0000      Z:    -0.8605

  Electronic Dipole Moment: [e a0]
     X:     0.0000      Y:     0.0000      Z:     0.1540

  Dipole Moment: [e a0]
     X:     0.0000      Y:     0.0000      Z:    -0.7065     Total:     0.7065

  Dipole Moment: [D]
     X:     0.0000      Y:     0.0000      Z:    -1.7958     Total:     1.7958


*** tstop() called on bp1-login01.data.bp.acrc.priv at Mon Apr 19 15:37:18 2021
Module time:
	user time   =      39.02 seconds =       0.65 minutes
	system time =       0.97 seconds =       0.02 minutes
	total time  =          4 seconds =       0.07 minutes
Total time:
	user time   =     448.21 seconds =       7.47 minutes
	system time =      15.46 seconds =       0.26 minutes
	total time  =         39 seconds =       0.65 minutes

  //>>>>>>>>>>>>>>>>>>>>>>>>>>>>>>>>>>>//
  //    Loading displacement 3 of 3    //
  //<<<<<<<<<<<<<<<<<<<<<<<<<<<<<<<<<<<//

*** tstart() called on bp1-login01.data.bp.acrc.priv
*** at Mon Apr 19 15:37:18 2021

   => Loading Basis Set <=

    Name: AUG-CC-PV(Q+D)Z
    Role: ORBITAL
    Keyword: BASIS
    atoms 1 entry F          line   499 file /work/zw18965/.conda/envs/p4env/share/psi4/basis/aug-cc-pv_qpd_z.gbs 
    atoms 2 entry H          line    56 file /work/zw18965/.conda/envs/p4env/share/psi4/basis/aug-cc-pv_qpd_z.gbs 


         ---------------------------------------------------------
                                   SCF
               by Justin Turney, Rob Parrish, Andy Simmonett
                          and Daniel G. A. Smith
                              RKS Reference
                       12 Threads, 137329 MiB Core
         ---------------------------------------------------------

  ==> Geometry <==

    Molecular point group: c2v
    Full point group: C_inf_v

    Geometry (in Angstrom), charge = 0, multiplicity = 1:

       Center              X                  Y                   Z               Mass       
    ------------   -----------------  -----------------  -----------------  -----------------
         F            0.000000000000     0.000000000000     0.046499386850    18.998403162730
         H            0.000000000000     0.000000000000    -0.876555026864     1.007825032230

  Running in c2v symmetry.

  Rotational constants: A = ************  B =     20.67306  C =     20.67306 [cm^-1]
  Rotational constants: A = ************  B = 619762.89309  C = 619762.89309 [MHz]
  Nuclear repulsion =    5.159603621705662

  Charge       = 0
  Multiplicity = 1
  Electrons    = 10
  Nalpha       = 5
  Nbeta        = 5

  ==> Algorithm <==

  SCF Algorithm Type is DF.
  DIIS enabled.
  MOM disabled.
  Fractional occupation disabled.
  Guess Type is SAD.
  Energy threshold   = 1.00e-10
  Density threshold  = 1.00e-10
  Integral threshold = 0.00e+00

  ==> Primary Basis <==

  Basis Set: AUG-CC-PV(Q+D)Z
    Blend: AUG-CC-PV(Q+D)Z
    Number of shells: 34
    Number of basis function: 126
    Number of Cartesian functions: 160
    Spherical Harmonics?: true
    Max angular momentum: 4

  ==> DFT Potential <==

   => Composite Functional: WB97M-V <= 

    wB97M-V Hyb-GGA Exchange-Correlation Functional

    N. Mardirossian and M. Head-Gordon, J. Chem. Phys. 144, 214110 (2016)

    Deriv               =              1
    GGA                 =           TRUE
    Meta                =           TRUE

    Exchange Hybrid     =           TRUE
    MP2 Hybrid          =          FALSE

   => Exchange-Correlation Functionals <=

    1.0000   wB97M-V exchange-correlation functional

   => Exact (HF) Exchange <=

    0.8500            HF,LR [omega = 0.3000]
    0.1500               HF 

   => VV10 Non-Local Parameters <=

    VV10 B              =     6.0000E+00
    VV10 C              =     1.0000E-02

   => Molecular Quadrature <=

    Radial Scheme          =       TREUTLER
    Pruning Scheme         =           FLAT
    Nuclear Scheme         =       TREUTLER

    BS radius alpha        =              1
    Pruning alpha          =              1
    Radial Points          =             75
    Spherical Points       =            302
    Total Points           =          45300
    Total Blocks           =            416
    Max Points             =            255
    Max Functions          =            126

   => Loading Basis Set <=

    Name: (AUG-CC-PV(Q+D)Z AUX)
    Role: JKFIT
    Keyword: DF_BASIS_SCF
    atoms 1 entry F          line   388 file /work/zw18965/.conda/envs/p4env/share/psi4/basis/aug-cc-pvqz-jkfit.gbs 
    atoms 2 entry H          line    70 file /work/zw18965/.conda/envs/p4env/share/psi4/basis/aug-cc-pvqz-jkfit.gbs 

  ==> Pre-Iterations <==

   -------------------------------------------------------
    Irrep   Nso     Nmo     Nalpha   Nbeta   Ndocc  Nsocc
   -------------------------------------------------------
     A1        50      50       0       0       0       0
     A2        16      16       0       0       0       0
     B1        30      30       0       0       0       0
     B2        30      30       0       0       0       0
   -------------------------------------------------------
    Total     126     126       5       5       5       0
   -------------------------------------------------------

  ==> Integral Setup <==

  ==> DiskDFJK: Density-Fitted J/K Matrices <==

    J tasked:                  Yes
    K tasked:                  Yes
    wK tasked:                 Yes
    Omega:               3.000E-01
    OpenMP threads:             12
    Integrals threads:          12
    Memory [MiB]:           102608
    Algorithm:                Core
    Integral Cache:           NONE
    Schwarz Cutoff:          1E-12
    Fitting Condition:       1E-10

   => Auxiliary Basis Set <=

  Basis Set: (AUG-CC-PV(Q+D)Z AUX)
    Blend: AUG-CC-PVQZ-JKFIT
    Number of shells: 52
    Number of basis function: 218
    Number of Cartesian functions: 299
    Spherical Harmonics?: true
    Max angular momentum: 5

  Cached 100.0% of DFT collocation blocks in 0.380 [GiB].

  Minimum eigenvalue in the overlap matrix is 1.1691607854E-04.
  Using Symmetric Orthogonalization.

  SCF Guess: Superposition of Atomic Densities via on-the-fly atomic UHF.

  ==> Iterations <==

                           Total Energy        Delta E     RMS |[F,P]|

   @DF-RKS iter SAD:  -100.11752089617994   -1.00118e+02   0.00000e+00 
   @DF-RKS iter   1:  -100.41396677092457   -2.96446e-01   5.94594e-03 DIIS
   @DF-RKS iter   2:  -100.40981190287459    4.15487e-03   6.96376e-03 DIIS
   @DF-RKS iter   3:  -100.46594735498994   -5.61355e-02   2.43211e-04 DIIS
   @DF-RKS iter   4:  -100.46602506375302   -7.77088e-05   5.49717e-05 DIIS
   @DF-RKS iter   5:  -100.46603022909986   -5.16535e-06   5.67277e-06 DIIS
   @DF-RKS iter   6:  -100.46603032127028   -9.21704e-08   8.32736e-07 DIIS
   @DF-RKS iter   7:  -100.46603032423242   -2.96214e-09   1.16342e-07 DIIS
   @DF-RKS iter   8:  -100.46603032430862   -7.61986e-11   1.64153e-08 DIIS
   @DF-RKS iter   9:  -100.46603032431007   -1.44951e-12   1.68721e-09 DIIS
   @DF-RKS iter  10:  -100.46603032431005    1.42109e-14   1.76415e-10 DIIS
   @DF-RKS iter  11:  -100.46603032431003    2.84217e-14   1.82062e-11 DIIS
  Energy and wave function converged.


  ==> Post-Iterations <==

    Orbital Energies [Eh]
    ---------------------

    Doubly Occupied:                                                      

       1A1   -24.898972     2A1    -1.336243     3A1    -0.664333  
       1B1    -0.530555     1B2    -0.530555  

    Virtual:                                                              

       4A1     0.008119     5A1     0.091273     2B1     0.140168  
       2B2     0.140168     6A1     0.145992     3B2     0.195636  
       3B1     0.195636     7A1     0.213710     8A1     0.318188  
       9A1     0.503189     1A2     0.528438    10A1     0.528438  
       4B2     0.556575     4B1     0.556575    11A1     0.621946  
      12A1     0.702414     2A2     0.716173    13A1     0.716173  
       5B1     0.717774     5B2     0.717774     6B2     0.771232  
       6B1     0.771232    14A1     0.856671     7B2     1.160363  
       7B1     1.160363    15A1     1.341104    16A1     1.423830  
       8B1     1.430690     8B2     1.430690    17A1     1.566461  
       3A2     1.619030    18A1     1.619030     9B2     1.697242  
       9B1     1.697242     4A2     1.882409    19A1     1.882409  
      10B1     1.926683    10B2     1.926683    20A1     1.969632  
      11B1     1.974850    11B2     1.974850    21A1     2.019059  
       5A2     2.019061    22A1     2.057046    12B1     2.359140  
      12B2     2.359140    13B1     2.656317    13B2     2.656317  
      23A1     2.657400    24A1     2.938119    14B2     3.017886  
      14B1     3.017886     6A2     3.038325    25A1     3.038326  
      26A1     3.629881    15B2     4.357852    15B1     4.357852  
      27A1     4.364256     7A2     4.516574    28A1     4.516576  
      16B2     4.667939    16B1     4.667939    29A1     4.964022  
      30A1     5.041728     8A2     5.041731    17B1     5.171262  
      17B2     5.171262    18B1     5.288549    18B2     5.288549  
      31A1     5.348008     9A2     5.348017    32A1     5.484720  
      19B1     5.597296    19B2     5.597296    10A2     5.756499  
      33A1     5.756500    34A1     5.888904    20B2     6.160371  
      20B1     6.160371    35A1     6.468408    21B1     6.549754  
      21B2     6.549754    22B2     7.621628    22B1     7.621628  
      11A2     7.742555    36A1     7.742567    37A1     7.779121  
      38A1     8.395152    39A1     8.448404    12A2     8.448409  
      23B2     8.540744    23B1     8.540744    40A1    10.271233  
      24B1    10.497778    24B2    10.497778    41A1    11.946078  
      13A2    13.237881    42A1    13.237897    25B1    13.333430  
      25B2    13.333430    26B2    13.362211    26B1    13.362211  
      43A1    13.591743    14A2    13.591753    27B2    14.099982  
      27B1    14.099982    44A1    14.117316    45A1    14.636982  
      28B1    15.379557    28B2    15.379557    46A1    15.536654  
      15A2    15.536661    29B2    15.972543    29B1    15.972543  
      16A2    16.340910    47A1    16.340936    48A1    16.769840  
      30B2    17.419435    30B1    17.419435    49A1    19.672368  
      50A1    55.377673  

    Final Occupation by Irrep:
             A1    A2    B1    B2 
    DOCC [     3,    0,    1,    1 ]

  @DF-RKS Final Energy:  -100.46603032431003

   => Energetics <=

    Nuclear Repulsion Energy =              5.1596036217056618
    One-Electron Energy =                -150.3865264627284262
    Two-Electron Energy =                  52.6268813078493736
    DFT Exchange-Correlation Energy =      -7.9093727617113778
    Empirical Dispersion Energy =           0.0000000000000000
    VV10 Nonlocal Energy =                  0.0433839705747609
    Total Energy =                       -100.4660303243100117

Computation Completed


Properties will be evaluated at   0.000000,   0.000000,   0.000000 [a0]

Properties computed using the SCF density matrix

  Nuclear Dipole Moment: [e a0]
     X:     0.0000      Y:     0.0000      Z:    -0.8656

  Electronic Dipole Moment: [e a0]
     X:     0.0000      Y:     0.0000      Z:     0.1557

  Dipole Moment: [e a0]
     X:     0.0000      Y:     0.0000      Z:    -0.7099     Total:     0.7099

  Dipole Moment: [D]
     X:     0.0000      Y:     0.0000      Z:    -1.8045     Total:     1.8045


*** tstop() called on bp1-login01.data.bp.acrc.priv at Mon Apr 19 15:37:21 2021
Module time:
	user time   =      37.15 seconds =       0.62 minutes
	system time =       0.76 seconds =       0.01 minutes
	total time  =          3 seconds =       0.05 minutes
Total time:
	user time   =     485.46 seconds =       8.09 minutes
	system time =      16.23 seconds =       0.27 minutes
	total time  =         42 seconds =       0.70 minutes

         ----------------------------------------------------------
                                   FINDIF
                     R. A. King and Jonathon Misiewicz
         ---------------------------------------------------------

  Computing second-derivative from energies using projected, 
  symmetry-adapted, cartesian coordinates.

  3 energies passed in, including the reference geometry.
    Using 3-point formula.
    Energy without displacement: -100.4660382693
    Check energies below for precision!
    0: -1 :      -100.4660302222
    0: 1  :      -100.4660303243

-------------------------------------------------------------


  ==> Harmonic Vibrational Analysis <==

  non-mass-weighted Hessian:       Symmetric? True   Hermitian? True   Lin Dep Dim?  5 (0)
  projection of translations (True) and rotations (True) removed 5 degrees of freedom (5)
  total projector:                 Symmetric? True   Hermitian? True   Lin Dep Dim?  5 (5)
  mass-weighted Hessian:           Symmetric? True   Hermitian? True   Lin Dep Dim?  5 (0)
  pre-proj  low-frequency mode:    0.0000  [cm^-1]
  pre-proj  low-frequency mode:    0.0000  [cm^-1]
  pre-proj  low-frequency mode:    0.0000  [cm^-1]
  pre-proj  low-frequency mode:    0.0000  [cm^-1]
  pre-proj  low-frequency mode:    0.0000  [cm^-1]
  pre-proj  all modes:['0.0000' '0.0000' '0.0000' '0.0000' '0.0000' '4111.3676']
  projected mass-weighted Hessian: Symmetric? True   Hermitian? True   Lin Dep Dim?  5 (5)
  post-proj low-frequency mode:    0.0000  [cm^-1] (TR)
  post-proj low-frequency mode:    0.0000  [cm^-1] (TR)
  post-proj low-frequency mode:    0.0000  [cm^-1] (TR)
  post-proj low-frequency mode:    0.0000  [cm^-1] (TR)
  post-proj low-frequency mode:    0.0000  [cm^-1] (TR)
  post-proj  all modes:['0.0000' '0.0000' '0.0000' '0.0000' '0.0000' '4111.3676']

  Vibration                       6           
  Freq [cm^-1]                4111.3676       
  Irrep                           A1          
  Reduced mass [u]              1.0583        
  Force const [mDyne/A]        10.5399        
  Turning point v=0 [a0]        0.1663        
  RMS dev v=0 [a0 u^1/2]        0.1210        
  Char temp [K]               5915.3426       
  ----------------------------------------------------------------------------------
      1   F                0.00  0.00 -0.05   
      2   H                0.00  0.00  1.00   

  ==> Thermochemistry Components <==

  Entropy, S
    Electronic S            0.000 [cal/(mol K)]        0.000 [J/(mol K)]       0.00000000 [mEh/K] (multiplicity = 1)
    Translational S        34.921 [cal/(mol K)]      146.112 [J/(mol K)]       0.05565095 [mEh/K] (mol. weight = 20.0062 [u], P = 101325.00 [Pa])
    Rotational S            6.556 [cal/(mol K)]       27.430 [J/(mol K)]       0.01044763 [mEh/K] (symmetry no. = 1)
    Vibrational S           0.000 [cal/(mol K)]        0.000 [J/(mol K)]       0.00000000 [mEh/K]
  Total S                  41.477 [cal/(mol K)]      173.542 [J/(mol K)]       0.06609858 [mEh/K]
  Correction S              0.000 [cal/(mol K)]        0.000 [J/(mol K)]       0.00000000 [mEh/K]

  Constant volume heat capacity, Cv
    Electronic Cv           0.000 [cal/(mol K)]        0.000 [J/(mol K)]       0.00000000 [mEh/K]
    Translational Cv        2.981 [cal/(mol K)]       12.472 [J/(mol K)]       0.00475022 [mEh/K]
    Rotational Cv           1.987 [cal/(mol K)]        8.314 [J/(mol K)]       0.00316681 [mEh/K]
    Vibrational Cv          0.000 [cal/(mol K)]        0.000 [J/(mol K)]       0.00000000 [mEh/K]
  Total Cv                  4.968 [cal/(mol K)]       20.786 [J/(mol K)]       0.00791703 [mEh/K]
  Correction Cv             0.000 [cal/(mol K)]        0.000 [J/(mol K)]       0.00000000 [mEh/K]

  Constant pressure heat capacity, Cp
    Electronic Cp           0.000 [cal/(mol K)]        0.000 [J/(mol K)]       0.00000000 [mEh/K]
    Translational Cp        4.968 [cal/(mol K)]       20.786 [J/(mol K)]       0.00791703 [mEh/K]
    Rotational Cp           1.987 [cal/(mol K)]        8.314 [J/(mol K)]       0.00316681 [mEh/K]
    Vibrational Cp          0.000 [cal/(mol K)]        0.000 [J/(mol K)]       0.00000000 [mEh/K]
  Total Cp                  6.955 [cal/(mol K)]       29.101 [J/(mol K)]       0.01108384 [mEh/K]
  Correction Cp             0.000 [cal/(mol K)]        0.000 [J/(mol K)]       0.00000000 [mEh/K]

  ==> Thermochemistry Energy Analysis <==

  Raw electronic energy, E0
  Total E0, Electronic energy at well bottom at 0 [K]                 -100.46603827 [Eh]

  Zero-point energy, ZPE_vib = Sum_i nu_i / 2
    Electronic ZPE          0.000 [kcal/mol]        0.000 [kJ/mol]       0.00000000 [Eh]
    Translational ZPE       0.000 [kcal/mol]        0.000 [kJ/mol]       0.00000000 [Eh]
    Rotational ZPE          0.000 [kcal/mol]        0.000 [kJ/mol]       0.00000000 [Eh]
    Vibrational ZPE         5.877 [kcal/mol]       24.591 [kJ/mol]       0.00936638 [Eh]        2055.684 [cm^-1]
  Correction ZPE            5.877 [kcal/mol]       24.591 [kJ/mol]       0.00936638 [Eh]        2055.684 [cm^-1]
  Total ZPE, Electronic energy at 0 [K]                               -100.45667188 [Eh]

  Thermal Energy, E (includes ZPE)
    Electronic E            0.000 [kcal/mol]        0.000 [kJ/mol]       0.00000000 [Eh]
    Translational E         0.889 [kcal/mol]        3.718 [kJ/mol]       0.00141628 [Eh]
    Rotational E            0.592 [kcal/mol]        2.479 [kJ/mol]       0.00094418 [Eh]
    Vibrational E           5.877 [kcal/mol]       24.591 [kJ/mol]       0.00936638 [Eh]
  Correction E              7.359 [kcal/mol]       30.789 [kJ/mol]       0.01172685 [Eh]
  Total E, Electronic energy at  298.15 [K]                           -100.45431142 [Eh]

  Enthalpy, H_trans = E_trans + k_B * T
    Electronic H            0.000 [kcal/mol]        0.000 [kJ/mol]       0.00000000 [Eh]
    Translational H         1.481 [kcal/mol]        6.197 [kJ/mol]       0.00236046 [Eh]
    Rotational H            0.592 [kcal/mol]        2.479 [kJ/mol]       0.00094418 [Eh]
    Vibrational H           5.877 [kcal/mol]       24.591 [kJ/mol]       0.00936638 [Eh]
  Correction H              7.951 [kcal/mol]       33.268 [kJ/mol]       0.01267103 [Eh]
  Total H, Enthalpy at  298.15 [K]                                    -100.45336724 [Eh]

  Gibbs free energy, G = H - T * S
    Electronic G            0.000 [kcal/mol]        0.000 [kJ/mol]       0.00000000 [Eh]
    Translational G        -8.931 [kcal/mol]      -37.366 [kJ/mol]      -0.01423187 [Eh]
    Rotational G           -1.362 [kcal/mol]       -5.699 [kJ/mol]      -0.00217078 [Eh]
    Vibrational G           5.877 [kcal/mol]       24.591 [kJ/mol]       0.00936638 [Eh]
  Correction G             -4.415 [kcal/mol]      -18.474 [kJ/mol]      -0.00703626 [Eh]
  Total G, Free enthalpy at  298.15 [K]                               -100.47307453 [Eh]

    Psi4 stopped on: Monday, 19 April 2021 03:37PM
    Psi4 wall time for execution: 0:00:43.06

*** Psi4 exiting successfully. Buy a developer a beer!
