
    -----------------------------------------------------------------------
          Psi4: An Open-Source Ab Initio Electronic Structure Package
                               Psi4 1.3.2 release

                         Git: Rev {HEAD} ecbda83 


    R. M. Parrish, L. A. Burns, D. G. A. Smith, A. C. Simmonett,
    A. E. DePrince III, E. G. Hohenstein, U. Bozkaya, A. Yu. Sokolov,
    R. Di Remigio, R. M. Richard, J. F. Gonthier, A. M. James,
    H. R. McAlexander, A. Kumar, M. Saitow, X. Wang, B. P. Pritchard,
    P. Verma, H. F. Schaefer III, K. Patkowski, R. A. King, E. F. Valeev,
    F. A. Evangelista, J. M. Turney, T. D. Crawford, and C. D. Sherrill,
    J. Chem. Theory Comput. 13(7) pp 3185--3197 (2017).
    (doi: 10.1021/acs.jctc.7b00174)


                         Additional Contributions by
    P. Kraus, H. Kruse, M. H. Lechner, M. C. Schieber, R. A. Shaw,
    A. Alenaizan, R. Galvelis, Z. L. Glick, S. Lehtola, and J. P. Misiewicz

    -----------------------------------------------------------------------


    Psi4 started on: Tuesday, 27 April 2021 06:09PM

    Process ID: 39281
    Host:       bp1-compute00100.data.bp.acrc.priv
    PSIDATADIR: /work/zw18965/.conda/envs/p4env/share/psi4
    Memory:     500.0 MiB
    Threads:    24
    
  ==> Input File <==

--------------------------------------------------------------------------
memory 144 GB

molecule {
0 1
B 0.0000000000 0.0000000000 0.0000000000
H 0.0000000000 0.0000000000 1.1899000000
H 1.0304836280 0.0000000000 -0.5949500000
H -1.0304836280 -0.0000000000 -0.5949500000
}

set dynamic_level 1
set basis cc-pV(D+d)Z
 
optimize("wB97M-V")
frequencies("wB97M-V")
--------------------------------------------------------------------------

  Memory set to 134.110 GiB by Python driver.
gradient() will perform gradient computation by finite difference of analytic energies.

         ----------------------------------------------------------
                                   FINDIF
                     R. A. King and Jonathon Misiewicz
         ---------------------------------------------------------

  Using finite-differences of energies to determine gradients.
    Generating geometries for use with 3-point formula.
    Displacement size will be 5.00e-03.
    Number of atoms is 4.
    Number of symmetric SALCs is 3.
    Translations projected? 1. Rotations projected? 1.
    Number of geometries (including reference) is 7.

  //>>>>>>>>>>>>>>>>>>>>>>>>>>>>>>>>>>>//
  //    Loading displacement 1 of 7    //
  //<<<<<<<<<<<<<<<<<<<<<<<<<<<<<<<<<<<//

*** tstart() called on bp1-compute00100.data.bp.acrc.priv
*** at Tue Apr 27 18:09:01 2021

   => Loading Basis Set <=

    Name: CC-PV(D+D)Z
    Role: ORBITAL
    Keyword: BASIS
    atoms 1   entry B          line   117 file /work/zw18965/.conda/envs/p4env/share/psi4/basis/cc-pv_dpd_z.gbs 
    atoms 2-4 entry H          line    31 file /work/zw18965/.conda/envs/p4env/share/psi4/basis/cc-pv_dpd_z.gbs 


         ---------------------------------------------------------
                                   SCF
               by Justin Turney, Rob Parrish, Andy Simmonett
                          and Daniel G. A. Smith
                              RKS Reference
                       24 Threads, 137329 MiB Core
         ---------------------------------------------------------

  ==> Geometry <==

    Molecular point group: c2v
    Full point group: D3h

    Geometry (in Angstrom), charge = 0, multiplicity = 1:

       Center              X                  Y                   Z               Mass       
    ------------   -----------------  -----------------  -----------------  -----------------
         B            0.000000000000     0.000000000000     0.000000000000    11.009305360000
         H            0.000000000000     0.000000000000     1.189900000000     1.007825032230
         H            1.030483628000     0.000000000000    -0.594950000000     1.007825032230
         H           -1.030483628000    -0.000000000000    -0.594950000000     1.007825032230

  Running in c2v symmetry.

  Rotational constants: A =      7.87588  B =      7.87588  C =      3.93794 [cm^-1]
  Rotational constants: A = 236112.98414  B = 236112.98413  C = 118056.49207 [MHz]
  Nuclear repulsion =    7.441146293788980

  Charge       = 0
  Multiplicity = 1
  Electrons    = 8
  Nalpha       = 4
  Nbeta        = 4

  ==> Algorithm <==

  SCF Algorithm Type is DF.
  DIIS enabled.
  MOM disabled.
  Fractional occupation disabled.
  Guess Type is SAD.
  Energy threshold   = 1.00e-08
  Density threshold  = 1.00e-08
  Integral threshold = 0.00e+00

  ==> Primary Basis <==

  Basis Set: CC-PV(D+D)Z
    Blend: CC-PV(D+D)Z
    Number of shells: 15
    Number of basis function: 29
    Number of Cartesian functions: 30
    Spherical Harmonics?: true
    Max angular momentum: 2

  ==> DFT Potential <==

   => Composite Functional: WB97M-V <= 

    wB97M-V Hyb-GGA Exchange-Correlation Functional

    N. Mardirossian and M. Head-Gordon, J. Chem. Phys. 144, 214110 (2016)

    Deriv               =              1
    GGA                 =           TRUE
    Meta                =           TRUE

    Exchange Hybrid     =           TRUE
    MP2 Hybrid          =          FALSE

   => Exchange-Correlation Functionals <=

    1.0000   wB97M-V exchange-correlation functional

   => Exact (HF) Exchange <=

    0.8500            HF,LR [omega = 0.3000]
    0.1500               HF 

   => VV10 Non-Local Parameters <=

    VV10 B              =     6.0000E+00
    VV10 C              =     1.0000E-02

   => Molecular Quadrature <=

    Radial Scheme          =       TREUTLER
    Pruning Scheme         =           FLAT
    Nuclear Scheme         =       TREUTLER

    BS radius alpha        =              1
    Pruning alpha          =              1
    Radial Points          =             75
    Spherical Points       =            302
    Total Points           =          89938
    Total Blocks           =            744
    Max Points             =            256
    Max Functions          =             29

   => Loading Basis Set <=

    Name: (CC-PV(D+D)Z AUX)
    Role: JKFIT
    Keyword: DF_BASIS_SCF
    atoms 1   entry B          line    71 file /work/zw18965/.conda/envs/p4env/share/psi4/basis/cc-pvdz-jkfit.gbs 
    atoms 2-4 entry H          line    51 file /work/zw18965/.conda/envs/p4env/share/psi4/basis/cc-pvdz-jkfit.gbs 

  ==> Pre-Iterations <==

   -------------------------------------------------------
    Irrep   Nso     Nmo     Nalpha   Nbeta   Ndocc  Nsocc
   -------------------------------------------------------
     A1        14      14       0       0       0       0
     A2         2       2       0       0       0       0
     B1         8       8       0       0       0       0
     B2         5       5       0       0       0       0
   -------------------------------------------------------
    Total      29      29       4       4       4       0
   -------------------------------------------------------

  ==> Integral Setup <==

  ==> DiskDFJK: Density-Fitted J/K Matrices <==

    J tasked:                  Yes
    K tasked:                  Yes
    wK tasked:                 Yes
    Omega:               3.000E-01
    OpenMP threads:             24
    Integrals threads:          24
    Memory [MiB]:           102806
    Algorithm:                Core
    Integral Cache:           NONE
    Schwarz Cutoff:          1E-12
    Fitting Condition:       1E-10

   => Auxiliary Basis Set <=

  Basis Set: (CC-PV(D+D)Z AUX)
    Blend: CC-PVDZ-JKFIT
    Number of shells: 51
    Number of basis function: 139
    Number of Cartesian functions: 156
    Spherical Harmonics?: true
    Max angular momentum: 3

  Cached 100.0% of DFT collocation blocks in 0.186 [GiB].

  Minimum eigenvalue in the overlap matrix is 1.6609942089E-02.
  Using Symmetric Orthogonalization.

  SCF Guess: Superposition of Atomic Densities via on-the-fly atomic UHF.

  ==> Iterations <==

                           Total Energy        Delta E     RMS |[F,P]|

   @DF-RKS iter SAD:   -25.93966067929940   -2.59397e+01   0.00000e+00 
   @DF-RKS iter   1:   -26.56017768345917   -6.20517e-01   5.81762e-03 DIIS
   @DF-RKS iter   2:   -26.56749898081135   -7.32130e-03   1.73754e-03 DIIS
   @DF-RKS iter   3:   -26.56812804869629   -6.29068e-04   1.83528e-04 DIIS
   @DF-RKS iter   4:   -26.56814406846274   -1.60198e-05   3.94916e-05 DIIS
   @DF-RKS iter   5:   -26.56814488540753   -8.16945e-07   2.06824e-06 DIIS
   @DF-RKS iter   6:   -26.56814488687981   -1.47227e-09   1.54962e-07 DIIS
   @DF-RKS iter   7:   -26.56814488689123   -1.14184e-11   1.78456e-08 DIIS
   @DF-RKS iter   8:   -26.56814488689135   -1.27898e-13   3.41501e-10 DIIS
  Energy and wave function converged.


  ==> Post-Iterations <==

    Orbital Energies [Eh]
    ---------------------

    Doubly Occupied:                                                      

       1A1    -6.935339     2A1    -0.623755     3A1    -0.447370  
       1B1    -0.447369  

    Virtual:                                                              

       1B2     0.009832     4A1     0.204752     2B1     0.219343  
       5A1     0.219343     6A1     0.336976     3B1     0.336977  
       2B2     0.398419     7A1     0.436755     4B1     0.680496  
       8A1     0.680496     9A1     0.722204     3B2     0.746316  
       1A2     0.746316    10A1     1.112084    11A1     1.221227  
       5B1     1.221229     6B1     1.399041     4B2     1.605908  
       5B2     1.759474     2A2     1.759477    12A1     2.071878  
       7B1     2.071882    13A1     2.283064     8B1     2.362537  
      14A1     2.362542  

    Final Occupation by Irrep:
             A1    A2    B1    B2 
    DOCC [     3,    0,    1,    0 ]

  @DF-RKS Final Energy:   -26.56814488689135

   => Energetics <=

    Nuclear Repulsion Energy =              7.4411462937889796
    One-Electron Energy =                 -49.0603926884891948
    Two-Electron Energy =                  18.3721364887552916
    DFT Exchange-Correlation Energy =      -3.3549103960699207
    Empirical Dispersion Energy =           0.0000000000000000
    VV10 Nonlocal Energy =                  0.0338754151234918
    Total Energy =                        -26.5681448868913499

Computation Completed


Properties will be evaluated at   0.000000,   0.000000,   0.000000 [a0]

Properties computed using the SCF density matrix

  Nuclear Dipole Moment: [e a0]
     X:     0.0000      Y:     0.0000      Z:    -0.0000

  Electronic Dipole Moment: [e a0]
     X:     0.0000      Y:     0.0000      Z:     0.0000

  Dipole Moment: [e a0]
     X:     0.0000      Y:     0.0000      Z:     0.0000     Total:     0.0000

  Dipole Moment: [D]
     X:     0.0000      Y:     0.0000      Z:     0.0000     Total:     0.0000


*** tstop() called on bp1-compute00100.data.bp.acrc.priv at Tue Apr 27 18:09:05 2021
Module time:
	user time   =      69.41 seconds =       1.16 minutes
	system time =       2.58 seconds =       0.04 minutes
	total time  =          4 seconds =       0.07 minutes
Total time:
	user time   =      69.41 seconds =       1.16 minutes
	system time =       2.58 seconds =       0.04 minutes
	total time  =          4 seconds =       0.07 minutes

  //>>>>>>>>>>>>>>>>>>>>>>>>>>>>>>>>>>>//
  //    Loading displacement 2 of 7    //
  //<<<<<<<<<<<<<<<<<<<<<<<<<<<<<<<<<<<//

*** tstart() called on bp1-compute00100.data.bp.acrc.priv
*** at Tue Apr 27 18:09:05 2021

   => Loading Basis Set <=

    Name: CC-PV(D+D)Z
    Role: ORBITAL
    Keyword: BASIS
    atoms 1   entry B          line   117 file /work/zw18965/.conda/envs/p4env/share/psi4/basis/cc-pv_dpd_z.gbs 
    atoms 2-4 entry H          line    31 file /work/zw18965/.conda/envs/p4env/share/psi4/basis/cc-pv_dpd_z.gbs 


         ---------------------------------------------------------
                                   SCF
               by Justin Turney, Rob Parrish, Andy Simmonett
                          and Daniel G. A. Smith
                              RKS Reference
                       24 Threads, 137329 MiB Core
         ---------------------------------------------------------

  ==> Geometry <==

    Molecular point group: c2v
    Full point group: C2v

    Geometry (in Angstrom), charge = 0, multiplicity = 1:

       Center              X                  Y                   Z               Mass       
    ------------   -----------------  -----------------  -----------------  -----------------
         B            0.000000000000     0.000000000000    -0.000370145531    11.009305360000
         H            0.000000000000     0.000000000000     1.191247801802     1.007825032230
         H            1.030483628000     0.000000000000    -0.593602198198     1.007825032230
         H           -1.030483628000    -0.000000000000    -0.593602198198     1.007825032230

  Running in c2v symmetry.

  Rotational constants: A =      7.87588  B =      7.87586  C =      3.93793 [cm^-1]
  Rotational constants: A = 236112.98413  B = 236112.21188  C = 118056.29900 [MHz]
  Nuclear repulsion =    7.441149757572817

  Charge       = 0
  Multiplicity = 1
  Electrons    = 8
  Nalpha       = 4
  Nbeta        = 4

  ==> Algorithm <==

  SCF Algorithm Type is DF.
  DIIS enabled.
  MOM disabled.
  Fractional occupation disabled.
  Guess Type is SAD.
  Energy threshold   = 1.00e-08
  Density threshold  = 1.00e-08
  Integral threshold = 0.00e+00

  ==> Primary Basis <==

  Basis Set: CC-PV(D+D)Z
    Blend: CC-PV(D+D)Z
    Number of shells: 15
    Number of basis function: 29
    Number of Cartesian functions: 30
    Spherical Harmonics?: true
    Max angular momentum: 2

  ==> DFT Potential <==

   => Composite Functional: WB97M-V <= 

    wB97M-V Hyb-GGA Exchange-Correlation Functional

    N. Mardirossian and M. Head-Gordon, J. Chem. Phys. 144, 214110 (2016)

    Deriv               =              1
    GGA                 =           TRUE
    Meta                =           TRUE

    Exchange Hybrid     =           TRUE
    MP2 Hybrid          =          FALSE

   => Exchange-Correlation Functionals <=

    1.0000   wB97M-V exchange-correlation functional

   => Exact (HF) Exchange <=

    0.8500            HF,LR [omega = 0.3000]
    0.1500               HF 

   => VV10 Non-Local Parameters <=

    VV10 B              =     6.0000E+00
    VV10 C              =     1.0000E-02

   => Molecular Quadrature <=

    Radial Scheme          =       TREUTLER
    Pruning Scheme         =           FLAT
    Nuclear Scheme         =       TREUTLER

    BS radius alpha        =              1
    Pruning alpha          =              1
    Radial Points          =             75
    Spherical Points       =            302
    Total Points           =          89934
    Total Blocks           =            746
    Max Points             =            256
    Max Functions          =             29

   => Loading Basis Set <=

    Name: (CC-PV(D+D)Z AUX)
    Role: JKFIT
    Keyword: DF_BASIS_SCF
    atoms 1   entry B          line    71 file /work/zw18965/.conda/envs/p4env/share/psi4/basis/cc-pvdz-jkfit.gbs 
    atoms 2-4 entry H          line    51 file /work/zw18965/.conda/envs/p4env/share/psi4/basis/cc-pvdz-jkfit.gbs 

  ==> Pre-Iterations <==

   -------------------------------------------------------
    Irrep   Nso     Nmo     Nalpha   Nbeta   Ndocc  Nsocc
   -------------------------------------------------------
     A1        14      14       0       0       0       0
     A2         2       2       0       0       0       0
     B1         8       8       0       0       0       0
     B2         5       5       0       0       0       0
   -------------------------------------------------------
    Total      29      29       4       4       4       0
   -------------------------------------------------------

  ==> Integral Setup <==

  ==> DiskDFJK: Density-Fitted J/K Matrices <==

    J tasked:                  Yes
    K tasked:                  Yes
    wK tasked:                 Yes
    Omega:               3.000E-01
    OpenMP threads:             24
    Integrals threads:          24
    Memory [MiB]:           102806
    Algorithm:                Core
    Integral Cache:           NONE
    Schwarz Cutoff:          1E-12
    Fitting Condition:       1E-10

   => Auxiliary Basis Set <=

  Basis Set: (CC-PV(D+D)Z AUX)
    Blend: CC-PVDZ-JKFIT
    Number of shells: 51
    Number of basis function: 139
    Number of Cartesian functions: 156
    Spherical Harmonics?: true
    Max angular momentum: 3

  Cached 100.0% of DFT collocation blocks in 0.186 [GiB].

  Minimum eigenvalue in the overlap matrix is 1.6609879605E-02.
  Using Symmetric Orthogonalization.

  SCF Guess: Superposition of Atomic Densities via on-the-fly atomic UHF.

  ==> Iterations <==

                           Total Energy        Delta E     RMS |[F,P]|

   @DF-RKS iter SAD:   -25.93965900979249   -2.59397e+01   0.00000e+00 
   @DF-RKS iter   1:   -26.56017531946754   -6.20516e-01   5.81765e-03 DIIS
   @DF-RKS iter   2:   -26.56749670262658   -7.32138e-03   1.73755e-03 DIIS
   @DF-RKS iter   3:   -26.56812578415789   -6.29082e-04   1.83531e-04 DIIS
   @DF-RKS iter   4:   -26.56814180451024   -1.60204e-05   3.94923e-05 DIIS
   @DF-RKS iter   5:   -26.56814262148544   -8.16975e-07   2.06832e-06 DIIS
   @DF-RKS iter   6:   -26.56814262295784   -1.47240e-09   1.54985e-07 DIIS
   @DF-RKS iter   7:   -26.56814262296928   -1.14433e-11   1.78504e-08 DIIS
   @DF-RKS iter   8:   -26.56814262296941   -1.27898e-13   3.46163e-10 DIIS
  Energy and wave function converged.


  ==> Post-Iterations <==

    Orbital Energies [Eh]
    ---------------------

    Doubly Occupied:                                                      

       1A1    -6.935339     2A1    -0.623755     1B1    -0.447717  
       3A1    -0.447021  

    Virtual:                                                              

       1B2     0.009832     4A1     0.204750     5A1     0.219106  
       2B1     0.219581     3B1     0.336831     6A1     0.337121  
       2B2     0.398419     7A1     0.436756     8A1     0.679846  
       4B1     0.681146     9A1     0.722204     1A2     0.746246  
       3B2     0.746386    10A1     1.112076     5B1     1.220926  
      11A1     1.221536     6B1     1.399045     4B2     1.605908  
       5B2     1.758311     2A2     1.760642    12A1     2.071462  
       7B1     2.072295    13A1     2.283002    14A1     2.361392  
       8B1     2.363763  

    Final Occupation by Irrep:
             A1    A2    B1    B2 
    DOCC [     3,    0,    1,    0 ]

  @DF-RKS Final Energy:   -26.56814262296941

   => Energetics <=

    Nuclear Repulsion Energy =              7.4411497575728172
    One-Electron Energy =                 -49.0603934618611390
    Two-Electron Energy =                  18.3721362708490794
    DFT Exchange-Correlation Energy =      -3.3549105981849885
    Empirical Dispersion Energy =           0.0000000000000000
    VV10 Nonlocal Energy =                  0.0338754086548232
    Total Energy =                        -26.5681426229694111

Computation Completed


Properties will be evaluated at   0.000000,   0.000000,   0.000000 [a0]

Properties computed using the SCF density matrix

  Nuclear Dipole Moment: [e a0]
     X:     0.0000      Y:     0.0000      Z:     0.0041

  Electronic Dipole Moment: [e a0]
     X:     0.0000      Y:     0.0000      Z:    -0.0059

  Dipole Moment: [e a0]
     X:     0.0000      Y:     0.0000      Z:    -0.0018     Total:     0.0018

  Dipole Moment: [D]
     X:     0.0000      Y:     0.0000      Z:    -0.0045     Total:     0.0045


*** tstop() called on bp1-compute00100.data.bp.acrc.priv at Tue Apr 27 18:09:08 2021
Module time:
	user time   =      67.59 seconds =       1.13 minutes
	system time =       2.04 seconds =       0.03 minutes
	total time  =          3 seconds =       0.05 minutes
Total time:
	user time   =     137.18 seconds =       2.29 minutes
	system time =       4.63 seconds =       0.08 minutes
	total time  =          7 seconds =       0.12 minutes

  //>>>>>>>>>>>>>>>>>>>>>>>>>>>>>>>>>>>//
  //    Loading displacement 3 of 7    //
  //<<<<<<<<<<<<<<<<<<<<<<<<<<<<<<<<<<<//

*** tstart() called on bp1-compute00100.data.bp.acrc.priv
*** at Tue Apr 27 18:09:08 2021

   => Loading Basis Set <=

    Name: CC-PV(D+D)Z
    Role: ORBITAL
    Keyword: BASIS
    atoms 1   entry B          line   117 file /work/zw18965/.conda/envs/p4env/share/psi4/basis/cc-pv_dpd_z.gbs 
    atoms 2-4 entry H          line    31 file /work/zw18965/.conda/envs/p4env/share/psi4/basis/cc-pv_dpd_z.gbs 


         ---------------------------------------------------------
                                   SCF
               by Justin Turney, Rob Parrish, Andy Simmonett
                          and Daniel G. A. Smith
                              RKS Reference
                       24 Threads, 137329 MiB Core
         ---------------------------------------------------------

  ==> Geometry <==

    Molecular point group: c2v
    Full point group: C2v

    Geometry (in Angstrom), charge = 0, multiplicity = 1:

       Center              X                  Y                   Z               Mass       
    ------------   -----------------  -----------------  -----------------  -----------------
         B            0.000000000000     0.000000000000     0.000370145531    11.009305360000
         H            0.000000000000     0.000000000000     1.188552198198     1.007825032230
         H            1.030483628000     0.000000000000    -0.596297801802     1.007825032230
         H           -1.030483628000    -0.000000000000    -0.596297801802     1.007825032230

  Running in c2v symmetry.

  Rotational constants: A =      7.87588  B =      7.87586  C =      3.93793 [cm^-1]
  Rotational constants: A = 236112.98413  B = 236112.21188  C = 118056.29900 [MHz]
  Nuclear repulsion =    7.441149782668525

  Charge       = 0
  Multiplicity = 1
  Electrons    = 8
  Nalpha       = 4
  Nbeta        = 4

  ==> Algorithm <==

  SCF Algorithm Type is DF.
  DIIS enabled.
  MOM disabled.
  Fractional occupation disabled.
  Guess Type is SAD.
  Energy threshold   = 1.00e-08
  Density threshold  = 1.00e-08
  Integral threshold = 0.00e+00

  ==> Primary Basis <==

  Basis Set: CC-PV(D+D)Z
    Blend: CC-PV(D+D)Z
    Number of shells: 15
    Number of basis function: 29
    Number of Cartesian functions: 30
    Spherical Harmonics?: true
    Max angular momentum: 2

  ==> DFT Potential <==

   => Composite Functional: WB97M-V <= 

    wB97M-V Hyb-GGA Exchange-Correlation Functional

    N. Mardirossian and M. Head-Gordon, J. Chem. Phys. 144, 214110 (2016)

    Deriv               =              1
    GGA                 =           TRUE
    Meta                =           TRUE

    Exchange Hybrid     =           TRUE
    MP2 Hybrid          =          FALSE

   => Exchange-Correlation Functionals <=

    1.0000   wB97M-V exchange-correlation functional

   => Exact (HF) Exchange <=

    0.8500            HF,LR [omega = 0.3000]
    0.1500               HF 

   => VV10 Non-Local Parameters <=

    VV10 B              =     6.0000E+00
    VV10 C              =     1.0000E-02

   => Molecular Quadrature <=

    Radial Scheme          =       TREUTLER
    Pruning Scheme         =           FLAT
    Nuclear Scheme         =       TREUTLER

    BS radius alpha        =              1
    Pruning alpha          =              1
    Radial Points          =             75
    Spherical Points       =            302
    Total Points           =          89938
    Total Blocks           =            747
    Max Points             =            256
    Max Functions          =             29

   => Loading Basis Set <=

    Name: (CC-PV(D+D)Z AUX)
    Role: JKFIT
    Keyword: DF_BASIS_SCF
    atoms 1   entry B          line    71 file /work/zw18965/.conda/envs/p4env/share/psi4/basis/cc-pvdz-jkfit.gbs 
    atoms 2-4 entry H          line    51 file /work/zw18965/.conda/envs/p4env/share/psi4/basis/cc-pvdz-jkfit.gbs 

  ==> Pre-Iterations <==

   -------------------------------------------------------
    Irrep   Nso     Nmo     Nalpha   Nbeta   Ndocc  Nsocc
   -------------------------------------------------------
     A1        14      14       0       0       0       0
     A2         2       2       0       0       0       0
     B1         8       8       0       0       0       0
     B2         5       5       0       0       0       0
   -------------------------------------------------------
    Total      29      29       4       4       4       0
   -------------------------------------------------------

  ==> Integral Setup <==

  ==> DiskDFJK: Density-Fitted J/K Matrices <==

    J tasked:                  Yes
    K tasked:                  Yes
    wK tasked:                 Yes
    Omega:               3.000E-01
    OpenMP threads:             24
    Integrals threads:          24
    Memory [MiB]:           102806
    Algorithm:                Core
    Integral Cache:           NONE
    Schwarz Cutoff:          1E-12
    Fitting Condition:       1E-10

   => Auxiliary Basis Set <=

  Basis Set: (CC-PV(D+D)Z AUX)
    Blend: CC-PVDZ-JKFIT
    Number of shells: 51
    Number of basis function: 139
    Number of Cartesian functions: 156
    Spherical Harmonics?: true
    Max angular momentum: 3

  Cached 100.0% of DFT collocation blocks in 0.186 [GiB].

  Minimum eigenvalue in the overlap matrix is 1.6609878358E-02.
  Using Symmetric Orthogonalization.

  SCF Guess: Superposition of Atomic Densities via on-the-fly atomic UHF.

  ==> Iterations <==

                           Total Energy        Delta E     RMS |[F,P]|

   @DF-RKS iter SAD:   -25.93965898055981   -2.59397e+01   0.00000e+00 
   @DF-RKS iter   1:   -26.56017530151950   -6.20516e-01   5.81765e-03 DIIS
   @DF-RKS iter   2:   -26.56749669126860   -7.32139e-03   1.73756e-03 DIIS
   @DF-RKS iter   3:   -26.56812577412364   -6.29083e-04   1.83531e-04 DIIS
   @DF-RKS iter   4:   -26.56814179446809   -1.60203e-05   3.94923e-05 DIIS
   @DF-RKS iter   5:   -26.56814261144356   -8.16975e-07   2.06832e-06 DIIS
   @DF-RKS iter   6:   -26.56814261291598   -1.47242e-09   1.54984e-07 DIIS
   @DF-RKS iter   7:   -26.56814261292741   -1.14326e-11   1.78506e-08 DIIS
   @DF-RKS iter   8:   -26.56814261292751   -1.03029e-13   3.46633e-10 DIIS
  Energy and wave function converged.


  ==> Post-Iterations <==

    Orbital Energies [Eh]
    ---------------------

    Doubly Occupied:                                                      

       1A1    -6.935339     2A1    -0.623755     3A1    -0.447718  
       1B1    -0.447020  

    Virtual:                                                              

       1B2     0.009832     4A1     0.204750     2B1     0.219106  
       5A1     0.219581     6A1     0.336829     3B1     0.337123  
       2B2     0.398419     7A1     0.436756     4B1     0.679846  
       8A1     0.681145     9A1     0.722204     3B2     0.746246  
       1A2     0.746386    10A1     1.112076    11A1     1.220940  
       5B1     1.221522     6B1     1.399045     4B2     1.605908  
       2A2     1.758315     5B2     1.760639     7B1     2.071471  
      12A1     2.072286    13A1     2.283004     8B1     2.361319  
      14A1     2.363833  

    Final Occupation by Irrep:
             A1    A2    B1    B2 
    DOCC [     3,    0,    1,    0 ]

  @DF-RKS Final Energy:   -26.56814261292751

   => Energetics <=

    Nuclear Repulsion Energy =              7.4411497826685249
    One-Electron Energy =                 -49.0603934848402261
    Two-Electron Energy =                  18.3721362933631518
    DFT Exchange-Correlation Energy =      -3.3549106255222001
    Empirical Dispersion Energy =           0.0000000000000000
    VV10 Nonlocal Energy =                  0.0338754214032376
    Total Energy =                        -26.5681426129275131

Computation Completed


Properties will be evaluated at   0.000000,   0.000000,   0.000000 [a0]

Properties computed using the SCF density matrix

  Nuclear Dipole Moment: [e a0]
     X:     0.0000      Y:     0.0000      Z:    -0.0041

  Electronic Dipole Moment: [e a0]
     X:     0.0000      Y:     0.0000      Z:     0.0059

  Dipole Moment: [e a0]
     X:     0.0000      Y:     0.0000      Z:     0.0018     Total:     0.0018

  Dipole Moment: [D]
     X:     0.0000      Y:     0.0000      Z:     0.0045     Total:     0.0045


*** tstop() called on bp1-compute00100.data.bp.acrc.priv at Tue Apr 27 18:09:10 2021
Module time:
	user time   =      65.75 seconds =       1.10 minutes
	system time =       1.81 seconds =       0.03 minutes
	total time  =          2 seconds =       0.03 minutes
Total time:
	user time   =     203.11 seconds =       3.39 minutes
	system time =       6.44 seconds =       0.11 minutes
	total time  =          9 seconds =       0.15 minutes

  //>>>>>>>>>>>>>>>>>>>>>>>>>>>>>>>>>>>//
  //    Loading displacement 4 of 7    //
  //<<<<<<<<<<<<<<<<<<<<<<<<<<<<<<<<<<<//

*** tstart() called on bp1-compute00100.data.bp.acrc.priv
*** at Tue Apr 27 18:09:10 2021

   => Loading Basis Set <=

    Name: CC-PV(D+D)Z
    Role: ORBITAL
    Keyword: BASIS
    atoms 1   entry B          line   117 file /work/zw18965/.conda/envs/p4env/share/psi4/basis/cc-pv_dpd_z.gbs 
    atoms 2-4 entry H          line    31 file /work/zw18965/.conda/envs/p4env/share/psi4/basis/cc-pv_dpd_z.gbs 


         ---------------------------------------------------------
                                   SCF
               by Justin Turney, Rob Parrish, Andy Simmonett
                          and Daniel G. A. Smith
                              RKS Reference
                       24 Threads, 137329 MiB Core
         ---------------------------------------------------------

  ==> Geometry <==

    Molecular point group: c2v
    Full point group: C2v

    Geometry (in Angstrom), charge = 0, multiplicity = 1:

       Center              X                  Y                   Z               Mass       
    ------------   -----------------  -----------------  -----------------  -----------------
         B            0.000000000000     0.000000000000     0.000000000000    11.009305360000
         H            0.000000000000     0.000000000000     1.187748046231     1.007825032230
         H            1.030483628000     0.000000000000    -0.593874023116     1.007825032230
         H           -1.030483628000    -0.000000000000    -0.593874023116     1.007825032230

  Running in c2v symmetry.

  Rotational constants: A =      7.90445  B =      7.87588  C =      3.94507 [cm^-1]
  Rotational constants: A = 236969.33498  B = 236112.98413  C = 118270.19225 [MHz]
  Nuclear repulsion =    7.447882629671120

  Charge       = 0
  Multiplicity = 1
  Electrons    = 8
  Nalpha       = 4
  Nbeta        = 4

  ==> Algorithm <==

  SCF Algorithm Type is DF.
  DIIS enabled.
  MOM disabled.
  Fractional occupation disabled.
  Guess Type is SAD.
  Energy threshold   = 1.00e-08
  Density threshold  = 1.00e-08
  Integral threshold = 0.00e+00

  ==> Primary Basis <==

  Basis Set: CC-PV(D+D)Z
    Blend: CC-PV(D+D)Z
    Number of shells: 15
    Number of basis function: 29
    Number of Cartesian functions: 30
    Spherical Harmonics?: true
    Max angular momentum: 2

  ==> DFT Potential <==

   => Composite Functional: WB97M-V <= 

    wB97M-V Hyb-GGA Exchange-Correlation Functional

    N. Mardirossian and M. Head-Gordon, J. Chem. Phys. 144, 214110 (2016)

    Deriv               =              1
    GGA                 =           TRUE
    Meta                =           TRUE

    Exchange Hybrid     =           TRUE
    MP2 Hybrid          =          FALSE

   => Exchange-Correlation Functionals <=

    1.0000   wB97M-V exchange-correlation functional

   => Exact (HF) Exchange <=

    0.8500            HF,LR [omega = 0.3000]
    0.1500               HF 

   => VV10 Non-Local Parameters <=

    VV10 B              =     6.0000E+00
    VV10 C              =     1.0000E-02

   => Molecular Quadrature <=

    Radial Scheme          =       TREUTLER
    Pruning Scheme         =           FLAT
    Nuclear Scheme         =       TREUTLER

    BS radius alpha        =              1
    Pruning alpha          =              1
    Radial Points          =             75
    Spherical Points       =            302
    Total Points           =          89938
    Total Blocks           =            748
    Max Points             =            256
    Max Functions          =             29

   => Loading Basis Set <=

    Name: (CC-PV(D+D)Z AUX)
    Role: JKFIT
    Keyword: DF_BASIS_SCF
    atoms 1   entry B          line    71 file /work/zw18965/.conda/envs/p4env/share/psi4/basis/cc-pvdz-jkfit.gbs 
    atoms 2-4 entry H          line    51 file /work/zw18965/.conda/envs/p4env/share/psi4/basis/cc-pvdz-jkfit.gbs 

  ==> Pre-Iterations <==

   -------------------------------------------------------
    Irrep   Nso     Nmo     Nalpha   Nbeta   Ndocc  Nsocc
   -------------------------------------------------------
     A1        14      14       0       0       0       0
     A2         2       2       0       0       0       0
     B1         8       8       0       0       0       0
     B2         5       5       0       0       0       0
   -------------------------------------------------------
    Total      29      29       4       4       4       0
   -------------------------------------------------------

  ==> Integral Setup <==

  ==> DiskDFJK: Density-Fitted J/K Matrices <==

    J tasked:                  Yes
    K tasked:                  Yes
    wK tasked:                 Yes
    Omega:               3.000E-01
    OpenMP threads:             24
    Integrals threads:          24
    Memory [MiB]:           102806
    Algorithm:                Core
    Integral Cache:           NONE
    Schwarz Cutoff:          1E-12
    Fitting Condition:       1E-10

   => Auxiliary Basis Set <=

  Basis Set: (CC-PV(D+D)Z AUX)
    Blend: CC-PVDZ-JKFIT
    Number of shells: 51
    Number of basis function: 139
    Number of Cartesian functions: 156
    Spherical Harmonics?: true
    Max angular momentum: 3

  Cached 100.0% of DFT collocation blocks in 0.186 [GiB].

  Minimum eigenvalue in the overlap matrix is 1.6556112019E-02.
  Using Symmetric Orthogonalization.

  SCF Guess: Superposition of Atomic Densities via on-the-fly atomic UHF.

  ==> Iterations <==

                           Total Energy        Delta E     RMS |[F,P]|

   @DF-RKS iter SAD:   -25.94022146441780   -2.59402e+01   0.00000e+00 
   @DF-RKS iter   1:   -26.56010495395786   -6.19883e-01   5.83268e-03 DIIS
   @DF-RKS iter   2:   -26.56746216738719   -7.35721e-03   1.74025e-03 DIIS
   @DF-RKS iter   3:   -26.56809276241502   -6.30595e-04   1.83342e-04 DIIS
   @DF-RKS iter   4:   -26.56810874388410   -1.59815e-05   3.94501e-05 DIIS
   @DF-RKS iter   5:   -26.56810955868474   -8.14801e-07   2.06653e-06 DIIS
   @DF-RKS iter   6:   -26.56810956015642   -1.47168e-09   1.55396e-07 DIIS
   @DF-RKS iter   7:   -26.56810956016787   -1.14504e-11   1.81205e-08 DIIS
   @DF-RKS iter   8:   -26.56810956016799   -1.17240e-13   8.00156e-10 DIIS
  Energy and wave function converged.


  ==> Post-Iterations <==

    Orbital Energies [Eh]
    ---------------------

    Doubly Occupied:                                                      

       1A1    -6.935017     2A1    -0.623936     1B1    -0.447499  
       3A1    -0.447493  

    Virtual:                                                              

       1B2     0.009887     4A1     0.205065     5A1     0.219458  
       2B1     0.219533     6A1     0.336944     3B1     0.336952  
       2B2     0.398482     7A1     0.436651     8A1     0.680880  
       4B1     0.680903     9A1     0.722789     1A2     0.746353  
       3B2     0.746481    10A1     1.112729     5B1     1.221368  
      11A1     1.223021     6B1     1.399482     4B2     1.606655  
       5B2     1.760019     2A2     1.760288    12A1     2.072774  
       7B1     2.074631    13A1     2.285019     8B1     2.363869  
      14A1     2.364696  

    Final Occupation by Irrep:
             A1    A2    B1    B2 
    DOCC [     3,    0,    1,    0 ]

  @DF-RKS Final Energy:   -26.56810956016799

   => Energetics <=

    Nuclear Repulsion Energy =              7.4478826296711205
    One-Electron Energy =                 -49.0731298947470549
    Two-Electron Energy =                  18.3788980307640735
    DFT Exchange-Correlation Energy =      -3.3556365965302670
    Empirical Dispersion Energy =           0.0000000000000000
    VV10 Nonlocal Energy =                  0.0338762706741401
    Total Energy =                        -26.5681095601679900

Computation Completed


Properties will be evaluated at   0.000000,   0.000000,   0.000000 [a0]

Properties computed using the SCF density matrix

  Nuclear Dipole Moment: [e a0]
     X:     0.0000      Y:     0.0000      Z:     0.0000

  Electronic Dipole Moment: [e a0]
     X:     0.0000      Y:     0.0000      Z:     0.0006

  Dipole Moment: [e a0]
     X:     0.0000      Y:     0.0000      Z:     0.0006     Total:     0.0006

  Dipole Moment: [D]
     X:     0.0000      Y:     0.0000      Z:     0.0016     Total:     0.0016


*** tstop() called on bp1-compute00100.data.bp.acrc.priv at Tue Apr 27 18:09:13 2021
Module time:
	user time   =      65.10 seconds =       1.08 minutes
	system time =       1.84 seconds =       0.03 minutes
	total time  =          3 seconds =       0.05 minutes
Total time:
	user time   =     268.34 seconds =       4.47 minutes
	system time =       8.29 seconds =       0.14 minutes
	total time  =         12 seconds =       0.20 minutes

  //>>>>>>>>>>>>>>>>>>>>>>>>>>>>>>>>>>>//
  //    Loading displacement 5 of 7    //
  //<<<<<<<<<<<<<<<<<<<<<<<<<<<<<<<<<<<//

*** tstart() called on bp1-compute00100.data.bp.acrc.priv
*** at Tue Apr 27 18:09:13 2021

   => Loading Basis Set <=

    Name: CC-PV(D+D)Z
    Role: ORBITAL
    Keyword: BASIS
    atoms 1   entry B          line   117 file /work/zw18965/.conda/envs/p4env/share/psi4/basis/cc-pv_dpd_z.gbs 
    atoms 2-4 entry H          line    31 file /work/zw18965/.conda/envs/p4env/share/psi4/basis/cc-pv_dpd_z.gbs 


         ---------------------------------------------------------
                                   SCF
               by Justin Turney, Rob Parrish, Andy Simmonett
                          and Daniel G. A. Smith
                              RKS Reference
                       24 Threads, 137329 MiB Core
         ---------------------------------------------------------

  ==> Geometry <==

    Molecular point group: c2v
    Full point group: C2v

    Geometry (in Angstrom), charge = 0, multiplicity = 1:

       Center              X                  Y                   Z               Mass       
    ------------   -----------------  -----------------  -----------------  -----------------
         B            0.000000000000     0.000000000000     0.000000000000    11.009305360000
         H            0.000000000000     0.000000000000     1.192051953769     1.007825032230
         H            1.030483628000     0.000000000000    -0.596025976884     1.007825032230
         H           -1.030483628000    -0.000000000000    -0.596025976884     1.007825032230

  Running in c2v symmetry.

  Rotational constants: A =      7.87588  B =      7.84747  C =      3.93083 [cm^-1]
  Rotational constants: A = 236112.98413  B = 235261.26691  C = 117843.17802 [MHz]
  Nuclear repulsion =    7.434425169199378

  Charge       = 0
  Multiplicity = 1
  Electrons    = 8
  Nalpha       = 4
  Nbeta        = 4

  ==> Algorithm <==

  SCF Algorithm Type is DF.
  DIIS enabled.
  MOM disabled.
  Fractional occupation disabled.
  Guess Type is SAD.
  Energy threshold   = 1.00e-08
  Density threshold  = 1.00e-08
  Integral threshold = 0.00e+00

  ==> Primary Basis <==

  Basis Set: CC-PV(D+D)Z
    Blend: CC-PV(D+D)Z
    Number of shells: 15
    Number of basis function: 29
    Number of Cartesian functions: 30
    Spherical Harmonics?: true
    Max angular momentum: 2

  ==> DFT Potential <==

   => Composite Functional: WB97M-V <= 

    wB97M-V Hyb-GGA Exchange-Correlation Functional

    N. Mardirossian and M. Head-Gordon, J. Chem. Phys. 144, 214110 (2016)

    Deriv               =              1
    GGA                 =           TRUE
    Meta                =           TRUE

    Exchange Hybrid     =           TRUE
    MP2 Hybrid          =          FALSE

   => Exchange-Correlation Functionals <=

    1.0000   wB97M-V exchange-correlation functional

   => Exact (HF) Exchange <=

    0.8500            HF,LR [omega = 0.3000]
    0.1500               HF 

   => VV10 Non-Local Parameters <=

    VV10 B              =     6.0000E+00
    VV10 C              =     1.0000E-02

   => Molecular Quadrature <=

    Radial Scheme          =       TREUTLER
    Pruning Scheme         =           FLAT
    Nuclear Scheme         =       TREUTLER

    BS radius alpha        =              1
    Pruning alpha          =              1
    Radial Points          =             75
    Spherical Points       =            302
    Total Points           =          89938
    Total Blocks           =            744
    Max Points             =            256
    Max Functions          =             29

   => Loading Basis Set <=

    Name: (CC-PV(D+D)Z AUX)
    Role: JKFIT
    Keyword: DF_BASIS_SCF
    atoms 1   entry B          line    71 file /work/zw18965/.conda/envs/p4env/share/psi4/basis/cc-pvdz-jkfit.gbs 
    atoms 2-4 entry H          line    51 file /work/zw18965/.conda/envs/p4env/share/psi4/basis/cc-pvdz-jkfit.gbs 

  ==> Pre-Iterations <==

   -------------------------------------------------------
    Irrep   Nso     Nmo     Nalpha   Nbeta   Ndocc  Nsocc
   -------------------------------------------------------
     A1        14      14       0       0       0       0
     A2         2       2       0       0       0       0
     B1         8       8       0       0       0       0
     B2         5       5       0       0       0       0
   -------------------------------------------------------
    Total      29      29       4       4       4       0
   -------------------------------------------------------

  ==> Integral Setup <==

  ==> DiskDFJK: Density-Fitted J/K Matrices <==

    J tasked:                  Yes
    K tasked:                  Yes
    wK tasked:                 Yes
    Omega:               3.000E-01
    OpenMP threads:             24
    Integrals threads:          24
    Memory [MiB]:           102806
    Algorithm:                Core
    Integral Cache:           NONE
    Schwarz Cutoff:          1E-12
    Fitting Condition:       1E-10

   => Auxiliary Basis Set <=

  Basis Set: (CC-PV(D+D)Z AUX)
    Blend: CC-PVDZ-JKFIT
    Number of shells: 51
    Number of basis function: 139
    Number of Cartesian functions: 156
    Spherical Harmonics?: true
    Max angular momentum: 3

  Cached 100.0% of DFT collocation blocks in 0.186 [GiB].

  Minimum eigenvalue in the overlap matrix is 1.6663323436E-02.
  Using Symmetric Orthogonalization.

  SCF Guess: Superposition of Atomic Densities via on-the-fly atomic UHF.

  ==> Iterations <==

                           Total Energy        Delta E     RMS |[F,P]|

   @DF-RKS iter SAD:   -25.93909727416234   -2.59391e+01   0.00000e+00 
   @DF-RKS iter   1:   -26.56024482622302   -6.21148e-01   5.80264e-03 DIIS
   @DF-RKS iter   2:   -26.56753046784347   -7.28564e-03   1.73483e-03 DIIS
   @DF-RKS iter   3:   -26.56815801896158   -6.27551e-04   1.83717e-04 DIIS
   @DF-RKS iter   4:   -26.56817407738139   -1.60584e-05   3.95336e-05 DIIS
   @DF-RKS iter   5:   -26.56817489648920   -8.19108e-07   2.07045e-06 DIIS
   @DF-RKS iter   6:   -26.56817489796266   -1.47347e-09   1.55088e-07 DIIS
   @DF-RKS iter   7:   -26.56817489797410   -1.14362e-11   1.81948e-08 DIIS
   @DF-RKS iter   8:   -26.56817489797424   -1.42109e-13   8.00860e-10 DIIS
  Energy and wave function converged.


  ==> Post-Iterations <==

    Orbital Energies [Eh]
    ---------------------

    Doubly Occupied:                                                      

       1A1    -6.935660     2A1    -0.623574     3A1    -0.447245  
       1B1    -0.447239  

    Virtual:                                                              

       1B2     0.009777     4A1     0.204431     2B1     0.219154  
       5A1     0.219233     3B1     0.337001     6A1     0.337008  
       2B2     0.398357     7A1     0.436860     4B1     0.680089  
       8A1     0.680102     9A1     0.721631     3B2     0.746151  
       1A2     0.746279    10A1     1.111440    11A1     1.219440  
       5B1     1.221082     6B1     1.398612     4B2     1.605158  
       2A2     1.758668     5B2     1.758934     7B1     2.069138  
      12A1     2.070958    13A1     2.281119    14A1     2.360418  
       8B1     2.361205  

    Final Occupation by Irrep:
             A1    A2    B1    B2 
    DOCC [     3,    0,    1,    0 ]

  @DF-RKS Final Energy:   -26.56817489797424

   => Energetics <=

    Nuclear Repulsion Energy =              7.4344251691993781
    One-Electron Energy =                 -49.0476736552175581
    Two-Electron Energy =                  18.3653844342950912
    DFT Exchange-Correlation Energy =      -3.3541854059671561
    Empirical Dispersion Energy =           0.0000000000000000
    VV10 Nonlocal Energy =                  0.0338745597160039
    Total Energy =                        -26.5681748979742380

Computation Completed


Properties will be evaluated at   0.000000,   0.000000,   0.000000 [a0]

Properties computed using the SCF density matrix

  Nuclear Dipole Moment: [e a0]
     X:     0.0000      Y:     0.0000      Z:    -0.0000

  Electronic Dipole Moment: [e a0]
     X:     0.0000      Y:     0.0000      Z:    -0.0006

  Dipole Moment: [e a0]
     X:     0.0000      Y:     0.0000      Z:    -0.0006     Total:     0.0006

  Dipole Moment: [D]
     X:     0.0000      Y:     0.0000      Z:    -0.0015     Total:     0.0015


*** tstop() called on bp1-compute00100.data.bp.acrc.priv at Tue Apr 27 18:09:16 2021
Module time:
	user time   =      63.69 seconds =       1.06 minutes
	system time =       1.76 seconds =       0.03 minutes
	total time  =          3 seconds =       0.05 minutes
Total time:
	user time   =     332.18 seconds =       5.54 minutes
	system time =      10.06 seconds =       0.17 minutes
	total time  =         15 seconds =       0.25 minutes

  //>>>>>>>>>>>>>>>>>>>>>>>>>>>>>>>>>>>//
  //    Loading displacement 6 of 7    //
  //<<<<<<<<<<<<<<<<<<<<<<<<<<<<<<<<<<<//

*** tstart() called on bp1-compute00100.data.bp.acrc.priv
*** at Tue Apr 27 18:09:16 2021

   => Loading Basis Set <=

    Name: CC-PV(D+D)Z
    Role: ORBITAL
    Keyword: BASIS
    atoms 1   entry B          line   117 file /work/zw18965/.conda/envs/p4env/share/psi4/basis/cc-pv_dpd_z.gbs 
    atoms 2-4 entry H          line    31 file /work/zw18965/.conda/envs/p4env/share/psi4/basis/cc-pv_dpd_z.gbs 


         ---------------------------------------------------------
                                   SCF
               by Justin Turney, Rob Parrish, Andy Simmonett
                          and Daniel G. A. Smith
                              RKS Reference
                       24 Threads, 137329 MiB Core
         ---------------------------------------------------------

  ==> Geometry <==

    Molecular point group: c2v
    Full point group: C2v

    Geometry (in Angstrom), charge = 0, multiplicity = 1:

       Center              X                  Y                   Z               Mass       
    ------------   -----------------  -----------------  -----------------  -----------------
         B            0.000000000000     0.000000000000     0.000000000000    11.009305360000
         H            0.000000000000     0.000000000000     1.189900000000     1.007825032230
         H            1.028619981368     0.000000000000    -0.594950000000     1.007825032230
         H           -1.028619981368    -0.000000000000    -0.594950000000     1.007825032230

  Running in c2v symmetry.

  Rotational constants: A =      7.90445  B =      7.87588  C =      3.94507 [cm^-1]
  Rotational constants: A = 236969.33496  B = 236112.98414  C = 118270.19225 [MHz]
  Nuclear repulsion =    7.447882624197644

  Charge       = 0
  Multiplicity = 1
  Electrons    = 8
  Nalpha       = 4
  Nbeta        = 4

  ==> Algorithm <==

  SCF Algorithm Type is DF.
  DIIS enabled.
  MOM disabled.
  Fractional occupation disabled.
  Guess Type is SAD.
  Energy threshold   = 1.00e-08
  Density threshold  = 1.00e-08
  Integral threshold = 0.00e+00

  ==> Primary Basis <==

  Basis Set: CC-PV(D+D)Z
    Blend: CC-PV(D+D)Z
    Number of shells: 15
    Number of basis function: 29
    Number of Cartesian functions: 30
    Spherical Harmonics?: true
    Max angular momentum: 2

  ==> DFT Potential <==

   => Composite Functional: WB97M-V <= 

    wB97M-V Hyb-GGA Exchange-Correlation Functional

    N. Mardirossian and M. Head-Gordon, J. Chem. Phys. 144, 214110 (2016)

    Deriv               =              1
    GGA                 =           TRUE
    Meta                =           TRUE

    Exchange Hybrid     =           TRUE
    MP2 Hybrid          =          FALSE

   => Exchange-Correlation Functionals <=

    1.0000   wB97M-V exchange-correlation functional

   => Exact (HF) Exchange <=

    0.8500            HF,LR [omega = 0.3000]
    0.1500               HF 

   => VV10 Non-Local Parameters <=

    VV10 B              =     6.0000E+00
    VV10 C              =     1.0000E-02

   => Molecular Quadrature <=

    Radial Scheme          =       TREUTLER
    Pruning Scheme         =           FLAT
    Nuclear Scheme         =       TREUTLER

    BS radius alpha        =              1
    Pruning alpha          =              1
    Radial Points          =             75
    Spherical Points       =            302
    Total Points           =          89938
    Total Blocks           =            746
    Max Points             =            256
    Max Functions          =             29

   => Loading Basis Set <=

    Name: (CC-PV(D+D)Z AUX)
    Role: JKFIT
    Keyword: DF_BASIS_SCF
    atoms 1   entry B          line    71 file /work/zw18965/.conda/envs/p4env/share/psi4/basis/cc-pvdz-jkfit.gbs 
    atoms 2-4 entry H          line    51 file /work/zw18965/.conda/envs/p4env/share/psi4/basis/cc-pvdz-jkfit.gbs 

  ==> Pre-Iterations <==

   -------------------------------------------------------
    Irrep   Nso     Nmo     Nalpha   Nbeta   Ndocc  Nsocc
   -------------------------------------------------------
     A1        14      14       0       0       0       0
     A2         2       2       0       0       0       0
     B1         8       8       0       0       0       0
     B2         5       5       0       0       0       0
   -------------------------------------------------------
    Total      29      29       4       4       4       0
   -------------------------------------------------------

  ==> Integral Setup <==

  ==> DiskDFJK: Density-Fitted J/K Matrices <==

    J tasked:                  Yes
    K tasked:                  Yes
    wK tasked:                 Yes
    Omega:               3.000E-01
    OpenMP threads:             24
    Integrals threads:          24
    Memory [MiB]:           102806
    Algorithm:                Core
    Integral Cache:           NONE
    Schwarz Cutoff:          1E-12
    Fitting Condition:       1E-10

   => Auxiliary Basis Set <=

  Basis Set: (CC-PV(D+D)Z AUX)
    Blend: CC-PVDZ-JKFIT
    Number of shells: 51
    Number of basis function: 139
    Number of Cartesian functions: 156
    Spherical Harmonics?: true
    Max angular momentum: 3

  Cached 100.0% of DFT collocation blocks in 0.186 [GiB].

  Minimum eigenvalue in the overlap matrix is 1.6556111579E-02.
  Using Symmetric Orthogonalization.

  SCF Guess: Superposition of Atomic Densities via on-the-fly atomic UHF.

  ==> Iterations <==

                           Total Energy        Delta E     RMS |[F,P]|

   @DF-RKS iter SAD:   -25.94022147170480   -2.59402e+01   0.00000e+00 
   @DF-RKS iter   1:   -26.56010496128205   -6.19883e-01   5.83268e-03 DIIS
   @DF-RKS iter   2:   -26.56746217526033   -7.35721e-03   1.74026e-03 DIIS
   @DF-RKS iter   3:   -26.56809277119165   -6.30596e-04   1.83342e-04 DIIS
   @DF-RKS iter   4:   -26.56810875266368   -1.59815e-05   3.94501e-05 DIIS
   @DF-RKS iter   5:   -26.56810956746493   -8.14801e-07   2.06653e-06 DIIS
   @DF-RKS iter   6:   -26.56810956893655   -1.47162e-09   1.55394e-07 DIIS
   @DF-RKS iter   7:   -26.56810956894804   -1.14930e-11   1.81183e-08 DIIS
   @DF-RKS iter   8:   -26.56810956894816   -1.20792e-13   7.99070e-10 DIIS
  Energy and wave function converged.


  ==> Post-Iterations <==

    Orbital Energies [Eh]
    ---------------------

    Doubly Occupied:                                                      

       1A1    -6.935017     2A1    -0.623936     3A1    -0.447500  
       1B1    -0.447492  

    Virtual:                                                              

       1B2     0.009887     4A1     0.205065     2B1     0.219455  
       5A1     0.219536     3B1     0.336946     6A1     0.336951  
       2B2     0.398482     7A1     0.436651     4B1     0.680884  
       8A1     0.680898     9A1     0.722789     3B2     0.746353  
       1A2     0.746481    10A1     1.112729    11A1     1.221371  
       5B1     1.223018     6B1     1.399482     4B2     1.606655  
       2A2     1.760018     5B2     1.760289     7B1     2.072786  
      12A1     2.074618    13A1     2.285019    14A1     2.363886  
       8B1     2.364680  

    Final Occupation by Irrep:
             A1    A2    B1    B2 
    DOCC [     3,    0,    1,    0 ]

  @DF-RKS Final Energy:   -26.56810956894816

   => Energetics <=

    Nuclear Repulsion Energy =              7.4478826241976437
    One-Electron Energy =                 -49.0731298973740735
    Two-Electron Energy =                  18.3788980420770613
    DFT Exchange-Correlation Energy =      -3.3556366098067456
    Empirical Dispersion Energy =           0.0000000000000000
    VV10 Nonlocal Energy =                  0.0338762719579519
    Total Energy =                        -26.5681095689481594

Computation Completed


Properties will be evaluated at   0.000000,   0.000000,   0.000000 [a0]

Properties computed using the SCF density matrix

  Nuclear Dipole Moment: [e a0]
     X:     0.0000      Y:     0.0000      Z:    -0.0000

  Electronic Dipole Moment: [e a0]
     X:     0.0000      Y:     0.0000      Z:    -0.0006

  Dipole Moment: [e a0]
     X:     0.0000      Y:     0.0000      Z:    -0.0006     Total:     0.0006

  Dipole Moment: [D]
     X:     0.0000      Y:     0.0000      Z:    -0.0015     Total:     0.0015


*** tstop() called on bp1-compute00100.data.bp.acrc.priv at Tue Apr 27 18:09:19 2021
Module time:
	user time   =      64.98 seconds =       1.08 minutes
	system time =       1.75 seconds =       0.03 minutes
	total time  =          3 seconds =       0.05 minutes
Total time:
	user time   =     397.30 seconds =       6.62 minutes
	system time =      11.82 seconds =       0.20 minutes
	total time  =         18 seconds =       0.30 minutes

  //>>>>>>>>>>>>>>>>>>>>>>>>>>>>>>>>>>>//
  //    Loading displacement 7 of 7    //
  //<<<<<<<<<<<<<<<<<<<<<<<<<<<<<<<<<<<//

*** tstart() called on bp1-compute00100.data.bp.acrc.priv
*** at Tue Apr 27 18:09:19 2021

   => Loading Basis Set <=

    Name: CC-PV(D+D)Z
    Role: ORBITAL
    Keyword: BASIS
    atoms 1   entry B          line   117 file /work/zw18965/.conda/envs/p4env/share/psi4/basis/cc-pv_dpd_z.gbs 
    atoms 2-4 entry H          line    31 file /work/zw18965/.conda/envs/p4env/share/psi4/basis/cc-pv_dpd_z.gbs 


         ---------------------------------------------------------
                                   SCF
               by Justin Turney, Rob Parrish, Andy Simmonett
                          and Daniel G. A. Smith
                              RKS Reference
                       24 Threads, 137329 MiB Core
         ---------------------------------------------------------

  ==> Geometry <==

    Molecular point group: c2v
    Full point group: C2v

    Geometry (in Angstrom), charge = 0, multiplicity = 1:

       Center              X                  Y                   Z               Mass       
    ------------   -----------------  -----------------  -----------------  -----------------
         B            0.000000000000    -0.000000000000     0.000000000000    11.009305360000
         H            0.000000000000    -0.000000000000     1.189900000000     1.007825032230
         H            1.032347274632     0.000000000000    -0.594950000000     1.007825032230
         H           -1.032347274632    -0.000000000000    -0.594950000000     1.007825032230

  Running in c2v symmetry.

  Rotational constants: A =      7.87588  B =      7.84747  C =      3.93083 [cm^-1]
  Rotational constants: A = 236112.98414  B = 235261.26689  C = 117843.17802 [MHz]
  Nuclear repulsion =    7.434425174633400

  Charge       = 0
  Multiplicity = 1
  Electrons    = 8
  Nalpha       = 4
  Nbeta        = 4

  ==> Algorithm <==

  SCF Algorithm Type is DF.
  DIIS enabled.
  MOM disabled.
  Fractional occupation disabled.
  Guess Type is SAD.
  Energy threshold   = 1.00e-08
  Density threshold  = 1.00e-08
  Integral threshold = 0.00e+00

  ==> Primary Basis <==

  Basis Set: CC-PV(D+D)Z
    Blend: CC-PV(D+D)Z
    Number of shells: 15
    Number of basis function: 29
    Number of Cartesian functions: 30
    Spherical Harmonics?: true
    Max angular momentum: 2

  ==> DFT Potential <==

   => Composite Functional: WB97M-V <= 

    wB97M-V Hyb-GGA Exchange-Correlation Functional

    N. Mardirossian and M. Head-Gordon, J. Chem. Phys. 144, 214110 (2016)

    Deriv               =              1
    GGA                 =           TRUE
    Meta                =           TRUE

    Exchange Hybrid     =           TRUE
    MP2 Hybrid          =          FALSE

   => Exchange-Correlation Functionals <=

    1.0000   wB97M-V exchange-correlation functional

   => Exact (HF) Exchange <=

    0.8500            HF,LR [omega = 0.3000]
    0.1500               HF 

   => VV10 Non-Local Parameters <=

    VV10 B              =     6.0000E+00
    VV10 C              =     1.0000E-02

   => Molecular Quadrature <=

    Radial Scheme          =       TREUTLER
    Pruning Scheme         =           FLAT
    Nuclear Scheme         =       TREUTLER

    BS radius alpha        =              1
    Pruning alpha          =              1
    Radial Points          =             75
    Spherical Points       =            302
    Total Points           =          89938
    Total Blocks           =            745
    Max Points             =            256
    Max Functions          =             29

   => Loading Basis Set <=

    Name: (CC-PV(D+D)Z AUX)
    Role: JKFIT
    Keyword: DF_BASIS_SCF
    atoms 1   entry B          line    71 file /work/zw18965/.conda/envs/p4env/share/psi4/basis/cc-pvdz-jkfit.gbs 
    atoms 2-4 entry H          line    51 file /work/zw18965/.conda/envs/p4env/share/psi4/basis/cc-pvdz-jkfit.gbs 

  ==> Pre-Iterations <==

   -------------------------------------------------------
    Irrep   Nso     Nmo     Nalpha   Nbeta   Ndocc  Nsocc
   -------------------------------------------------------
     A1        14      14       0       0       0       0
     A2         2       2       0       0       0       0
     B1         8       8       0       0       0       0
     B2         5       5       0       0       0       0
   -------------------------------------------------------
    Total      29      29       4       4       4       0
   -------------------------------------------------------

  ==> Integral Setup <==

  ==> DiskDFJK: Density-Fitted J/K Matrices <==

    J tasked:                  Yes
    K tasked:                  Yes
    wK tasked:                 Yes
    Omega:               3.000E-01
    OpenMP threads:             24
    Integrals threads:          24
    Memory [MiB]:           102806
    Algorithm:                Core
    Integral Cache:           NONE
    Schwarz Cutoff:          1E-12
    Fitting Condition:       1E-10

   => Auxiliary Basis Set <=

  Basis Set: (CC-PV(D+D)Z AUX)
    Blend: CC-PVDZ-JKFIT
    Number of shells: 51
    Number of basis function: 139
    Number of Cartesian functions: 156
    Spherical Harmonics?: true
    Max angular momentum: 3

  Cached 100.0% of DFT collocation blocks in 0.186 [GiB].

  Minimum eigenvalue in the overlap matrix is 1.6663323876E-02.
  Using Symmetric Orthogonalization.

  SCF Guess: Superposition of Atomic Densities via on-the-fly atomic UHF.

  ==> Iterations <==

                           Total Energy        Delta E     RMS |[F,P]|

   @DF-RKS iter SAD:   -25.93909726671331   -2.59391e+01   0.00000e+00 
   @DF-RKS iter   1:   -26.56024481881421   -6.21148e-01   5.80264e-03 DIIS
   @DF-RKS iter   2:   -26.56753045985830   -7.28564e-03   1.73483e-03 DIIS
   @DF-RKS iter   3:   -26.56815801009878   -6.27550e-04   1.83717e-04 DIIS
   @DF-RKS iter   4:   -26.56817406851582   -1.60584e-05   3.95336e-05 DIIS
   @DF-RKS iter   5:   -26.56817488762303   -8.19107e-07   2.07046e-06 DIIS
   @DF-RKS iter   6:   -26.56817488909649   -1.47346e-09   1.55090e-07 DIIS
   @DF-RKS iter   7:   -26.56817488910793   -1.14433e-11   1.81972e-08 DIIS
   @DF-RKS iter   8:   -26.56817488910805   -1.20792e-13   8.02121e-10 DIIS
  Energy and wave function converged.


  ==> Post-Iterations <==

    Orbital Energies [Eh]
    ---------------------

    Doubly Occupied:                                                      

       1A1    -6.935660     2A1    -0.623574     1B1    -0.447244  
       3A1    -0.447240  

    Virtual:                                                              

       1B2     0.009777     4A1     0.204431     5A1     0.219157  
       2B1     0.219230     6A1     0.336999     3B1     0.337009  
       2B2     0.398357     7A1     0.436860     8A1     0.680084  
       4B1     0.680107     9A1     0.721631     1A2     0.746151  
       3B2     0.746279    10A1     1.111440     5B1     1.219437  
      11A1     1.221085     6B1     1.398612     4B2     1.605158  
       5B2     1.758669     2A2     1.758933    12A1     2.069126  
       7B1     2.070970    13A1     2.281119     8B1     2.360402  
      14A1     2.361221  

    Final Occupation by Irrep:
             A1    A2    B1    B2 
    DOCC [     3,    0,    1,    0 ]

  @DF-RKS Final Energy:   -26.56817488910805

   => Energetics <=

    Nuclear Repulsion Energy =              7.4344251746334002
    One-Electron Energy =                 -49.0476736581936450
    Two-Electron Energy =                  18.3653844292771034
    DFT Exchange-Correlation Energy =      -3.3541853933485903
    Empirical Dispersion Energy =           0.0000000000000000
    VV10 Nonlocal Energy =                  0.0338745585236731
    Total Energy =                        -26.5681748891080538

Computation Completed


Properties will be evaluated at   0.000000,   0.000000,   0.000000 [a0]

Properties computed using the SCF density matrix

  Nuclear Dipole Moment: [e a0]
     X:     0.0000      Y:     0.0000      Z:    -0.0000

  Electronic Dipole Moment: [e a0]
     X:     0.0000      Y:     0.0000      Z:     0.0006

  Dipole Moment: [e a0]
     X:     0.0000      Y:     0.0000      Z:     0.0006     Total:     0.0006

  Dipole Moment: [D]
     X:     0.0000      Y:     0.0000      Z:     0.0016     Total:     0.0016


*** tstop() called on bp1-compute00100.data.bp.acrc.priv at Tue Apr 27 18:09:22 2021
Module time:
	user time   =      64.59 seconds =       1.08 minutes
	system time =       1.83 seconds =       0.03 minutes
	total time  =          3 seconds =       0.05 minutes
Total time:
	user time   =     462.03 seconds =       7.70 minutes
	system time =      13.65 seconds =       0.23 minutes
	total time  =         21 seconds =       0.35 minutes

         ----------------------------------------------------------
                                   FINDIF
                     R. A. King and Jonathon Misiewicz
         ---------------------------------------------------------

  Computing gradient from energies.
    Using 3-point formula.
    Energy without displacement:  -26.5681448869
    Check energies below for precision!
    Forces are for mass-weighted, symmetry-adapted cartesians (in au).

     Coord      Energy(-1)        Energy(+1)            Force
        0    -26.5681426230    -26.5681426129      0.0000010042
        1    -26.5681095602    -26.5681748980     -0.0065337806
        2    -26.5681095689    -26.5681748891     -0.0065320160


-------------------------------------------------------------
  ## New Matrix (Symmetry 0) ##
  Irrep: 1 Size: 4 x 3

                 1                   2                   3

    1     0.00000000000000     0.00000000000000     0.00000154659676
    2     0.00000000000000     0.00000000000000    -0.00535615692875
    3    -0.00463686884431     0.00000000000000     0.00267730516599
    4     0.00463686884431     0.00000000000000     0.00267730516599




			-----------------------------------------
			 OPTKING 2.0: for geometry optimizations 
			  - R.A. King,  Bethel University        
			-----------------------------------------
	At level 1: Red. Int., RFO, no backsteps, dynamic trust

	Internal coordinates to be generated automatically.
	Detected frag 1 with atoms:  1 2 3 4
	---Fragment 1 Bond Connectivity---
	 1 : 2 3 4
	 2 : 1
	 3 : 1
	 4 : 1

	---Fragment 1 Geometry and Gradient---
	 B           0.0000000000        0.0000000000       -0.0000000000
	 H           0.0000000000        0.0000000000        2.2485851167
	 H           1.9473318337        0.0000000000       -1.1242925583
	 H          -1.9473318337       -0.0000000000       -1.1242925583
	             0.0000000000        0.0000000000        0.0000015466
	             0.0000000000        0.0000000000       -0.0053561569
	            -0.0046368688        0.0000000000        0.0026773052
	             0.0046368688        0.0000000000        0.0026773052

	Previous optimization step data not found.  Starting new optimization.

	---Fragment 1 Intrafragment Coordinates---
	 - Coordinate -           - BOHR/RAD -       - ANG/DEG -
	 R(1,2)           =         2.248585	       1.189900
	 R(1,3)           =         2.248585	       1.189900
	 R(1,4)           =         2.248585	       1.189900
	 B(2,1,3)         =         2.094395	     120.000000
	 B(2,1,4)         =         2.094395	     120.000000
	 B(3,1,4)         =         2.094395	     120.000000

	Current energy   :       -26.5681448869

	Generating empirical Hessian (Schlegel '84) for each fragment.
	Taking RFO optimization step.
	Going to follow RFO solution 1.
	Using RFO vector 1.
	Norm of target step-size    0.03644
	Projected energy change by RFO approximation:        -0.0003375427

	Back-transformation to cartesian coordinates...
	Successfully converged to displaced geometry.

	--- Internal Coordinate Step in ANG or DEG, aJ/ANG or AJ/DEG ---
	 ---------------------------------------------------------------------------
	   Coordinate                Previous        Force       Change         New 
	   ----------                --------       ------       ------       ------
	    1 R(1,2)          =      1.189900     0.044128     0.011136     1.201036
	    2 R(1,3)          =      1.189900     0.044113     0.011133     1.201033
	    3 R(1,4)          =      1.189900     0.044113     0.011133     1.201033
	    4 B(2,1,3)        =    120.000000     0.000000     0.000048   120.000048
	    5 B(2,1,4)        =    120.000000     0.000000     0.000048   120.000048
	    6 B(3,1,4)        =    120.000000    -0.000000    -0.000096   119.999904
	 ---------------------------------------------------------------------------
	Successfully symmetrized geometry.

  ==> Convergence Check <==

  Measures of convergence in internal coordinates in au.
  Criteria marked as inactive (o), active & met (*), and active & unmet ( ).
  --------------------------------------------------------------------------------------------- ~
   Step     Total Energy     Delta E     MAX Force     RMS Force      MAX Disp      RMS Disp    ~
  --------------------------------------------------------------------------------------------- ~
    Convergence Criteria    1.00e-06 *    3.00e-04 *             o    1.20e-03 *             o  ~
  --------------------------------------------------------------------------------------------- ~
      1     -26.56814489   -2.66e+01      5.36e-03      3.79e-03 o    2.10e-02      1.49e-02 o  ~
  ---------------------------------------------------------------------------------------------

	Writing optimization data to binary file.
	Structure for next step:
	Cartesian Geometry (in Angstrom)
	    B     0.0000000000   0.0000000000  -0.0000005286
	    H     0.0000000000  -0.0000000000   1.2010358766
	    H     1.0401241871   0.0000000000  -0.6005176740
	    H    -1.0401241871  -0.0000000000  -0.6005176740
			--------------------------
			 OPTKING Finished Execution 
			--------------------------

    Structure for next step:
    Molecular point group: c2v
    Full point group: C2v

    Geometry (in Angstrom), charge = 0, multiplicity = 1:

    B            0.000000000000     0.000000000000    -0.000000151847
    H            0.000000000000     0.000000000000     1.201036258025
    H            1.040124191141     0.000000000000    -0.600517299638
    H           -1.040124191141    -0.000000000000    -0.600517299638

gradient() will perform gradient computation by finite difference of analytic energies.

         ----------------------------------------------------------
                                   FINDIF
                     R. A. King and Jonathon Misiewicz
         ---------------------------------------------------------

  Using finite-differences of energies to determine gradients.
    Generating geometries for use with 3-point formula.
    Displacement size will be 5.00e-03.
    Number of atoms is 4.
    Number of symmetric SALCs is 3.
    Translations projected? 1. Rotations projected? 1.
    Number of geometries (including reference) is 7.

  //>>>>>>>>>>>>>>>>>>>>>>>>>>>>>>>>>>>//
  //    Loading displacement 1 of 7    //
  //<<<<<<<<<<<<<<<<<<<<<<<<<<<<<<<<<<<//

*** tstart() called on bp1-compute00100.data.bp.acrc.priv
*** at Tue Apr 27 18:09:22 2021

   => Loading Basis Set <=

    Name: CC-PV(D+D)Z
    Role: ORBITAL
    Keyword: BASIS
    atoms 1   entry B          line   117 file /work/zw18965/.conda/envs/p4env/share/psi4/basis/cc-pv_dpd_z.gbs 
    atoms 2-4 entry H          line    31 file /work/zw18965/.conda/envs/p4env/share/psi4/basis/cc-pv_dpd_z.gbs 


         ---------------------------------------------------------
                                   SCF
               by Justin Turney, Rob Parrish, Andy Simmonett
                          and Daniel G. A. Smith
                              RKS Reference
                       24 Threads, 137329 MiB Core
         ---------------------------------------------------------

  ==> Geometry <==

    Molecular point group: c2v
    Full point group: C2v

    Geometry (in Angstrom), charge = 0, multiplicity = 1:

       Center              X                  Y                   Z               Mass       
    ------------   -----------------  -----------------  -----------------  -----------------
         B            0.000000000000     0.000000000000    -0.000000151847    11.009305360000
         H            0.000000000000     0.000000000000     1.201036258025     1.007825032230
         H            1.040124191141     0.000000000000    -0.600517299638     1.007825032230
         H           -1.040124191141    -0.000000000000    -0.600517299638     1.007825032230

  Running in c2v symmetry.

  Rotational constants: A =      7.73056  B =      7.73051  C =      3.86527 [cm^-1]
  Rotational constants: A = 231756.36365  B = 231754.91966  C = 115877.82083 [MHz]
  Nuclear repulsion =    7.372165314822752

  Charge       = 0
  Multiplicity = 1
  Electrons    = 8
  Nalpha       = 4
  Nbeta        = 4

  ==> Algorithm <==

  SCF Algorithm Type is DF.
  DIIS enabled.
  MOM disabled.
  Fractional occupation disabled.
  Guess Type is READ.
  Energy threshold   = 1.00e-08
  Density threshold  = 1.00e-08
  Integral threshold = 0.00e+00

  ==> Primary Basis <==

  Basis Set: CC-PV(D+D)Z
    Blend: CC-PV(D+D)Z
    Number of shells: 15
    Number of basis function: 29
    Number of Cartesian functions: 30
    Spherical Harmonics?: true
    Max angular momentum: 2

  ==> DFT Potential <==

   => Composite Functional: WB97M-V <= 

    wB97M-V Hyb-GGA Exchange-Correlation Functional

    N. Mardirossian and M. Head-Gordon, J. Chem. Phys. 144, 214110 (2016)

    Deriv               =              1
    GGA                 =           TRUE
    Meta                =           TRUE

    Exchange Hybrid     =           TRUE
    MP2 Hybrid          =          FALSE

   => Exchange-Correlation Functionals <=

    1.0000   wB97M-V exchange-correlation functional

   => Exact (HF) Exchange <=

    0.8500            HF,LR [omega = 0.3000]
    0.1500               HF 

   => VV10 Non-Local Parameters <=

    VV10 B              =     6.0000E+00
    VV10 C              =     1.0000E-02

   => Molecular Quadrature <=

    Radial Scheme          =       TREUTLER
    Pruning Scheme         =           FLAT
    Nuclear Scheme         =       TREUTLER

    BS radius alpha        =              1
    Pruning alpha          =              1
    Radial Points          =             75
    Spherical Points       =            302
    Total Points           =          89938
    Total Blocks           =            745
    Max Points             =            256
    Max Functions          =             29

   => Loading Basis Set <=

    Name: (CC-PV(D+D)Z AUX)
    Role: JKFIT
    Keyword: DF_BASIS_SCF
    atoms 1   entry B          line    71 file /work/zw18965/.conda/envs/p4env/share/psi4/basis/cc-pvdz-jkfit.gbs 
    atoms 2-4 entry H          line    51 file /work/zw18965/.conda/envs/p4env/share/psi4/basis/cc-pvdz-jkfit.gbs 

   => Loading Basis Set <=

    Name: CC-PV(D+D)Z
    Role: ORBITAL
    Keyword: BASIS
    atoms 1   entry B          line   117 file /work/zw18965/.conda/envs/p4env/share/psi4/basis/cc-pv_dpd_z.gbs 
    atoms 2-4 entry H          line    31 file /work/zw18965/.conda/envs/p4env/share/psi4/basis/cc-pv_dpd_z.gbs 

  Reading orbitals from file 180, no projection.

  ==> Pre-Iterations <==

   -------------------------------------------------------
    Irrep   Nso     Nmo     Nalpha   Nbeta   Ndocc  Nsocc
   -------------------------------------------------------
     A1        14      14       0       0       0       0
     A2         2       2       0       0       0       0
     B1         8       8       0       0       0       0
     B2         5       5       0       0       0       0
   -------------------------------------------------------
    Total      29      29       4       4       4       0
   -------------------------------------------------------

  ==> Integral Setup <==

  ==> DiskDFJK: Density-Fitted J/K Matrices <==

    J tasked:                  Yes
    K tasked:                  Yes
    wK tasked:                 Yes
    Omega:               3.000E-01
    OpenMP threads:             24
    Integrals threads:          24
    Memory [MiB]:           102806
    Algorithm:                Core
    Integral Cache:           NONE
    Schwarz Cutoff:          1E-12
    Fitting Condition:       1E-10

   => Auxiliary Basis Set <=

  Basis Set: (CC-PV(D+D)Z AUX)
    Blend: CC-PVDZ-JKFIT
    Number of shells: 51
    Number of basis function: 139
    Number of Cartesian functions: 156
    Spherical Harmonics?: true
    Max angular momentum: 3

  Cached 100.0% of DFT collocation blocks in 0.186 [GiB].

  Minimum eigenvalue in the overlap matrix is 1.7169013784E-02.
  Using Symmetric Orthogonalization.

  SCF Guess: Orbitals guess was supplied from a previous computation.

  ==> Iterations <==

                           Total Energy        Delta E     RMS |[F,P]|

   @DF-RKS iter   0:   -26.55995277646672   -2.65600e+01   9.84912e-04 
   @DF-RKS iter   1:   -26.56830263355797   -8.34986e-03   1.54669e-04 DIIS
   @DF-RKS iter   2:   -26.56830923698553   -6.60343e-06   4.78125e-05 DIIS
   @DF-RKS iter   3:   -26.56830969463129   -4.57646e-07   5.25108e-06 DIIS
   @DF-RKS iter   4:   -26.56830970348977   -8.85848e-09   8.91297e-07 DIIS
   @DF-RKS iter   5:   -26.56830970383123   -3.41458e-10   1.12759e-07 DIIS
   @DF-RKS iter   6:   -26.56830970383762   -6.39488e-12   7.90150e-09 DIIS
  Energy and wave function converged.


  ==> Post-Iterations <==

    Orbital Energies [Eh]
    ---------------------

    Doubly Occupied:                                                      

       1A1    -6.938659     2A1    -0.621889     3A1    -0.446059  
       1B1    -0.446059  

    Virtual:                                                              

       1B2     0.009260     4A1     0.201448     2B1     0.217748  
       5A1     0.217749     6A1     0.337294     3B1     0.337295  
       2B2     0.397765     7A1     0.437814     8A1     0.676397  
       4B1     0.676397     9A1     0.716260     3B2     0.745273  
       1A2     0.745273    10A1     1.105515    11A1     1.211347  
       5B1     1.211351     6B1     1.394675     4B2     1.598289  
       5B2     1.752479     2A2     1.752483    12A1     2.053129  
       7B1     2.053131    13A1     2.263123     8B1     2.344738  
      14A1     2.344741  

    Final Occupation by Irrep:
             A1    A2    B1    B2 
    DOCC [     3,    0,    1,    0 ]

  @DF-RKS Final Energy:   -26.56830970383762

   => Energetics <=

    Nuclear Repulsion Energy =              7.3721653148227517
    One-Electron Energy =                 -48.9295716218221060
    Two-Electron Energy =                  18.3026885458965118
    DFT Exchange-Correlation Energy =      -3.3474585171791684
    Empirical Dispersion Energy =           0.0000000000000000
    VV10 Nonlocal Energy =                  0.0338665744443846
    Total Energy =                        -26.5683097038376239

Computation Completed


Properties will be evaluated at   0.000000,   0.000000,   0.000000 [a0]

Properties computed using the SCF density matrix

  Nuclear Dipole Moment: [e a0]
     X:     0.0000      Y:     0.0000      Z:     0.0000

  Electronic Dipole Moment: [e a0]
     X:     0.0000      Y:     0.0000      Z:     0.0000

  Dipole Moment: [e a0]
     X:     0.0000      Y:     0.0000      Z:     0.0000     Total:     0.0000

  Dipole Moment: [D]
     X:     0.0000      Y:     0.0000      Z:     0.0000     Total:     0.0000


*** tstop() called on bp1-compute00100.data.bp.acrc.priv at Tue Apr 27 18:09:24 2021
Module time:
	user time   =      48.33 seconds =       0.81 minutes
	system time =       1.31 seconds =       0.02 minutes
	total time  =          2 seconds =       0.03 minutes
Total time:
	user time   =     510.88 seconds =       8.51 minutes
	system time =      14.98 seconds =       0.25 minutes
	total time  =         23 seconds =       0.38 minutes

  //>>>>>>>>>>>>>>>>>>>>>>>>>>>>>>>>>>>//
  //    Loading displacement 2 of 7    //
  //<<<<<<<<<<<<<<<<<<<<<<<<<<<<<<<<<<<//

*** tstart() called on bp1-compute00100.data.bp.acrc.priv
*** at Tue Apr 27 18:09:24 2021

   => Loading Basis Set <=

    Name: CC-PV(D+D)Z
    Role: ORBITAL
    Keyword: BASIS
    atoms 1   entry B          line   117 file /work/zw18965/.conda/envs/p4env/share/psi4/basis/cc-pv_dpd_z.gbs 
[...]
      22Ap     2.346512  

    Final Occupation by Irrep:
             Ap   App 
    DOCC [     4,    0 ]

  @DF-RKS Final Energy:   -26.56830213761246

   => Energetics <=

    Nuclear Repulsion Energy =              7.3721896197568944
    One-Electron Energy =                 -48.9296000919753311
    Two-Electron Energy =                  18.3027017727457562
    DFT Exchange-Correlation Energy =      -3.3474600149924369
    Empirical Dispersion Energy =           0.0000000000000000
    VV10 Nonlocal Energy =                  0.0338665768526563
    Total Energy =                        -26.5683021376124593

Computation Completed


Properties will be evaluated at   0.000000,   0.000000,   0.000000 [a0]

Properties computed using the SCF density matrix

  Nuclear Dipole Moment: [e a0]
     X:     0.0041      Y:     0.0000      Z:     0.0000

  Electronic Dipole Moment: [e a0]
     X:    -0.0068      Y:     0.0000      Z:    -0.0000

  Dipole Moment: [e a0]
     X:    -0.0027      Y:     0.0000      Z:     0.0000     Total:     0.0027

  Dipole Moment: [D]
     X:    -0.0068      Y:     0.0000      Z:     0.0000     Total:     0.0068


*** tstop() called on bp1-compute00100.data.bp.acrc.priv at Tue Apr 27 18:10:47 2021
Module time:
	user time   =      66.41 seconds =       1.11 minutes
	system time =       1.54 seconds =       0.03 minutes
	total time  =          3 seconds =       0.05 minutes
Total time:
	user time   =    2429.07 seconds =      40.48 minutes
	system time =      62.80 seconds =       1.05 minutes
	total time  =        106 seconds =       1.77 minutes

  //>>>>>>>>>>>>>>>>>>>>>>>>>>>>>>>>>>>//
  //   Loading displacement 18 of 18   //
  //<<<<<<<<<<<<<<<<<<<<<<<<<<<<<<<<<<<//

*** tstart() called on bp1-compute00100.data.bp.acrc.priv
*** at Tue Apr 27 18:10:47 2021

   => Loading Basis Set <=

    Name: CC-PV(D+D)Z
    Role: ORBITAL
    Keyword: BASIS
    atoms 1   entry B          line   117 file /work/zw18965/.conda/envs/p4env/share/psi4/basis/cc-pv_dpd_z.gbs 
    atoms 2-4 entry H          line    31 file /work/zw18965/.conda/envs/p4env/share/psi4/basis/cc-pv_dpd_z.gbs 


         ---------------------------------------------------------
                                   SCF
               by Justin Turney, Rob Parrish, Andy Simmonett
                          and Daniel G. A. Smith
                              RKS Reference
                       24 Threads, 137329 MiB Core
         ---------------------------------------------------------

  ==> Geometry <==

    Molecular point group: cs
    Full point group: Cs

    Geometry (in Angstrom), charge = 0, multiplicity = 1:

       Center              X                  Y                   Z               Mass       
    ------------   -----------------  -----------------  -----------------  -----------------
         B            0.000000000000    -0.000370145531    -0.000000151847    11.009305360000
         H            0.000000000000     0.001347800220     1.201036258025     1.007825032230
         H            1.040124191141     0.001347802593    -0.600517299638     1.007825032230
         H           -1.040124191141     0.001347802593    -0.600517299638     1.007825032230

  Running in cs symmetry.

  Rotational constants: A =      7.73054  B =      7.73049  C =      3.86527 [cm^-1]
  Rotational constants: A = 231755.61962  B = 231754.17564  C = 115877.82083 [MHz]
  Nuclear repulsion =    7.372158553748665

  Charge       = 0
  Multiplicity = 1
  Electrons    = 8
  Nalpha       = 4
  Nbeta        = 4

  ==> Algorithm <==

  SCF Algorithm Type is DF.
  DIIS enabled.
  MOM disabled.
  Fractional occupation disabled.
  Guess Type is SAD.
  Energy threshold   = 1.00e-10
  Density threshold  = 1.00e-10
  Integral threshold = 0.00e+00

  ==> Primary Basis <==

  Basis Set: CC-PV(D+D)Z
    Blend: CC-PV(D+D)Z
    Number of shells: 15
    Number of basis function: 29
    Number of Cartesian functions: 30
    Spherical Harmonics?: true
    Max angular momentum: 2

  ==> DFT Potential <==

   => Composite Functional: WB97M-V <= 

    wB97M-V Hyb-GGA Exchange-Correlation Functional

    N. Mardirossian and M. Head-Gordon, J. Chem. Phys. 144, 214110 (2016)

    Deriv               =              1
    GGA                 =           TRUE
    Meta                =           TRUE

    Exchange Hybrid     =           TRUE
    MP2 Hybrid          =          FALSE

   => Exchange-Correlation Functionals <=

    1.0000   wB97M-V exchange-correlation functional

   => Exact (HF) Exchange <=

    0.8500            HF,LR [omega = 0.3000]
    0.1500               HF 

   => VV10 Non-Local Parameters <=

    VV10 B              =     6.0000E+00
    VV10 C              =     1.0000E-02

   => Molecular Quadrature <=

    Radial Scheme          =       TREUTLER
    Pruning Scheme         =           FLAT
    Nuclear Scheme         =       TREUTLER

    BS radius alpha        =              1
    Pruning alpha          =              1
    Radial Points          =             75
    Spherical Points       =            302
    Total Points           =          89938
    Total Blocks           =            747
    Max Points             =            256
    Max Functions          =             29

   => Loading Basis Set <=

    Name: (CC-PV(D+D)Z AUX)
    Role: JKFIT
    Keyword: DF_BASIS_SCF
    atoms 1   entry B          line    71 file /work/zw18965/.conda/envs/p4env/share/psi4/basis/cc-pvdz-jkfit.gbs 
    atoms 2-4 entry H          line    51 file /work/zw18965/.conda/envs/p4env/share/psi4/basis/cc-pvdz-jkfit.gbs 

  ==> Pre-Iterations <==

   -------------------------------------------------------
    Irrep   Nso     Nmo     Nalpha   Nbeta   Ndocc  Nsocc
   -------------------------------------------------------
     A'        19      19       0       0       0       0
     A"        10      10       0       0       0       0
   -------------------------------------------------------
    Total      29      29       4       4       4       0
   -------------------------------------------------------

  ==> Integral Setup <==

  ==> DiskDFJK: Density-Fitted J/K Matrices <==

    J tasked:                  Yes
    K tasked:                  Yes
    wK tasked:                 Yes
    Omega:               3.000E-01
    OpenMP threads:             24
    Integrals threads:          24
    Memory [MiB]:           102806
    Algorithm:                Core
    Integral Cache:           NONE
    Schwarz Cutoff:          1E-12
    Fitting Condition:       1E-10

   => Auxiliary Basis Set <=

  Basis Set: (CC-PV(D+D)Z AUX)
    Blend: CC-PVDZ-JKFIT
    Number of shells: 51
    Number of basis function: 139
    Number of Cartesian functions: 156
    Spherical Harmonics?: true
    Max angular momentum: 3

  Cached 100.0% of DFT collocation blocks in 0.186 [GiB].

  Minimum eigenvalue in the overlap matrix is 1.7168971350E-02.
  Using Symmetric Orthogonalization.

  SCF Guess: Superposition of Atomic Densities via on-the-fly atomic UHF.

  ==> Iterations <==

                           Total Energy        Delta E     RMS |[F,P]|

   @DF-RKS iter SAD:   -25.93376135102336   -2.59338e+01   0.00000e+00 
   @DF-RKS iter   1:   -26.56072028971005   -6.26959e-01   4.48415e-03 DIIS
   @DF-RKS iter   2:   -26.56767860069563   -6.95831e-03   1.35330e-03 DIIS
   @DF-RKS iter   3:   -26.56829181976024   -6.13219e-04   1.46899e-04 DIIS
   @DF-RKS iter   4:   -26.56830825047797   -1.64307e-05   3.16136e-05 DIIS
   @DF-RKS iter   5:   -26.56830909003957   -8.39562e-07   1.65589e-06 DIIS
   @DF-RKS iter   6:   -26.56830909152464   -1.48507e-09   1.23117e-07 DIIS
   @DF-RKS iter   7:   -26.56830909153603   -1.13829e-11   1.64401e-08 DIIS
   @DF-RKS iter   8:   -26.56830909153618   -1.52767e-13   1.53300e-09 DIIS
   @DF-RKS iter   9:   -26.56830909153619   -1.42109e-14   9.15976e-11 DIIS
  Energy and wave function converged.


  ==> Post-Iterations <==

    Orbital Energies [Eh]
    ---------------------

    Doubly Occupied:                                                      

       1Ap    -6.938660     2Ap    -0.621888     3Ap    -0.446059  
       1App   -0.446058  

    Virtual:                                                              

       4Ap     0.009260     5Ap     0.201448     2App    0.217748  
       6Ap     0.217748     7Ap     0.337294     3App    0.337295  
       8Ap     0.397764     9Ap     0.437816    10Ap     0.676396  
       4App    0.676396    11Ap     0.716260    12Ap     0.745272  
       5App    0.745273    13Ap     1.105511    14Ap     1.211349  
       6App    1.211353     7App    1.394676    15Ap     1.598293  
      16Ap     1.752473     8App    1.752477    17Ap     2.053130  
       9App    2.053132    18Ap     2.263122    10App    2.344732  
      19Ap     2.344734  

    Final Occupation by Irrep:
             Ap   App 
    DOCC [     3,    1 ]

  @DF-RKS Final Energy:   -26.56830909153619

   => Energetics <=

    Nuclear Repulsion Energy =              7.3721585537486654
    One-Electron Energy =                 -48.9295584488305693
    Two-Electron Energy =                  18.3026818880845887
    DFT Exchange-Correlation Energy =      -3.3474576567490777
    Empirical Dispersion Energy =           0.0000000000000000
    VV10 Nonlocal Energy =                  0.0338665722101963
    Total Energy =                        -26.5683090915361930

Computation Completed


Properties will be evaluated at   0.000000,   0.000000,   0.000000 [a0]

Properties computed using the SCF density matrix

  Nuclear Dipole Moment: [e a0]
     X:     0.0000      Y:     0.0041      Z:     0.0000

  Electronic Dipole Moment: [e a0]
     X:     0.0000      Y:    -0.0056      Z:     0.0000

  Dipole Moment: [e a0]
     X:     0.0000      Y:    -0.0014      Z:     0.0000     Total:     0.0014

  Dipole Moment: [D]
     X:     0.0000      Y:    -0.0037      Z:     0.0000     Total:     0.0037


*** tstop() called on bp1-compute00100.data.bp.acrc.priv at Tue Apr 27 18:10:50 2021
Module time:
	user time   =      68.89 seconds =       1.15 minutes
	system time =       1.70 seconds =       0.03 minutes
	total time  =          3 seconds =       0.05 minutes
Total time:
	user time   =    2498.10 seconds =      41.63 minutes
	system time =      64.51 seconds =       1.08 minutes
	total time  =        109 seconds =       1.82 minutes

         ----------------------------------------------------------
                                   FINDIF
                     R. A. King and Jonathon Misiewicz
         ---------------------------------------------------------

  Computing second-derivative from energies using projected, 
  symmetry-adapted, cartesian coordinates.

  18 energies passed in, including the reference geometry.
    Using 3-point formula.
    Energy without displacement:  -26.5683097038
    Check energies below for precision!
    0: -1        :       -26.5683075310
    0: 1         :       -26.5683075330
    1: -1        :       -26.5683076747
    1: 1         :       -26.5683066666
    2: -1        :       -26.5683076745
    2: 1         :       -26.5683066670
    0: 1, 1: 1   :       -26.5683064780
    0: -1, 1: -1 :       -26.5683074902
    0: 1, 2: 1   :       -26.5683025267
    0: -1, 2: -1 :       -26.5683035009
    1: 1, 2: 1   :       -26.5683024613
    1: -1, 2: -1 :       -26.5683044601
    3: -1        :       -26.5683075319
    4: -1        :       -26.5683071158
    3: 1, 4: 1   :       -26.5683021376
    3: -1, 4: -1 :       -26.5683021376
    5: -1        :       -26.5683090915

-------------------------------------------------------------


  ==> Harmonic Vibrational Analysis <==

  non-mass-weighted Hessian:       Symmetric? True   Hermitian? True   Lin Dep Dim?  6 (0)
  projection of translations (True) and rotations (True) removed 6 degrees of freedom (6)
  total projector:                 Symmetric? True   Hermitian? True   Lin Dep Dim?  6 (6)
  mass-weighted Hessian:           Symmetric? True   Hermitian? True   Lin Dep Dim?  6 (0)
  pre-proj  low-frequency mode:    0.0000i [cm^-1]
  pre-proj  low-frequency mode:    0.0000i [cm^-1]
  pre-proj  low-frequency mode:    0.0000i [cm^-1]
  pre-proj  low-frequency mode:    0.0000  [cm^-1]
  pre-proj  low-frequency mode:    0.0000  [cm^-1]
  pre-proj  low-frequency mode:    0.0000  [cm^-1]
  pre-proj  all modes:['0.0001i' '0.0000i' '0.0000i' '0.0000' '0.0000' '0.0000' '1137.7162'
 '1172.1619' '1425.7301' '2568.8292' '2707.0903' '2833.6909']
  projected mass-weighted Hessian: Symmetric? True   Hermitian? True   Lin Dep Dim?  6 (6)
  post-proj low-frequency mode:    0.0000i [cm^-1] (TR)
  post-proj low-frequency mode:    0.0000i [cm^-1] (TR)
  post-proj low-frequency mode:    0.0000i [cm^-1] (TR)
  post-proj low-frequency mode:    0.0000  [cm^-1] (TR)
  post-proj low-frequency mode:    0.0000  [cm^-1] (TR)
  post-proj low-frequency mode:    0.0000  [cm^-1] (TR)
  post-proj  all modes:['0.0000i' '0.0000i' '0.0000i' '0.0000' '0.0000' '0.0000' '1137.7162'
 '1172.1619' '1425.7301' '2568.8292' '2707.0903' '2833.6909']

  Vibration                       7                   8                   9           
  Freq [cm^-1]                1137.7162           1172.1619           1425.7301       
  Irrep                           B2                  A1                  B1          
  Reduced mass [u]              1.2531              1.1075              1.1352        
  Force const [mDyne/A]         0.9557              0.8965              1.3596        
  Turning point v=0 [a0]        0.2906              0.3045              0.2727        
  RMS dev v=0 [a0 u^1/2]        0.2300              0.2266              0.2055        
  Char temp [K]               1636.9203           1686.4799           2051.3082       
  ----------------------------------------------------------------------------------
      1   B               -0.00 -0.16 -0.00    0.00  0.00 -0.10   -0.11  0.00 -0.00   
      2   H                0.00  0.57 -0.00    0.00 -0.00 -0.08    0.81 -0.00 -0.00   
      3   H                0.00  0.57  0.00    0.39 -0.00  0.59    0.21 -0.00  0.35   
      4   H               -0.00  0.57  0.00   -0.39 -0.00  0.59    0.21 -0.00 -0.35   

  Vibration                       10                  11                  12          
  Freq [cm^-1]                2568.8292           2707.0903           2833.6909       
  Irrep                           A1                  A1                  B1          
  Reduced mass [u]              1.0078              1.1270              1.0997        
  Force const [mDyne/A]         3.9184              4.8662              5.2025        
  Turning point v=0 [a0]        0.2157              0.1987              0.1966        
  RMS dev v=0 [a0 u^1/2]        0.1531              0.1491              0.1458        
  Char temp [K]               3695.9733           3894.9002           4077.0504       
  ----------------------------------------------------------------------------------
      1   B               -0.00  0.00  0.00    0.00  0.00 -0.11   -0.10 -0.00 -0.00   
      2   H               -0.00  0.00  0.58    0.00 -0.00  0.81   -0.11 -0.00  0.00   
      3   H                0.50  0.00 -0.29   -0.36 -0.00  0.19    0.58  0.00 -0.40   
      4   H               -0.50  0.00 -0.29    0.36 -0.00  0.19    0.58  0.00  0.40   

  ==> Thermochemistry Components <==

  Entropy, S
    Electronic S            0.000 [cal/(mol K)]        0.000 [J/(mol K)]       0.00000000 [mEh/K] (multiplicity = 1)
    Translational S        33.864 [cal/(mol K)]      141.688 [J/(mol K)]       0.05396630 [mEh/K] (mol. weight = 14.0328 [u], P = 101325.00 [Pa])
    Rotational S           13.232 [cal/(mol K)]       55.364 [J/(mol K)]       0.02108693 [mEh/K] (symmetry no. = 2)
    Vibrational S           0.116 [cal/(mol K)]        0.486 [J/(mol K)]       0.00018505 [mEh/K]
  Total S                  47.213 [cal/(mol K)]      197.538 [J/(mol K)]       0.07523828 [mEh/K]
  Correction S              0.000 [cal/(mol K)]        0.000 [J/(mol K)]       0.00000000 [mEh/K]

  Constant volume heat capacity, Cv
    Electronic Cv           0.000 [cal/(mol K)]        0.000 [J/(mol K)]       0.00000000 [mEh/K]
    Translational Cv        2.981 [cal/(mol K)]       12.472 [J/(mol K)]       0.00475022 [mEh/K]
    Rotational Cv           2.981 [cal/(mol K)]       12.472 [J/(mol K)]       0.00475022 [mEh/K]
    Vibrational Cv          0.572 [cal/(mol K)]        2.395 [J/(mol K)]       0.00091206 [mEh/K]
  Total Cv                  6.534 [cal/(mol K)]       27.338 [J/(mol K)]       0.01041249 [mEh/K]
  Correction Cv             0.000 [cal/(mol K)]        0.000 [J/(mol K)]       0.00000000 [mEh/K]

  Constant pressure heat capacity, Cp
    Electronic Cp           0.000 [cal/(mol K)]        0.000 [J/(mol K)]       0.00000000 [mEh/K]
    Translational Cp        4.968 [cal/(mol K)]       20.786 [J/(mol K)]       0.00791703 [mEh/K]
    Rotational Cp           2.981 [cal/(mol K)]       12.472 [J/(mol K)]       0.00475022 [mEh/K]
    Vibrational Cp          0.572 [cal/(mol K)]        2.395 [J/(mol K)]       0.00091206 [mEh/K]
  Total Cp                  8.521 [cal/(mol K)]       35.652 [J/(mol K)]       0.01357930 [mEh/K]
  Correction Cp             0.000 [cal/(mol K)]        0.000 [J/(mol K)]       0.00000000 [mEh/K]

  ==> Thermochemistry Energy Analysis <==

  Raw electronic energy, E0
  Total E0, Electronic energy at well bottom at 0 [K]                  -26.56830970 [Eh]

  Zero-point energy, ZPE_vib = Sum_i nu_i / 2
    Electronic ZPE          0.000 [kcal/mol]        0.000 [kJ/mol]       0.00000000 [Eh]
    Translational ZPE       0.000 [kcal/mol]        0.000 [kJ/mol]       0.00000000 [Eh]
    Rotational ZPE          0.000 [kcal/mol]        0.000 [kJ/mol]       0.00000000 [Eh]
    Vibrational ZPE        16.934 [kcal/mol]       70.850 [kJ/mol]       0.02698539 [Eh]        5922.609 [cm^-1]
  Correction ZPE           16.934 [kcal/mol]       70.850 [kJ/mol]       0.02698539 [Eh]        5922.609 [cm^-1]
  Total ZPE, Electronic energy at 0 [K]                                -26.54132431 [Eh]

  Thermal Energy, E (includes ZPE)
    Electronic E            0.000 [kcal/mol]        0.000 [kJ/mol]       0.00000000 [Eh]
    Translational E         0.889 [kcal/mol]        3.718 [kJ/mol]       0.00141628 [Eh]
    Rotational E            0.889 [kcal/mol]        3.718 [kJ/mol]       0.00141628 [Eh]
    Vibrational E          16.963 [kcal/mol]       70.974 [kJ/mol]       0.02703238 [Eh]
  Correction E             18.741 [kcal/mol]       78.410 [kJ/mol]       0.02986493 [Eh]
  Total E, Electronic energy at  298.15 [K]                            -26.53844477 [Eh]

  Enthalpy, H_trans = E_trans + k_B * T
    Electronic H            0.000 [kcal/mol]        0.000 [kJ/mol]       0.00000000 [Eh]
    Translational H         1.481 [kcal/mol]        6.197 [kJ/mol]       0.00236046 [Eh]
    Rotational H            0.889 [kcal/mol]        3.718 [kJ/mol]       0.00141628 [Eh]
    Vibrational H          16.963 [kcal/mol]       70.974 [kJ/mol]       0.02703238 [Eh]
  Correction H             19.333 [kcal/mol]       80.889 [kJ/mol]       0.03080912 [Eh]
  Total H, Enthalpy at  298.15 [K]                                     -26.53750059 [Eh]

  Gibbs free energy, G = H - T * S
    Electronic G            0.000 [kcal/mol]        0.000 [kJ/mol]       0.00000000 [Eh]
    Translational G        -8.615 [kcal/mol]      -36.047 [kJ/mol]      -0.01372959 [Eh]
    Rotational G           -3.056 [kcal/mol]      -12.788 [kJ/mol]      -0.00487079 [Eh]
    Vibrational G          16.928 [kcal/mol]       70.829 [kJ/mol]       0.02697721 [Eh]
  Correction G              5.257 [kcal/mol]       21.993 [kJ/mol]       0.00837682 [Eh]
  Total G, Free enthalpy at  298.15 [K]                                -26.55993288 [Eh]

    Psi4 stopped on: Tuesday, 27 April 2021 06:10PM
    Psi4 wall time for execution: 0:01:48.65

*** Psi4 exiting successfully. Buy a developer a beer!
