
    -----------------------------------------------------------------------
          Psi4: An Open-Source Ab Initio Electronic Structure Package
                               Psi4 1.3.2 release

                         Git: Rev {HEAD} ecbda83 


    R. M. Parrish, L. A. Burns, D. G. A. Smith, A. C. Simmonett,
    A. E. DePrince III, E. G. Hohenstein, U. Bozkaya, A. Yu. Sokolov,
    R. Di Remigio, R. M. Richard, J. F. Gonthier, A. M. James,
    H. R. McAlexander, A. Kumar, M. Saitow, X. Wang, B. P. Pritchard,
    P. Verma, H. F. Schaefer III, K. Patkowski, R. A. King, E. F. Valeev,
    F. A. Evangelista, J. M. Turney, T. D. Crawford, and C. D. Sherrill,
    J. Chem. Theory Comput. 13(7) pp 3185--3197 (2017).
    (doi: 10.1021/acs.jctc.7b00174)


                         Additional Contributions by
    P. Kraus, H. Kruse, M. H. Lechner, M. C. Schieber, R. A. Shaw,
    A. Alenaizan, R. Galvelis, Z. L. Glick, S. Lehtola, and J. P. Misiewicz

    -----------------------------------------------------------------------


    Psi4 started on: Wednesday, 28 April 2021 01:29PM

    Process ID: 255727
    Host:       bp1-compute00147.data.bp.acrc.priv
    PSIDATADIR: /work/zw18965/.conda/envs/p4env/share/psi4
    Memory:     500.0 MiB
    Threads:    24
    
  ==> Input File <==

--------------------------------------------------------------------------
memory 144 GB

molecule {
0 1
H 0.0000000000 0.0000000000 0.0000000000
C 0.0000000000 0.0000000000 1.0879000000
H 1.0256819563 0.0000000000 1.4505333333
H -0.5128409782 0.8882666304 1.4505333333
H -0.5128409782 -0.8882666304 1.4505333333
symmetry c2
}

set dynamic_level 1
set basis cc-pV(D+d)Z
set full_hess_every 1
 
optimize("wB97M-V")
frequencies("wB97M-V")
--------------------------------------------------------------------------

  Memory set to 134.110 GiB by Python driver.
gradient() will perform gradient computation by finite difference of analytic energies.

         ----------------------------------------------------------
                                   FINDIF
                     R. A. King and Jonathon Misiewicz
         ---------------------------------------------------------

  Using finite-differences of energies to determine gradients.
    Generating geometries for use with 3-point formula.
    Displacement size will be 5.00e-03.
    Number of atoms is 5.
    Number of symmetric SALCs is 5.
    Translations projected? 1. Rotations projected? 1.
    Number of geometries (including reference) is 11.

  //>>>>>>>>>>>>>>>>>>>>>>>>>>>>>>>>>>>//
  //    Loading displacement 1 of 11   //
  //<<<<<<<<<<<<<<<<<<<<<<<<<<<<<<<<<<<//

*** tstart() called on bp1-compute00147.data.bp.acrc.priv
*** at Wed Apr 28 13:29:44 2021

   => Loading Basis Set <=

    Name: CC-PV(D+D)Z
    Role: ORBITAL
    Keyword: BASIS
    atoms 1, 3-5 entry H          line    31 file /work/zw18965/.conda/envs/p4env/share/psi4/basis/cc-pv_dpd_z.gbs 
    atoms 2      entry C          line   147 file /work/zw18965/.conda/envs/p4env/share/psi4/basis/cc-pv_dpd_z.gbs 


         ---------------------------------------------------------
                                   SCF
               by Justin Turney, Rob Parrish, Andy Simmonett
                          and Daniel G. A. Smith
                              RKS Reference
                       24 Threads, 137329 MiB Core
         ---------------------------------------------------------

  ==> Geometry <==

    Molecular point group: c2
    Full point group: Td

    Geometry (in Angstrom), charge = 0, multiplicity = 1:

       Center              X                  Y                   Z               Mass       
    ------------   -----------------  -----------------  -----------------  -----------------
         H            0.000000000007     0.888266630384    -0.628099357864     1.007825032230
         C           -0.000000000000     0.000000000000     0.000000000006    12.000000000000
         H            0.888266630391     0.000000000002     0.628099357827     1.007825032230
         H           -0.888266630391    -0.000000000002     0.628099357827     1.007825032230
         H           -0.000000000007    -0.888266630384    -0.628099357864     1.007825032230

  Running in c2 symmetry.

  Rotational constants: A =      5.29986  B =      5.29986  C =      5.29986 [cm^-1]
  Rotational constants: A = 158885.90516  B = 158885.90516  C = 158885.90516 [MHz]
  Nuclear repulsion =   13.461323909034332

  Charge       = 0
  Multiplicity = 1
  Electrons    = 10
  Nalpha       = 5
  Nbeta        = 5

  ==> Algorithm <==

  SCF Algorithm Type is DF.
  DIIS enabled.
  MOM disabled.
  Fractional occupation disabled.
  Guess Type is SAD.
  Energy threshold   = 1.00e-08
  Density threshold  = 1.00e-08
  Integral threshold = 0.00e+00

  ==> Primary Basis <==

  Basis Set: CC-PV(D+D)Z
    Blend: CC-PV(D+D)Z
    Number of shells: 18
    Number of basis function: 34
    Number of Cartesian functions: 35
    Spherical Harmonics?: true
    Max angular momentum: 2

  ==> DFT Potential <==

   => Composite Functional: WB97M-V <= 

    wB97M-V Hyb-GGA Exchange-Correlation Functional

    N. Mardirossian and M. Head-Gordon, J. Chem. Phys. 144, 214110 (2016)

    Deriv               =              1
    GGA                 =           TRUE
    Meta                =           TRUE

    Exchange Hybrid     =           TRUE
    MP2 Hybrid          =          FALSE

   => Exchange-Correlation Functionals <=

    1.0000   wB97M-V exchange-correlation functional

   => Exact (HF) Exchange <=

    0.8500            HF,LR [omega = 0.3000]
    0.1500               HF 

   => VV10 Non-Local Parameters <=

    VV10 B              =     6.0000E+00
    VV10 C              =     1.0000E-02

   => Molecular Quadrature <=

    Radial Scheme          =       TREUTLER
    Pruning Scheme         =           FLAT
    Nuclear Scheme         =       TREUTLER

    BS radius alpha        =              1
    Pruning alpha          =              1
    Radial Points          =             75
    Spherical Points       =            302
    Total Points           =         111374
    Total Blocks           =            915
    Max Points             =            256
    Max Functions          =             34

   => Loading Basis Set <=

    Name: (CC-PV(D+D)Z AUX)
    Role: JKFIT
    Keyword: DF_BASIS_SCF
    atoms 1, 3-5 entry H          line    51 file /work/zw18965/.conda/envs/p4env/share/psi4/basis/cc-pvdz-jkfit.gbs 
    atoms 2      entry C          line   121 file /work/zw18965/.conda/envs/p4env/share/psi4/basis/cc-pvdz-jkfit.gbs 

  ==> Pre-Iterations <==

   -------------------------------------------------------
    Irrep   Nso     Nmo     Nalpha   Nbeta   Ndocc  Nsocc
   -------------------------------------------------------
     A         18      18       0       0       0       0
     B         16      16       0       0       0       0
   -------------------------------------------------------
    Total      34      34       5       5       5       0
   -------------------------------------------------------

  ==> Integral Setup <==

  ==> DiskDFJK: Density-Fitted J/K Matrices <==

    J tasked:                  Yes
    K tasked:                  Yes
    wK tasked:                 Yes
    Omega:               3.000E-01
    OpenMP threads:             24
    Integrals threads:          24
    Memory [MiB]:           102723
    Algorithm:                Core
    Integral Cache:           NONE
    Schwarz Cutoff:          1E-12
    Fitting Condition:       1E-10

   => Auxiliary Basis Set <=

  Basis Set: (CC-PV(D+D)Z AUX)
    Blend: CC-PVDZ-JKFIT
    Number of shells: 60
    Number of basis function: 162
    Number of Cartesian functions: 181
    Spherical Harmonics?: true
    Max angular momentum: 3

  Cached 100.0% of DFT collocation blocks in 0.267 [GiB].

  Minimum eigenvalue in the overlap matrix is 2.3035928270E-02.
  Using Symmetric Orthogonalization.

  SCF Guess: Superposition of Atomic Densities via on-the-fly atomic UHF.

  ==> Iterations <==

                           Total Energy        Delta E     RMS |[F,P]|

   @DF-RKS iter SAD:   -39.99796191214601   -3.99980e+01   0.00000e+00 
   @DF-RKS iter   1:   -40.37393456168233   -3.75973e-01   1.75426e-02 DIIS
   @DF-RKS iter   2:   -40.42683110349412   -5.28965e-02   1.19767e-02 DIIS
   @DF-RKS iter   3:   -40.46986787288152   -4.30368e-02   4.59979e-04 DIIS
   @DF-RKS iter   4:   -40.47003017318740   -1.62300e-04   8.59912e-05 DIIS
   @DF-RKS iter   5:   -40.47003391850731   -3.74532e-06   6.41874e-06 DIIS
   @DF-RKS iter   6:   -40.47003394645382   -2.79465e-08   5.58419e-07 DIIS
   @DF-RKS iter   7:   -40.47003394659726   -1.43437e-10   4.77239e-08 DIIS
   @DF-RKS iter   8:   -40.47003394659879   -1.52767e-12   2.31402e-09 DIIS
  Energy and wave function converged.


  ==> Post-Iterations <==

    Orbital Energies [Eh]
    ---------------------

    Doubly Occupied:                                                      

       1A    -10.337286     2A     -0.808717     3A     -0.487775  
       1B     -0.487775     2B     -0.487775  

    Virtual:                                                              

       4A      0.151043     5A      0.223506     3B      0.223506  
       4B      0.223506     6A      0.504238     5B      0.504238  
       6B      0.504238     7A      0.746449     7B      0.746449  
       8B      0.746449     8A      0.775553     9A      0.994359  
      10A      0.994360    11A      1.124183    12A      1.516716  
       9B      1.516717    10B      1.516717    11B      1.703394  
      12B      1.703394    13A      1.703395    13B      2.016948  
      14B      2.016948    14A      2.016949    15A      2.336929  
      16A      2.336930    17A      2.499206    18A      2.531273  
      15B      2.531273    16B      2.531273  

    Final Occupation by Irrep:
              A     B 
    DOCC [     3,    2 ]

  @DF-RKS Final Energy:   -40.47003394659879

   => Energetics <=

    Nuclear Repulsion Energy =             13.4613239090343324
    One-Electron Energy =                 -79.8254668502415541
    Two-Electron Energy =                  30.4530856905442988
    DFT Exchange-Correlation Energy =      -4.6003869564211826
    Empirical Dispersion Energy =           0.0000000000000000
    VV10 Nonlocal Energy =                  0.0414102604853114
    Total Energy =                        -40.4700339465987895

Computation Completed


Properties will be evaluated at   0.000000,   0.000000,   0.000000 [a0]

Properties computed using the SCF density matrix

  Nuclear Dipole Moment: [e a0]
     X:     0.0000      Y:     0.0000      Z:    -0.0000

  Electronic Dipole Moment: [e a0]
     X:     0.0000      Y:     0.0000      Z:     0.0000

  Dipole Moment: [e a0]
     X:     0.0000      Y:     0.0000      Z:     0.0000     Total:     0.0000

  Dipole Moment: [D]
     X:     0.0000      Y:     0.0000      Z:     0.0000     Total:     0.0000


*** tstop() called on bp1-compute00147.data.bp.acrc.priv at Wed Apr 28 13:29:47 2021
Module time:
	user time   =      78.39 seconds =       1.31 minutes
	system time =       2.86 seconds =       0.05 minutes
	total time  =          3 seconds =       0.05 minutes
Total time:
	user time   =      78.39 seconds =       1.31 minutes
	system time =       2.86 seconds =       0.05 minutes
	total time  =          3 seconds =       0.05 minutes

  //>>>>>>>>>>>>>>>>>>>>>>>>>>>>>>>>>>>//
  //    Loading displacement 2 of 11   //
  //<<<<<<<<<<<<<<<<<<<<<<<<<<<<<<<<<<<//

*** tstart() called on bp1-compute00147.data.bp.acrc.priv
*** at Wed Apr 28 13:29:47 2021

   => Loading Basis Set <=

    Name: CC-PV(D+D)Z
    Role: ORBITAL
    Keyword: BASIS
    atoms 1, 3-5 entry H          line    31 file /work/zw18965/.conda/envs/p4env/share/psi4/basis/cc-pv_dpd_z.gbs 
    atoms 2      entry C          line   147 file /work/zw18965/.conda/envs/p4env/share/psi4/basis/cc-pv_dpd_z.gbs 


         ---------------------------------------------------------
                                   SCF
               by Justin Turney, Rob Parrish, Andy Simmonett
                          and Daniel G. A. Smith
                              RKS Reference
                       24 Threads, 137329 MiB Core
         ---------------------------------------------------------

  ==> Geometry <==

    Molecular point group: c2
    Full point group: C2

    Geometry (in Angstrom), charge = 0, multiplicity = 1:

       Center              X                  Y                   Z               Mass       
    ------------   -----------------  -----------------  -----------------  -----------------
         H           -0.001317797164     0.888266630384    -0.628099357864     1.007825032230
         C           -0.000000000000    -0.000000000000     0.000000000006    12.000000000000
         H            0.888266630391    -0.001317797169     0.628099357827     1.007825032230
         H           -0.888266630391     0.001317797169     0.628099357827     1.007825032230
         H            0.001317797164    -0.888266630384    -0.628099357864     1.007825032230

  Running in c2 symmetry.

  Rotational constants: A =      5.30773  B =      5.29985  C =      5.29201 [cm^-1]
  Rotational constants: A = 159121.79684  B = 158885.55546  C = 158650.36318 [MHz]
  Nuclear repulsion =   13.461315016536261

  Charge       = 0
  Multiplicity = 1
  Electrons    = 10
  Nalpha       = 5
  Nbeta        = 5

  ==> Algorithm <==

  SCF Algorithm Type is DF.
  DIIS enabled.
  MOM disabled.
  Fractional occupation disabled.
  Guess Type is SAD.
  Energy threshold   = 1.00e-08
  Density threshold  = 1.00e-08
  Integral threshold = 0.00e+00

  ==> Primary Basis <==

  Basis Set: CC-PV(D+D)Z
    Blend: CC-PV(D+D)Z
    Number of shells: 18
    Number of basis function: 34
    Number of Cartesian functions: 35
    Spherical Harmonics?: true
    Max angular momentum: 2

  ==> DFT Potential <==

   => Composite Functional: WB97M-V <= 

    wB97M-V Hyb-GGA Exchange-Correlation Functional

    N. Mardirossian and M. Head-Gordon, J. Chem. Phys. 144, 214110 (2016)

    Deriv               =              1
    GGA                 =           TRUE
    Meta                =           TRUE

    Exchange Hybrid     =           TRUE
    MP2 Hybrid          =          FALSE

   => Exchange-Correlation Functionals <=

    1.0000   wB97M-V exchange-correlation functional

   => Exact (HF) Exchange <=

    0.8500            HF,LR [omega = 0.3000]
    0.1500               HF 

   => VV10 Non-Local Parameters <=

    VV10 B              =     6.0000E+00
    VV10 C              =     1.0000E-02

   => Molecular Quadrature <=

    Radial Scheme          =       TREUTLER
    Pruning Scheme         =           FLAT
    Nuclear Scheme         =       TREUTLER

    BS radius alpha        =              1
    Pruning alpha          =              1
    Radial Points          =             75
    Spherical Points       =            302
    Total Points           =         111358
    Total Blocks           =            915
    Max Points             =            255
    Max Functions          =             34

   => Loading Basis Set <=

    Name: (CC-PV(D+D)Z AUX)
    Role: JKFIT
    Keyword: DF_BASIS_SCF
    atoms 1, 3-5 entry H          line    51 file /work/zw18965/.conda/envs/p4env/share/psi4/basis/cc-pvdz-jkfit.gbs 
    atoms 2      entry C          line   121 file /work/zw18965/.conda/envs/p4env/share/psi4/basis/cc-pvdz-jkfit.gbs 

  ==> Pre-Iterations <==

   -------------------------------------------------------
    Irrep   Nso     Nmo     Nalpha   Nbeta   Ndocc  Nsocc
   -------------------------------------------------------
     A         18      18       0       0       0       0
     B         16      16       0       0       0       0
   -------------------------------------------------------
    Total      34      34       5       5       5       0
   -------------------------------------------------------

  ==> Integral Setup <==

  ==> DiskDFJK: Density-Fitted J/K Matrices <==

    J tasked:                  Yes
    K tasked:                  Yes
    wK tasked:                 Yes
    Omega:               3.000E-01
    OpenMP threads:             24
    Integrals threads:          24
    Memory [MiB]:           102723
    Algorithm:                Core
    Integral Cache:           NONE
    Schwarz Cutoff:          1E-12
    Fitting Condition:       1E-10

   => Auxiliary Basis Set <=

  Basis Set: (CC-PV(D+D)Z AUX)
    Blend: CC-PVDZ-JKFIT
    Number of shells: 60
    Number of basis function: 162
    Number of Cartesian functions: 181
    Spherical Harmonics?: true
    Max angular momentum: 3

  Cached 100.0% of DFT collocation blocks in 0.267 [GiB].

  Minimum eigenvalue in the overlap matrix is 2.3035958204E-02.
  Using Symmetric Orthogonalization.

  SCF Guess: Superposition of Atomic Densities via on-the-fly atomic UHF.

  ==> Iterations <==

                           Total Energy        Delta E     RMS |[F,P]|

   @DF-RKS iter SAD:   -39.99796984575705   -3.99980e+01   0.00000e+00 
   @DF-RKS iter   1:   -40.37393750446820   -3.75968e-01   1.75424e-02 DIIS
   @DF-RKS iter   2:   -40.42683359899087   -5.28961e-02   1.19765e-02 DIIS
   @DF-RKS iter   3:   -40.46986930680087   -4.30357e-02   4.59984e-04 DIIS
   @DF-RKS iter   4:   -40.47003160895718   -1.62302e-04   8.59925e-05 DIIS
   @DF-RKS iter   5:   -40.47003535459251   -3.74564e-06   6.41942e-06 DIIS
   @DF-RKS iter   6:   -40.47003538254477   -2.79523e-08   5.58541e-07 DIIS
   @DF-RKS iter   7:   -40.47003538268829   -1.43523e-10   4.77850e-08 DIIS
   @DF-RKS iter   8:   -40.47003538268978   -1.48503e-12   2.34937e-09 DIIS
  Energy and wave function converged.


  ==> Post-Iterations <==

    Orbital Energies [Eh]
    ---------------------

    Doubly Occupied:                                                      

       1A    -10.337287     2A     -0.808717     1B     -0.488170  
       3A     -0.487775     2B     -0.487381  

    Virtual:                                                              

       4A      0.151042     3B      0.223466     5A      0.223505  
       4B      0.223542     5B      0.503785     6A      0.504236  
       6B      0.504689     7B      0.746310     7A      0.746447  
       8B      0.746584     8A      0.775546     9A      0.993958  
      10A      0.994752    11A      1.124185     9B      1.516339  
      12A      1.516709    10B      1.517095    11B      1.703356  
      13A      1.703403    12B      1.703434    13B      2.015796  
      14A      2.016949    14B      2.018091    15A      2.335967  
      16A      2.337878    17A      2.499206    15B      2.530786  
      18A      2.531265    16B      2.531747  

    Final Occupation by Irrep:
              A     B 
    DOCC [     3,    2 ]

  @DF-RKS Final Energy:   -40.47003538268978

   => Energetics <=

    Nuclear Repulsion Energy =             13.4613150165362612
    One-Electron Energy =                 -79.8254446956908055
    Two-Electron Energy =                  30.4530708848316962
    DFT Exchange-Correlation Energy =      -4.6003870481773630
    Empirical Dispersion Energy =           0.0000000000000000
    VV10 Nonlocal Energy =                  0.0414104598104317
    Total Energy =                        -40.4700353826897796

Computation Completed


Properties will be evaluated at   0.000000,   0.000000,   0.000000 [a0]

Properties computed using the SCF density matrix

  Nuclear Dipole Moment: [e a0]
     X:     0.0000      Y:     0.0000      Z:    -0.0000

  Electronic Dipole Moment: [e a0]
     X:     0.0000      Y:     0.0000      Z:     0.0000

  Dipole Moment: [e a0]
     X:     0.0000      Y:     0.0000      Z:     0.0000     Total:     0.0000

  Dipole Moment: [D]
     X:     0.0000      Y:     0.0000      Z:     0.0000     Total:     0.0000


*** tstop() called on bp1-compute00147.data.bp.acrc.priv at Wed Apr 28 13:29:51 2021
Module time:
	user time   =      78.78 seconds =       1.31 minutes
	system time =       2.07 seconds =       0.03 minutes
	total time  =          4 seconds =       0.07 minutes
Total time:
	user time   =     157.40 seconds =       2.62 minutes
	system time =       4.94 seconds =       0.08 minutes
	total time  =          7 seconds =       0.12 minutes

  //>>>>>>>>>>>>>>>>>>>>>>>>>>>>>>>>>>>//
  //    Loading displacement 3 of 11   //
  //<<<<<<<<<<<<<<<<<<<<<<<<<<<<<<<<<<<//

*** tstart() called on bp1-compute00147.data.bp.acrc.priv
*** at Wed Apr 28 13:29:51 2021

   => Loading Basis Set <=

    Name: CC-PV(D+D)Z
    Role: ORBITAL
    Keyword: BASIS
    atoms 1, 3-5 entry H          line    31 file /work/zw18965/.conda/envs/p4env/share/psi4/basis/cc-pv_dpd_z.gbs 
    atoms 2      entry C          line   147 file /work/zw18965/.conda/envs/p4env/share/psi4/basis/cc-pv_dpd_z.gbs 


         ---------------------------------------------------------
                                   SCF
               by Justin Turney, Rob Parrish, Andy Simmonett
                          and Daniel G. A. Smith
                              RKS Reference
                       24 Threads, 137329 MiB Core
         ---------------------------------------------------------

  ==> Geometry <==

    Molecular point group: c2
    Full point group: C2

    Geometry (in Angstrom), charge = 0, multiplicity = 1:

       Center              X                  Y                   Z               Mass       
    ------------   -----------------  -----------------  -----------------  -----------------
         H            0.001317797178     0.888266630384    -0.628099357864     1.007825032230
         C           -0.000000000000     0.000000000000     0.000000000006    12.000000000000
         H            0.888266630391     0.001317797173     0.628099357827     1.007825032230
         H           -0.888266630391    -0.001317797173     0.628099357827     1.007825032230
         H           -0.001317797178    -0.888266630384    -0.628099357864     1.007825032230

  Running in c2 symmetry.

  Rotational constants: A =      5.30773  B =      5.29985  C =      5.29201 [cm^-1]
  Rotational constants: A = 159121.79684  B = 158885.55546  C = 158650.36317 [MHz]
  Nuclear repulsion =   13.461315016536149

  Charge       = 0
  Multiplicity = 1
  Electrons    = 10
  Nalpha       = 5
  Nbeta        = 5

  ==> Algorithm <==

  SCF Algorithm Type is DF.
  DIIS enabled.
  MOM disabled.
  Fractional occupation disabled.
  Guess Type is SAD.
  Energy threshold   = 1.00e-08
  Density threshold  = 1.00e-08
  Integral threshold = 0.00e+00

  ==> Primary Basis <==

  Basis Set: CC-PV(D+D)Z
    Blend: CC-PV(D+D)Z
    Number of shells: 18
    Number of basis function: 34
    Number of Cartesian functions: 35
    Spherical Harmonics?: true
    Max angular momentum: 2

  ==> DFT Potential <==

   => Composite Functional: WB97M-V <= 

    wB97M-V Hyb-GGA Exchange-Correlation Functional

    N. Mardirossian and M. Head-Gordon, J. Chem. Phys. 144, 214110 (2016)

    Deriv               =              1
    GGA                 =           TRUE
    Meta                =           TRUE

    Exchange Hybrid     =           TRUE
    MP2 Hybrid          =          FALSE

   => Exchange-Correlation Functionals <=

    1.0000   wB97M-V exchange-correlation functional

   => Exact (HF) Exchange <=

    0.8500            HF,LR [omega = 0.3000]
    0.1500               HF 

   => VV10 Non-Local Parameters <=

    VV10 B              =     6.0000E+00
    VV10 C              =     1.0000E-02

   => Molecular Quadrature <=

    Radial Scheme          =       TREUTLER
    Pruning Scheme         =           FLAT
    Nuclear Scheme         =       TREUTLER

    BS radius alpha        =              1
    Pruning alpha          =              1
    Radial Points          =             75
    Spherical Points       =            302
    Total Points           =         111358
    Total Blocks           =            915
    Max Points             =            255
    Max Functions          =             34

   => Loading Basis Set <=

    Name: (CC-PV(D+D)Z AUX)
    Role: JKFIT
    Keyword: DF_BASIS_SCF
    atoms 1, 3-5 entry H          line    51 file /work/zw18965/.conda/envs/p4env/share/psi4/basis/cc-pvdz-jkfit.gbs 
    atoms 2      entry C          line   121 file /work/zw18965/.conda/envs/p4env/share/psi4/basis/cc-pvdz-jkfit.gbs 

  ==> Pre-Iterations <==

   -------------------------------------------------------
    Irrep   Nso     Nmo     Nalpha   Nbeta   Ndocc  Nsocc
   -------------------------------------------------------
     A         18      18       0       0       0       0
     B         16      16       0       0       0       0
   -------------------------------------------------------
    Total      34      34       5       5       5       0
   -------------------------------------------------------

  ==> Integral Setup <==

  ==> DiskDFJK: Density-Fitted J/K Matrices <==

    J tasked:                  Yes
    K tasked:                  Yes
    wK tasked:                 Yes
    Omega:               3.000E-01
    OpenMP threads:             24
    Integrals threads:          24
    Memory [MiB]:           102723
    Algorithm:                Core
    Integral Cache:           NONE
    Schwarz Cutoff:          1E-12
    Fitting Condition:       1E-10

   => Auxiliary Basis Set <=

  Basis Set: (CC-PV(D+D)Z AUX)
    Blend: CC-PVDZ-JKFIT
    Number of shells: 60
    Number of basis function: 162
    Number of Cartesian functions: 181
    Spherical Harmonics?: true
    Max angular momentum: 3

  Cached 100.0% of DFT collocation blocks in 0.267 [GiB].

  Minimum eigenvalue in the overlap matrix is 2.3035958204E-02.
  Using Symmetric Orthogonalization.

  SCF Guess: Superposition of Atomic Densities via on-the-fly atomic UHF.

  ==> Iterations <==

                           Total Energy        Delta E     RMS |[F,P]|

   @DF-RKS iter SAD:   -39.99796984577883   -3.99980e+01   0.00000e+00 
   @DF-RKS iter   1:   -40.37393750449352   -3.75968e-01   1.75424e-02 DIIS
   @DF-RKS iter   2:   -40.42683359901681   -5.28961e-02   1.19765e-02 DIIS
   @DF-RKS iter   3:   -40.46986930682546   -4.30357e-02   4.59984e-04 DIIS
   @DF-RKS iter   4:   -40.47003160898182   -1.62302e-04   8.59925e-05 DIIS
   @DF-RKS iter   5:   -40.47003535461710   -3.74564e-06   6.41942e-06 DIIS
   @DF-RKS iter   6:   -40.47003538256940   -2.79523e-08   5.58541e-07 DIIS
   @DF-RKS iter   7:   -40.47003538271295   -1.43551e-10   4.77850e-08 DIIS
   @DF-RKS iter   8:   -40.47003538271442   -1.47082e-12   2.34937e-09 DIIS
  Energy and wave function converged.


  ==> Post-Iterations <==

    Orbital Energies [Eh]
    ---------------------

    Doubly Occupied:                                                      

       1A    -10.337287     2A     -0.808717     1B     -0.488170  
       3A     -0.487775     2B     -0.487381  

    Virtual:                                                              

       4A      0.151042     3B      0.223466     5A      0.223505  
       4B      0.223542     5B      0.503785     6A      0.504236  
       6B      0.504689     7B      0.746310     7A      0.746447  
       8B      0.746584     8A      0.775546     9A      0.993958  
      10A      0.994752    11A      1.124185     9B      1.516339  
      12A      1.516709    10B      1.517095    11B      1.703356  
      13A      1.703403    12B      1.703434    13B      2.015796  
      14A      2.016949    14B      2.018091    15A      2.335967  
      16A      2.337878    17A      2.499206    15B      2.530786  
      18A      2.531265    16B      2.531747  

    Final Occupation by Irrep:
              A     B 
    DOCC [     3,    2 ]

  @DF-RKS Final Energy:   -40.47003538271442

   => Energetics <=

    Nuclear Repulsion Energy =             13.4613150165361493
    One-Electron Energy =                 -79.8254446956894697
    Two-Electron Energy =                  30.4530708848060350
    DFT Exchange-Correlation Energy =      -4.6003870481775708
    Empirical Dispersion Energy =           0.0000000000000000
    VV10 Nonlocal Energy =                  0.0414104598104325
    Total Energy =                        -40.4700353827144212

Computation Completed


Properties will be evaluated at   0.000000,   0.000000,   0.000000 [a0]

Properties computed using the SCF density matrix

  Nuclear Dipole Moment: [e a0]
     X:    -0.0000      Y:     0.0000      Z:    -0.0000

  Electronic Dipole Moment: [e a0]
     X:     0.0000      Y:     0.0000      Z:     0.0000

  Dipole Moment: [e a0]
     X:    -0.0000      Y:     0.0000      Z:     0.0000     Total:     0.0000

  Dipole Moment: [D]
     X:    -0.0000      Y:     0.0000      Z:     0.0000     Total:     0.0000


*** tstop() called on bp1-compute00147.data.bp.acrc.priv at Wed Apr 28 13:29:54 2021
Module time:
	user time   =      77.64 seconds =       1.29 minutes
	system time =       1.94 seconds =       0.03 minutes
	total time  =          3 seconds =       0.05 minutes
Total time:
	user time   =     235.17 seconds =       3.92 minutes
	system time =       6.88 seconds =       0.11 minutes
	total time  =         10 seconds =       0.17 minutes

  //>>>>>>>>>>>>>>>>>>>>>>>>>>>>>>>>>>>//
  //    Loading displacement 4 of 11   //
  //<<<<<<<<<<<<<<<<<<<<<<<<<<<<<<<<<<<//

*** tstart() called on bp1-compute00147.data.bp.acrc.priv
*** at Wed Apr 28 13:29:54 2021

   => Loading Basis Set <=

    Name: CC-PV(D+D)Z
    Role: ORBITAL
    Keyword: BASIS
    atoms 1, 3-5 entry H          line    31 file /work/zw18965/.conda/envs/p4env/share/psi4/basis/cc-pv_dpd_z.gbs 
    atoms 2      entry C          line   147 file /work/zw18965/.conda/envs/p4env/share/psi4/basis/cc-pv_dpd_z.gbs 


         ---------------------------------------------------------
                                   SCF
               by Justin Turney, Rob Parrish, Andy Simmonett
                          and Daniel G. A. Smith
                              RKS Reference
                       24 Threads, 137329 MiB Core
         ---------------------------------------------------------

  ==> Geometry <==

    Molecular point group: c2
    Full point group: D1

    Geometry (in Angstrom), charge = 0, multiplicity = 1:

       Center              X                  Y                   Z               Mass       
    ------------   -----------------  -----------------  -----------------  -----------------
         H            0.000000000007     0.886402983753    -0.628099357864     1.007825032230
         C            0.000000000000     0.000000000000     0.000000000006    12.000000000000
         H            0.888266630391     0.000000000002     0.628099357827     1.007825032230
         H           -0.888266630391    -0.000000000002     0.628099357827     1.007825032230
         H           -0.000000000007    -0.886402983753    -0.628099357864     1.007825032230

  Running in c2 symmetry.

  Rotational constants: A =      5.31099  B =      5.31099  C =      5.29986 [cm^-1]
  Rotational constants: A = 159219.60880  B = 159219.60880  C = 158885.90516 [MHz]
  Nuclear repulsion =   13.470747899164557

  Charge       = 0
  Multiplicity = 1
  Electrons    = 10
  Nalpha       = 5
  Nbeta        = 5

  ==> Algorithm <==

  SCF Algorithm Type is DF.
  DIIS enabled.
  MOM disabled.
  Fractional occupation disabled.
  Guess Type is SAD.
  Energy threshold   = 1.00e-08
  Density threshold  = 1.00e-08
  Integral threshold = 0.00e+00

  ==> Primary Basis <==

  Basis Set: CC-PV(D+D)Z
    Blend: CC-PV(D+D)Z
    Number of shells: 18
    Number of basis function: 34
    Number of Cartesian functions: 35
    Spherical Harmonics?: true
    Max angular momentum: 2

  ==> DFT Potential <==

   => Composite Functional: WB97M-V <= 

    wB97M-V Hyb-GGA Exchange-Correlation Functional

    N. Mardirossian and M. Head-Gordon, J. Chem. Phys. 144, 214110 (2016)

    Deriv               =              1
    GGA                 =           TRUE
    Meta                =           TRUE

    Exchange Hybrid     =           TRUE
    MP2 Hybrid          =          FALSE

   => Exchange-Correlation Functionals <=

    1.0000   wB97M-V exchange-correlation functional

   => Exact (HF) Exchange <=

    0.8500            HF,LR [omega = 0.3000]
    0.1500               HF 

   => VV10 Non-Local Parameters <=

    VV10 B              =     6.0000E+00
    VV10 C              =     1.0000E-02

   => Molecular Quadrature <=

    Radial Scheme          =       TREUTLER
    Pruning Scheme         =           FLAT
    Nuclear Scheme         =       TREUTLER

    BS radius alpha        =              1
    Pruning alpha          =              1
    Radial Points          =             75
    Spherical Points       =            302
    Total Points           =         111410
    Total Blocks           =            914
    Max Points             =            256
    Max Functions          =             34

   => Loading Basis Set <=

    Name: (CC-PV(D+D)Z AUX)
    Role: JKFIT
    Keyword: DF_BASIS_SCF
    atoms 1, 3-5 entry H          line    51 file /work/zw18965/.conda/envs/p4env/share/psi4/basis/cc-pvdz-jkfit.gbs 
    atoms 2      entry C          line   121 file /work/zw18965/.conda/envs/p4env/share/psi4/basis/cc-pvdz-jkfit.gbs 

  ==> Pre-Iterations <==

   -------------------------------------------------------
    Irrep   Nso     Nmo     Nalpha   Nbeta   Ndocc  Nsocc
   -------------------------------------------------------
     A         18      18       0       0       0       0
     B         16      16       0       0       0       0
   -------------------------------------------------------
    Total      34      34       5       5       5       0
   -------------------------------------------------------

  ==> Integral Setup <==

  ==> DiskDFJK: Density-Fitted J/K Matrices <==

    J tasked:                  Yes
    K tasked:                  Yes
    wK tasked:                 Yes
    Omega:               3.000E-01
    OpenMP threads:             24
    Integrals threads:          24
    Memory [MiB]:           102722
    Algorithm:                Core
    Integral Cache:           NONE
    Schwarz Cutoff:          1E-12
    Fitting Condition:       1E-10

   => Auxiliary Basis Set <=

  Basis Set: (CC-PV(D+D)Z AUX)
    Blend: CC-PVDZ-JKFIT
    Number of shells: 60
    Number of basis function: 162
    Number of Cartesian functions: 181
    Spherical Harmonics?: true
    Max angular momentum: 3

  Cached 100.0% of DFT collocation blocks in 0.268 [GiB].

  Minimum eigenvalue in the overlap matrix is 2.3005348755E-02.
  Using Symmetric Orthogonalization.

  SCF Guess: Superposition of Atomic Densities via on-the-fly atomic UHF.

  ==> Iterations <==

                           Total Energy        Delta E     RMS |[F,P]|

   @DF-RKS iter SAD:   -39.99907744231025   -3.99991e+01   0.00000e+00 
   @DF-RKS iter   1:   -40.37375156733285   -3.74674e-01   1.75607e-02 DIIS
   @DF-RKS iter   2:   -40.42679354587246   -5.30420e-02   1.19787e-02 DIIS
   @DF-RKS iter   3:   -40.46982658801052   -4.30330e-02   4.59797e-04 DIIS
   @DF-RKS iter   4:   -40.46998864197031   -1.62054e-04   8.59731e-05 DIIS
   @DF-RKS iter   5:   -40.46999238568268   -3.74371e-06   6.41979e-06 DIIS
   @DF-RKS iter   6:   -40.46999241364402   -2.79613e-08   5.61115e-07 DIIS
   @DF-RKS iter   7:   -40.46999241378843   -1.44411e-10   5.15443e-08 DIIS
   @DF-RKS iter   8:   -40.46999241379009   -1.65556e-12   7.32720e-09 DIIS
  Energy and wave function converged.


  ==> Post-Iterations <==

    Orbital Energies [Eh]
    ---------------------

    Doubly Occupied:                                                      

       1A    -10.336979     2A     -0.808959     3A     -0.488103  
       1B     -0.487905     2B     -0.487738  

    Virtual:                                                              

       4A      0.151154     3B      0.223503     5A      0.223667  
       4B      0.223779     5B      0.503960     6B      0.504274  
       6A      0.504436     7B      0.746451     7A      0.746869  
       8B      0.747113     8A      0.776451     9A      0.994305  
      10A      0.994632    11A      1.124284     9B      1.516934  
      12A      1.517131    10B      1.517861    11B      1.703169  
      13A      1.704147    12B      1.705077    13B      2.017043  
      14A      2.017106    14B      2.018808    15A      2.337770  
      16A      2.338546    17A      2.501280    15B      2.531375  
      18A      2.532709    16B      2.534532  

    Final Occupation by Irrep:
              A     B 
    DOCC [     3,    2 ]

  @DF-RKS Final Energy:   -40.46999241379009

   => Energetics <=

    Nuclear Repulsion Energy =             13.4707478991645573
    One-Electron Energy =                 -79.8429992574214111
    Two-Electron Energy =                  30.4620995716770757
    DFT Exchange-Correlation Energy =      -4.6012519960867300
    Empirical Dispersion Energy =           0.0000000000000000
    VV10 Nonlocal Energy =                  0.0414113688764140
    Total Energy =                        -40.4699924137900879

Computation Completed


Properties will be evaluated at   0.000000,   0.000000,   0.000000 [a0]

Properties computed using the SCF density matrix

  Nuclear Dipole Moment: [e a0]
     X:     0.0000      Y:     0.0000      Z:    -0.0000

  Electronic Dipole Moment: [e a0]
     X:     0.0000      Y:     0.0000      Z:    -0.0006

  Dipole Moment: [e a0]
     X:     0.0000      Y:     0.0000      Z:    -0.0006     Total:     0.0006

  Dipole Moment: [D]
     X:     0.0000      Y:     0.0000      Z:    -0.0016     Total:     0.0016


*** tstop() called on bp1-compute00147.data.bp.acrc.priv at Wed Apr 28 13:29:58 2021
Module time:
	user time   =      78.21 seconds =       1.30 minutes
	system time =       1.89 seconds =       0.03 minutes
	total time  =          4 seconds =       0.07 minutes
Total time:
	user time   =     313.54 seconds =       5.23 minutes
	system time =       8.78 seconds =       0.15 minutes
	total time  =         14 seconds =       0.23 minutes

  //>>>>>>>>>>>>>>>>>>>>>>>>>>>>>>>>>>>//
  //    Loading displacement 5 of 11   //
  //<<<<<<<<<<<<<<<<<<<<<<<<<<<<<<<<<<<//

*** tstart() called on bp1-compute00147.data.bp.acrc.priv
*** at Wed Apr 28 13:29:58 2021

   => Loading Basis Set <=

    Name: CC-PV(D+D)Z
    Role: ORBITAL
    Keyword: BASIS
    atoms 1, 3-5 entry H          line    31 file /work/zw18965/.conda/envs/p4env/share/psi4/basis/cc-pv_dpd_z.gbs 
    atoms 2      entry C          line   147 file /work/zw18965/.conda/envs/p4env/share/psi4/basis/cc-pv_dpd_z.gbs 


         ---------------------------------------------------------
                                   SCF
               by Justin Turney, Rob Parrish, Andy Simmonett
                          and Daniel G. A. Smith
                              RKS Reference
                       24 Threads, 137329 MiB Core
         ---------------------------------------------------------

  ==> Geometry <==

    Molecular point group: c2
    Full point group: D1

    Geometry (in Angstrom), charge = 0, multiplicity = 1:

       Center              X                  Y                   Z               Mass       
    ------------   -----------------  -----------------  -----------------  -----------------
         H            0.000000000007     0.890130277016    -0.628099357864     1.007825032230
         C           -0.000000000000     0.000000000000     0.000000000006    12.000000000000
         H            0.888266630391     0.000000000002     0.628099357827     1.007825032230
         H           -0.888266630391    -0.000000000002     0.628099357827     1.007825032230
         H           -0.000000000007    -0.890130277016    -0.628099357864     1.007825032230

  Running in c2 symmetry.

  Rotational constants: A =      5.29986  B =      5.28876  C =      5.28876 [cm^-1]
  Rotational constants: A = 158885.90516  B = 158552.90092  C = 158552.90092 [MHz]
  Nuclear repulsion =   13.451919342910072

  Charge       = 0
  Multiplicity = 1
  Electrons    = 10
  Nalpha       = 5
  Nbeta        = 5

  ==> Algorithm <==

  SCF Algorithm Type is DF.
  DIIS enabled.
  MOM disabled.
  Fractional occupation disabled.
  Guess Type is SAD.
  Energy threshold   = 1.00e-08
  Density threshold  = 1.00e-08
  Integral threshold = 0.00e+00

  ==> Primary Basis <==

  Basis Set: CC-PV(D+D)Z
    Blend: CC-PV(D+D)Z
    Number of shells: 18
    Number of basis function: 34
    Number of Cartesian functions: 35
    Spherical Harmonics?: true
    Max angular momentum: 2

  ==> DFT Potential <==

   => Composite Functional: WB97M-V <= 

    wB97M-V Hyb-GGA Exchange-Correlation Functional

    N. Mardirossian and M. Head-Gordon, J. Chem. Phys. 144, 214110 (2016)

    Deriv               =              1
    GGA                 =           TRUE
    Meta                =           TRUE

    Exchange Hybrid     =           TRUE
    MP2 Hybrid          =          FALSE

   => Exchange-Correlation Functionals <=

    1.0000   wB97M-V exchange-correlation functional

   => Exact (HF) Exchange <=

    0.8500            HF,LR [omega = 0.3000]
    0.1500               HF 

   => VV10 Non-Local Parameters <=

    VV10 B              =     6.0000E+00
    VV10 C              =     1.0000E-02

   => Molecular Quadrature <=

    Radial Scheme          =       TREUTLER
    Pruning Scheme         =           FLAT
    Nuclear Scheme         =       TREUTLER

    BS radius alpha        =              1
    Pruning alpha          =              1
    Radial Points          =             75
    Spherical Points       =            302
    Total Points           =         111410
    Total Blocks           =            908
    Max Points             =            256
    Max Functions          =             34

   => Loading Basis Set <=

    Name: (CC-PV(D+D)Z AUX)
    Role: JKFIT
    Keyword: DF_BASIS_SCF
    atoms 1, 3-5 entry H          line    51 file /work/zw18965/.conda/envs/p4env/share/psi4/basis/cc-pvdz-jkfit.gbs 
    atoms 2      entry C          line   121 file /work/zw18965/.conda/envs/p4env/share/psi4/basis/cc-pvdz-jkfit.gbs 

  ==> Pre-Iterations <==

   -------------------------------------------------------
    Irrep   Nso     Nmo     Nalpha   Nbeta   Ndocc  Nsocc
   -------------------------------------------------------
     A         18      18       0       0       0       0
     B         16      16       0       0       0       0
   -------------------------------------------------------
    Total      34      34       5       5       5       0
   -------------------------------------------------------

  ==> Integral Setup <==

  ==> DiskDFJK: Density-Fitted J/K Matrices <==

    J tasked:                  Yes
    K tasked:                  Yes
    wK tasked:                 Yes
    Omega:               3.000E-01
    OpenMP threads:             24
    Integrals threads:          24
    Memory [MiB]:           102722
    Algorithm:                Core
    Integral Cache:           NONE
    Schwarz Cutoff:          1E-12
    Fitting Condition:       1E-10

   => Auxiliary Basis Set <=

  Basis Set: (CC-PV(D+D)Z AUX)
    Blend: CC-PVDZ-JKFIT
    Number of shells: 60
    Number of basis function: 162
    Number of Cartesian functions: 181
    Spherical Harmonics?: true
    Max angular momentum: 3

  Cached 100.0% of DFT collocation blocks in 0.268 [GiB].

  Minimum eigenvalue in the overlap matrix is 2.3066226180E-02.
  Using Symmetric Orthogonalization.

  SCF Guess: Superposition of Atomic Densities via on-the-fly atomic UHF.

  ==> Iterations <==

                           Total Energy        Delta E     RMS |[F,P]|

   @DF-RKS iter SAD:   -39.99684750784348   -3.99968e+01   0.00000e+00 
   @DF-RKS iter   1:   -40.37411235133339   -3.77265e-01   1.75242e-02 DIIS
   @DF-RKS iter   2:   -40.42686336971995   -5.27510e-02   1.19744e-02 DIIS
   @DF-RKS iter   3:   -40.46990244289486   -4.30391e-02   4.60171e-04 DIIS
   @DF-RKS iter   4:   -40.47006498837478   -1.62545e-04   8.60099e-05 DIIS
   @DF-RKS iter   5:   -40.47006873566408   -3.74729e-06   6.42118e-06 DIIS
   @DF-RKS iter   6:   -40.47006876361400   -2.79499e-08   5.59842e-07 DIIS
   @DF-RKS iter   7:   -40.47006876375767   -1.43665e-10   5.15229e-08 DIIS
   @DF-RKS iter   8:   -40.47006876375930   -1.63425e-12   7.29530e-09 DIIS
  Energy and wave function converged.


  ==> Post-Iterations <==

    Orbital Energies [Eh]
    ---------------------

    Doubly Occupied:                                                      

       1A    -10.337592     2A     -0.808475     1B     -0.487810  
       2B     -0.487642     3A     -0.487449  

    Virtual:                                                              

       4A      0.150929     3B      0.223232     5A      0.223343  
       4B      0.223508     6A      0.504037     5B      0.504200  
       6B      0.504515     7B      0.745786     7A      0.746009  
       8B      0.746446     8A      0.774671     9A      0.994088  
      10A      0.994409    11A      1.124080     9B      1.515571  
      12A      1.516303    10B      1.516498    11B      1.701720  
      13A      1.702638    12B      1.703619    13B      2.015092  
      14A      2.016774    14B      2.016851    15A      2.335294  
      16A      2.336078    17A      2.496963    15B      2.528025  
      18A      2.530023    16B      2.531163  

    Final Occupation by Irrep:
              A     B 
    DOCC [     3,    2 ]

  @DF-RKS Final Energy:   -40.47006876375930

   => Energetics <=

    Nuclear Repulsion Energy =             13.4519193429100721
    One-Electron Energy =                 -79.8079612408804735
    Two-Electron Energy =                  30.4440870951490972
    DFT Exchange-Correlation Energy =      -4.5995228244984112
    Empirical Dispersion Energy =           0.0000000000000000
    VV10 Nonlocal Energy =                  0.0414088635604121
    Total Energy =                        -40.4700687637592935

Computation Completed


Properties will be evaluated at   0.000000,   0.000000,   0.000000 [a0]

Properties computed using the SCF density matrix

  Nuclear Dipole Moment: [e a0]
     X:     0.0000      Y:     0.0000      Z:    -0.0000

  Electronic Dipole Moment: [e a0]
     X:     0.0000      Y:     0.0000      Z:     0.0006

  Dipole Moment: [e a0]
     X:     0.0000      Y:     0.0000      Z:     0.0006     Total:     0.0006

  Dipole Moment: [D]
     X:     0.0000      Y:     0.0000      Z:     0.0017     Total:     0.0017


*** tstop() called on bp1-compute00147.data.bp.acrc.priv at Wed Apr 28 13:30:01 2021
Module time:
	user time   =      78.64 seconds =       1.31 minutes
	system time =       1.83 seconds =       0.03 minutes
	total time  =          3 seconds =       0.05 minutes
Total time:
	user time   =     392.32 seconds =       6.54 minutes
	system time =      10.62 seconds =       0.18 minutes
	total time  =         17 seconds =       0.28 minutes

  //>>>>>>>>>>>>>>>>>>>>>>>>>>>>>>>>>>>//
  //    Loading displacement 6 of 11   //
  //<<<<<<<<<<<<<<<<<<<<<<<<<<<<<<<<<<<//

*** tstart() called on bp1-compute00147.data.bp.acrc.priv
*** at Wed Apr 28 13:30:01 2021

   => Loading Basis Set <=

    Name: CC-PV(D+D)Z
    Role: ORBITAL
    Keyword: BASIS
    atoms 1, 3-5 entry H          line    31 file /work/zw18965/.conda/envs/p4env/share/psi4/basis/cc-pv_dpd_z.gbs 
    atoms 2      entry C          line   147 file /work/zw18965/.conda/envs/p4env/share/psi4/basis/cc-pv_dpd_z.gbs 


         ---------------------------------------------------------
                                   SCF
               by Justin Turney, Rob Parrish, Andy Simmonett
                          and Daniel G. A. Smith
                              RKS Reference
                       24 Threads, 137329 MiB Core
         ---------------------------------------------------------

  ==> Geometry <==

    Molecular point group: c2
    Full point group: C2v

    Geometry (in Angstrom), charge = 0, multiplicity = 1:

       Center              X                  Y                   Z               Mass       
    ------------   -----------------  -----------------  -----------------  -----------------
         H            0.000000000007     0.888266630384    -0.629841910154     1.007825032230
         C           -0.000000000000     0.000000000000     0.000250603840    12.000000000000
         H            0.888266630391     0.000000000002     0.628349961661     1.007825032230
         H           -0.888266630391    -0.000000000002     0.628349961661     1.007825032230
         H           -0.000000000007    -0.888266630384    -0.629841910154     1.007825032230

  Running in c2 symmetry.

  Rotational constants: A =      5.29986  B =      5.29146  C =      5.29146 [cm^-1]
  Rotational constants: A = 158885.90516  B = 158633.85854  C = 158633.85854 [MHz]
  Nuclear repulsion =   13.454204798086776

  Charge       = 0
  Multiplicity = 1
  Electrons    = 10
  Nalpha       = 5
  Nbeta        = 5

  ==> Algorithm <==

  SCF Algorithm Type is DF.
  DIIS enabled.
  MOM disabled.
  Fractional occupation disabled.
  Guess Type is SAD.
  Energy threshold   = 1.00e-08
  Density threshold  = 1.00e-08
  Integral threshold = 0.00e+00

  ==> Primary Basis <==

  Basis Set: CC-PV(D+D)Z
    Blend: CC-PV(D+D)Z
    Number of shells: 18
    Number of basis function: 34
    Number of Cartesian functions: 35
    Spherical Harmonics?: true
    Max angular momentum: 2

  ==> DFT Potential <==

   => Composite Functional: WB97M-V <= 

    wB97M-V Hyb-GGA Exchange-Correlation Functional

    N. Mardirossian and M. Head-Gordon, J. Chem. Phys. 144, 214110 (2016)

    Deriv               =              1
    GGA                 =           TRUE
    Meta                =           TRUE

    Exchange Hybrid     =           TRUE
    MP2 Hybrid          =          FALSE

   => Exchange-Correlation Functionals <=

    1.0000   wB97M-V exchange-correlation functional

   => Exact (HF) Exchange <=

    0.8500            HF,LR [omega = 0.3000]
    0.1500               HF 

   => VV10 Non-Local Parameters <=

    VV10 B              =     6.0000E+00
    VV10 C              =     1.0000E-02

   => Molecular Quadrature <=

    Radial Scheme          =       TREUTLER
    Pruning Scheme         =           FLAT
    Nuclear Scheme         =       TREUTLER

    BS radius alpha        =              1
    Pruning alpha          =              1
    Radial Points          =             75
    Spherical Points       =            302
    Total Points           =         111370
    Total Blocks           =            923
    Max Points             =            256
    Max Functions          =             34

   => Loading Basis Set <=

    Name: (CC-PV(D+D)Z AUX)
    Role: JKFIT
    Keyword: DF_BASIS_SCF
    atoms 1, 3-5 entry H          line    51 file /work/zw18965/.conda/envs/p4env/share/psi4/basis/cc-pvdz-jkfit.gbs 
    atoms 2      entry C          line   121 file /work/zw18965/.conda/envs/p4env/share/psi4/basis/cc-pvdz-jkfit.gbs 

  ==> Pre-Iterations <==

   -------------------------------------------------------
    Irrep   Nso     Nmo     Nalpha   Nbeta   Ndocc  Nsocc
   -------------------------------------------------------
     A         18      18       0       0       0       0
     B         16      16       0       0       0       0
   -------------------------------------------------------
    Total      34      34       5       5       5       0
   -------------------------------------------------------

  ==> Integral Setup <==

  ==> DiskDFJK: Density-Fitted J/K Matrices <==

    J tasked:                  Yes
    K tasked:                  Yes
    wK tasked:                 Yes
    Omega:               3.000E-01
    OpenMP threads:             24
    Integrals threads:          24
    Memory [MiB]:           102722
    Algorithm:                Core
    Integral Cache:           NONE
    Schwarz Cutoff:          1E-12
    Fitting Condition:       1E-10

   => Auxiliary Basis Set <=

  Basis Set: (CC-PV(D+D)Z AUX)
    Blend: CC-PVDZ-JKFIT
    Number of shells: 60
    Number of basis function: 162
    Number of Cartesian functions: 181
    Spherical Harmonics?: true
    Max angular momentum: 3

  Cached 100.0% of DFT collocation blocks in 0.268 [GiB].

  Minimum eigenvalue in the overlap matrix is 2.3058943142E-02.
  Using Symmetric Orthogonalization.

  SCF Guess: Superposition of Atomic Densities via on-the-fly atomic UHF.

  ==> Iterations <==

                           Total Energy        Delta E     RMS |[F,P]|

   @DF-RKS iter SAD:   -39.99712252647124   -3.99971e+01   0.00000e+00 
   @DF-RKS iter   1:   -40.37407027587561   -3.76948e-01   1.75288e-02 DIIS
   @DF-RKS iter   2:   -40.42685698467003   -5.27867e-02   1.19751e-02 DIIS
   @DF-RKS iter   3:   -40.46989631865906   -4.30393e-02   4.60125e-04 DIIS
   @DF-RKS iter   4:   -40.47005880943260   -1.62491e-04   8.60073e-05 DIIS
   @DF-RKS iter   5:   -40.47006255632303   -3.74689e-06   6.41947e-06 DIIS
   @DF-RKS iter   6:   -40.47006258426651   -2.79435e-08   5.58121e-07 DIIS
   @DF-RKS iter   7:   -40.47006258440969   -1.43181e-10   4.81199e-08 DIIS
   @DF-RKS iter   8:   -40.47006258441120   -1.50635e-12   3.28842e-09 DIIS
  Energy and wave function converged.


  ==> Post-Iterations <==

    Orbital Energies [Eh]
    ---------------------

    Doubly Occupied:                                                      

       1A    -10.337519     2A     -0.808535     3A     -0.487950  
       1B     -0.487804     2B     -0.487254  

    Virtual:                                                              

       4A      0.150957     3B      0.223284     5A      0.223423  
       4B      0.223481     5B      0.504019     6B      0.504156  
       6A      0.504571     7B      0.745819     7A      0.746266  
       8B      0.746430     8A      0.774882     9A      0.994030  
      10A      0.994521    11A      1.124106    12A      1.516003  
       9B      1.516330    10B      1.516475    11B      1.702708  
      13A      1.702866    12B      1.702948    14A      2.015593  
      13B      2.016068    14B      2.017576    15A      2.335406  
      16A      2.336579    17A      2.497504    15B      2.529295  
      18A      2.529823    16B      2.531228  

    Final Occupation by Irrep:
              A     B 
    DOCC [     3,    2 ]

  @DF-RKS Final Energy:   -40.47006258441120

   => Energetics <=

    Nuclear Repulsion Energy =             13.4542047980867761
    One-Electron Energy =                 -79.8122120830875872
    Two-Electron Energy =                  30.4462695916771011
    DFT Exchange-Correlation Energy =      -4.5997342455796275
    Empirical Dispersion Energy =           0.0000000000000000
    VV10 Nonlocal Energy =                  0.0414093544921375
    Total Energy =                        -40.4700625844111954

Computation Completed


Properties will be evaluated at   0.000000,   0.000000,   0.000000 [a0]

Properties computed using the SCF density matrix

  Nuclear Dipole Moment: [e a0]
     X:     0.0000      Y:     0.0000      Z:    -0.0028

  Electronic Dipole Moment: [e a0]
     X:     0.0000      Y:     0.0000      Z:     0.0028

  Dipole Moment: [e a0]
     X:     0.0000      Y:     0.0000      Z:    -0.0000     Total:     0.0000

  Dipole Moment: [D]
     X:     0.0000      Y:     0.0000      Z:    -0.0001     Total:     0.0001


*** tstop() called on bp1-compute00147.data.bp.acrc.priv at Wed Apr 28 13:30:04 2021
Module time:
	user time   =      78.16 seconds =       1.30 minutes
	system time =       1.87 seconds =       0.03 minutes
	total time  =          3 seconds =       0.05 minutes
Total time:
	user time   =     470.61 seconds =       7.84 minutes
	system time =      12.49 seconds =       0.21 minutes
	total time  =         20 seconds =       0.33 minutes

  //>>>>>>>>>>>>>>>>>>>>>>>>>>>>>>>>>>>//
  //    Loading displacement 7 of 11   //
  //<<<<<<<<<<<<<<<<<<<<<<<<<<<<<<<<<<<//

*** tstart() called on bp1-compute00147.data.bp.acrc.priv
*** at Wed Apr 28 13:30:04 2021

   => Loading Basis Set <=

    Name: CC-PV(D+D)Z
    Role: ORBITAL
    Keyword: BASIS
    atoms 1, 3-5 entry H          line    31 file /work/zw18965/.conda/envs/p4env/share/psi4/basis/cc-pv_dpd_z.gbs 
    atoms 2      entry C          line   147 file /work/zw18965/.conda/envs/p4env/share/psi4/basis/cc-pv_dpd_z.gbs 


         ---------------------------------------------------------
                                   SCF
               by Justin Turney, Rob Parrish, Andy Simmonett
                          and Daniel G. A. Smith
                              RKS Reference
                       24 Threads, 137329 MiB Core
         ---------------------------------------------------------

  ==> Geometry <==

    Molecular point group: c2
    Full point group: C2v

    Geometry (in Angstrom), charge = 0, multiplicity = 1:

       Center              X                  Y                   Z               Mass       
    ------------   -----------------  -----------------  -----------------  -----------------
         H            0.000000000007     0.888266630384    -0.626356805574     1.007825032230
         C           -0.000000000000     0.000000000000    -0.000250603827    12.000000000000
         H            0.888266630391     0.000000000002     0.627848753994     1.007825032230
         H           -0.888266630391    -0.000000000002     0.627848753994     1.007825032230
         H           -0.000000000007    -0.888266630384    -0.626356805574     1.007825032230

  Running in c2 symmetry.

  Rotational constants: A =      5.30827  B =      5.30827  C =      5.29986 [cm^-1]
  Rotational constants: A = 159138.05236  B = 159138.05236  C = 158885.90516 [MHz]
  Nuclear repulsion =   13.468443769812589

  Charge       = 0
  Multiplicity = 1
  Electrons    = 10
  Nalpha       = 5
  Nbeta        = 5

  ==> Algorithm <==

  SCF Algorithm Type is DF.
  DIIS enabled.
  MOM disabled.
  Fractional occupation disabled.
  Guess Type is SAD.
  Energy threshold   = 1.00e-08
  Density threshold  = 1.00e-08
  Integral threshold = 0.00e+00

  ==> Primary Basis <==

  Basis Set: CC-PV(D+D)Z
    Blend: CC-PV(D+D)Z
    Number of shells: 18
    Number of basis function: 34
    Number of Cartesian functions: 35
    Spherical Harmonics?: true
    Max angular momentum: 2

  ==> DFT Potential <==

   => Composite Functional: WB97M-V <= 

    wB97M-V Hyb-GGA Exchange-Correlation Functional

    N. Mardirossian and M. Head-Gordon, J. Chem. Phys. 144, 214110 (2016)

    Deriv               =              1
    GGA                 =           TRUE
    Meta                =           TRUE

    Exchange Hybrid     =           TRUE
    MP2 Hybrid          =          FALSE

   => Exchange-Correlation Functionals <=

    1.0000   wB97M-V exchange-correlation functional

   => Exact (HF) Exchange <=

    0.8500            HF,LR [omega = 0.3000]
    0.1500               HF 

   => VV10 Non-Local Parameters <=

    VV10 B              =     6.0000E+00
    VV10 C              =     1.0000E-02

   => Molecular Quadrature <=

    Radial Scheme          =       TREUTLER
    Pruning Scheme         =           FLAT
    Nuclear Scheme         =       TREUTLER

    BS radius alpha        =              1
    Pruning alpha          =              1
    Radial Points          =             75
    Spherical Points       =            302
    Total Points           =         111366
    Total Blocks           =            926
    Max Points             =            256
    Max Functions          =             34

   => Loading Basis Set <=

    Name: (CC-PV(D+D)Z AUX)
    Role: JKFIT
    Keyword: DF_BASIS_SCF
    atoms 1, 3-5 entry H          line    51 file /work/zw18965/.conda/envs/p4env/share/psi4/basis/cc-pvdz-jkfit.gbs 
    atoms 2      entry C          line   121 file /work/zw18965/.conda/envs/p4env/share/psi4/basis/cc-pvdz-jkfit.gbs 

  ==> Pre-Iterations <==

   -------------------------------------------------------
    Irrep   Nso     Nmo     Nalpha   Nbeta   Ndocc  Nsocc
   -------------------------------------------------------
     A         18      18       0       0       0       0
     B         16      16       0       0       0       0
   -------------------------------------------------------
    Total      34      34       5       5       5       0
   -------------------------------------------------------

  ==> Integral Setup <==

  ==> DiskDFJK: Density-Fitted J/K Matrices <==

    J tasked:                  Yes
    K tasked:                  Yes
    wK tasked:                 Yes
    Omega:               3.000E-01
    OpenMP threads:             24
    Integrals threads:          24
    Memory [MiB]:           102722
    Algorithm:                Core
    Integral Cache:           NONE
    Schwarz Cutoff:          1E-12
    Fitting Condition:       1E-10

   => Auxiliary Basis Set <=

  Basis Set: (CC-PV(D+D)Z AUX)
    Blend: CC-PVDZ-JKFIT
    Number of shells: 60
    Number of basis function: 162
    Number of Cartesian functions: 181
    Spherical Harmonics?: true
    Max angular momentum: 3

  Cached 100.0% of DFT collocation blocks in 0.268 [GiB].

  Minimum eigenvalue in the overlap matrix is 2.3012904972E-02.
  Using Symmetric Orthogonalization.

  SCF Guess: Superposition of Atomic Densities via on-the-fly atomic UHF.

  ==> Iterations <==

                           Total Energy        Delta E     RMS |[F,P]|

   @DF-RKS iter SAD:   -39.99880892554497   -3.99988e+01   0.00000e+00 
   @DF-RKS iter   1:   -40.37379744782957   -3.74989e-01   1.75565e-02 DIIS
   @DF-RKS iter   2:   -40.42680417921943   -5.30067e-02   1.19784e-02 DIIS
   @DF-RKS iter   3:   -40.46983900191312   -4.30348e-02   4.59843e-04 DIIS
   @DF-RKS iter   4:   -40.47000112142811   -1.62120e-04   8.59795e-05 DIIS
   @DF-RKS iter   5:   -40.47000486560276   -3.74417e-06   6.41838e-06 DIIS
   @DF-RKS iter   6:   -40.47000489355464   -2.79519e-08   5.59076e-07 DIIS
   @DF-RKS iter   7:   -40.47000489369842   -1.43771e-10   4.81065e-08 DIIS
   @DF-RKS iter   8:   -40.47000489369997   -1.55609e-12   3.27261e-09 DIIS
  Energy and wave function converged.


  ==> Post-Iterations <==

    Orbital Energies [Eh]
    ---------------------

    Doubly Occupied:                                                      

       1A    -10.337055     2A     -0.808901     1B     -0.488298  
       2B     -0.487748     3A     -0.487600  

    Virtual:                                                              

       4A      0.151127     3B      0.223530     5A      0.223588  
       4B      0.223725     6A      0.503905     5B      0.504318  
       6B      0.504459     7B      0.746467     7A      0.746624  
       8B      0.747082     8A      0.776228     9A      0.994197  
      10A      0.994687    11A      1.124260     9B      1.516951  
      10B      1.517106    12A      1.517438    11B      1.703846  
      13A      1.703924    12B      1.704093    13B      2.016313  
      14B      2.017832    14A      2.018298    15A      2.337268  
      16A      2.338456    17A      2.500771    15B      2.531316  
      18A      2.532880    16B      2.533260  

    Final Occupation by Irrep:
              A     B 
    DOCC [     3,    2 ]

  @DF-RKS Final Energy:   -40.47000489369997

   => Energetics <=

    Nuclear Repulsion Energy =             13.4684437698125894
    One-Electron Energy =                 -79.8387095456115787
    Two-Electron Energy =                  30.4598916284677799
    DFT Exchange-Correlation Energy =      -4.6010419985728923
    Empirical Dispersion Energy =           0.0000000000000000
    VV10 Nonlocal Energy =                  0.0414112522041299
    Total Energy =                        -40.4700048936999650

Computation Completed


Properties will be evaluated at   0.000000,   0.000000,   0.000000 [a0]

Properties computed using the SCF density matrix

  Nuclear Dipole Moment: [e a0]
     X:     0.0000      Y:     0.0000      Z:     0.0028

  Electronic Dipole Moment: [e a0]
     X:     0.0000      Y:     0.0000      Z:    -0.0028

  Dipole Moment: [e a0]
     X:     0.0000      Y:     0.0000      Z:     0.0000     Total:     0.0000

  Dipole Moment: [D]
     X:     0.0000      Y:     0.0000      Z:     0.0001     Total:     0.0001


*** tstop() called on bp1-compute00147.data.bp.acrc.priv at Wed Apr 28 13:30:08 2021
Module time:
	user time   =      77.16 seconds =       1.29 minutes
	system time =       1.73 seconds =       0.03 minutes
	total time  =          4 seconds =       0.07 minutes
Total time:
	user time   =     547.90 seconds =       9.13 minutes
	system time =      14.23 seconds =       0.24 minutes
	total time  =         24 seconds =       0.40 minutes

  //>>>>>>>>>>>>>>>>>>>>>>>>>>>>>>>>>>>//
  //    Loading displacement 8 of 11   //
  //<<<<<<<<<<<<<<<<<<<<<<<<<<<<<<<<<<<//

*** tstart() called on bp1-compute00147.data.bp.acrc.priv
*** at Wed Apr 28 13:30:08 2021

   => Loading Basis Set <=

    Name: CC-PV(D+D)Z
    Role: ORBITAL
    Keyword: BASIS
    atoms 1, 3-5 entry H          line    31 file /work/zw18965/.conda/envs/p4env/share/psi4/basis/cc-pv_dpd_z.gbs 
    atoms 2      entry C          line   147 file /work/zw18965/.conda/envs/p4env/share/psi4/basis/cc-pv_dpd_z.gbs 


         ---------------------------------------------------------
                                   SCF
               by Justin Turney, Rob Parrish, Andy Simmonett
                          and Daniel G. A. Smith
                              RKS Reference
                       24 Threads, 137329 MiB Core
         ---------------------------------------------------------

  ==> Geometry <==

    Molecular point group: c2
    Full point group: C2v

    Geometry (in Angstrom), charge = 0, multiplicity = 1:

       Center              X                  Y                   Z               Mass       
    ------------   -----------------  -----------------  -----------------  -----------------
         H            0.000000000007     0.888266630384    -0.628099357864     1.007825032230
         C           -0.000000000000     0.000000000000    -0.000289655281    12.000000000000
         H            0.888266630391     0.000000000002     0.629823795766     1.007825032230
         H           -0.888266630391    -0.000000000002     0.629823795766     1.007825032230
         H           -0.000000000007    -0.888266630384    -0.628099357864     1.007825032230

  Running in c2 symmetry.

  Rotational constants: A =      5.29986  B =      5.29259  C =      5.29259 [cm^-1]
  Rotational constants: A = 158885.90516  B = 158667.74591  C = 158667.74591 [MHz]
  Nuclear repulsion =   13.455164558213795

  Charge       = 0
  Multiplicity = 1
  Electrons    = 10
  Nalpha       = 5
  Nbeta        = 5

  ==> Algorithm <==

  SCF Algorithm Type is DF.
  DIIS enabled.
  MOM disabled.
  Fractional occupation disabled.
  Guess Type is SAD.
  Energy threshold   = 1.00e-08
  Density threshold  = 1.00e-08
  Integral threshold = 0.00e+00

  ==> Primary Basis <==

  Basis Set: CC-PV(D+D)Z
    Blend: CC-PV(D+D)Z
    Number of shells: 18
    Number of basis function: 34
    Number of Cartesian functions: 35
    Spherical Harmonics?: true
    Max angular momentum: 2

  ==> DFT Potential <==

   => Composite Functional: WB97M-V <= 

    wB97M-V Hyb-GGA Exchange-Correlation Functional

    N. Mardirossian and M. Head-Gordon, J. Chem. Phys. 144, 214110 (2016)

    Deriv               =              1
    GGA                 =           TRUE
    Meta                =           TRUE

    Exchange Hybrid     =           TRUE
    MP2 Hybrid          =          FALSE

   => Exchange-Correlation Functionals <=

    1.0000   wB97M-V exchange-correlation functional

   => Exact (HF) Exchange <=

    0.8500            HF,LR [omega = 0.3000]
    0.1500               HF 

   => VV10 Non-Local Parameters <=

    VV10 B              =     6.0000E+00
    VV10 C              =     1.0000E-02

   => Molecular Quadrature <=

    Radial Scheme          =       TREUTLER
    Pruning Scheme         =           FLAT
    Nuclear Scheme         =       TREUTLER

    BS radius alpha        =              1
    Pruning alpha          =              1
    Radial Points          =             75
    Spherical Points       =            302
    Total Points           =         111368
    Total Blocks           =            923
    Max Points             =            256
    Max Functions          =             34

   => Loading Basis Set <=

    Name: (CC-PV(D+D)Z AUX)
    Role: JKFIT
    Keyword: DF_BASIS_SCF
    atoms 1, 3-5 entry H          line    51 file /work/zw18965/.conda/envs/p4env/share/psi4/basis/cc-pvdz-jkfit.gbs 
    atoms 2      entry C          line   121 file /work/zw18965/.conda/envs/p4env/share/psi4/basis/cc-pvdz-jkfit.gbs 

  ==> Pre-Iterations <==

   -------------------------------------------------------
    Irrep   Nso     Nmo     Nalpha   Nbeta   Ndocc  Nsocc
   -------------------------------------------------------
     A         18      18       0       0       0       0
     B         16      16       0       0       0       0
   -------------------------------------------------------
    Total      34      34       5       5       5       0
   -------------------------------------------------------

  ==> Integral Setup <==

  ==> DiskDFJK: Density-Fitted J/K Matrices <==

    J tasked:                  Yes
    K tasked:                  Yes
    wK tasked:                 Yes
    Omega:               3.000E-01
    OpenMP threads:             24
    Integrals threads:          24
    Memory [MiB]:           102722
    Algorithm:                Core
    Integral Cache:           NONE
    Schwarz Cutoff:          1E-12
    Fitting Condition:       1E-10

   => Auxiliary Basis Set <=

  Basis Set: (CC-PV(D+D)Z AUX)
    Blend: CC-PVDZ-JKFIT
    Number of shells: 60
    Number of basis function: 162
    Number of Cartesian functions: 181
    Spherical Harmonics?: true
    Max angular momentum: 3

  Cached 100.0% of DFT collocation blocks in 0.268 [GiB].

  Minimum eigenvalue in the overlap matrix is 2.3055827550E-02.
  Using Symmetric Orthogonalization.

  SCF Guess: Superposition of Atomic Densities via on-the-fly atomic UHF.

  ==> Iterations <==

                           Total Energy        Delta E     RMS |[F,P]|

   @DF-RKS iter SAD:   -39.99723606325077   -3.99972e+01   0.00000e+00 
   @DF-RKS iter   1:   -40.37405180221565   -3.76816e-01   1.75307e-02 DIIS
   @DF-RKS iter   2:   -40.42685335360437   -5.28016e-02   1.19753e-02 DIIS
   @DF-RKS iter   3:   -40.46989244138489   -4.30391e-02   4.60106e-04 DIIS
   @DF-RKS iter   4:   -40.47005490704875   -1.62466e-04   8.60054e-05 DIIS
   @DF-RKS iter   5:   -40.47005865375056   -3.74670e-06   6.41942e-06 DIIS
   @DF-RKS iter   6:   -40.47005868169438   -2.79438e-08   5.58230e-07 DIIS
   @DF-RKS iter   7:   -40.47005868183762   -1.43245e-10   4.82374e-08 DIIS
   @DF-RKS iter   8:   -40.47005868183913   -1.50635e-12   3.54051e-09 DIIS
  Energy and wave function converged.


  ==> Post-Iterations <==

    Orbital Energies [Eh]
    ---------------------

    Doubly Occupied:                                                      

       1A    -10.337487     2A     -0.808560     3A     -0.487926  
       1B     -0.487880     2B     -0.487245  

    Virtual:                                                              

       4A      0.150968     3B      0.223285     5A      0.223434  
       4B      0.223512     5B      0.504028     6B      0.504187  
       6A      0.504526     7B      0.745815     7A      0.746289  
       8B      0.746522     8A      0.774974     9A      0.994074  
      10A      0.994499    11A      1.124116    12A      1.516099  
       9B      1.516361    10B      1.516529    11B      1.702766  
      13A      1.702937    12B      1.703043    14A      2.015775  
      13B      2.015967    14B      2.017712    15A      2.335612  
      16A      2.336625    17A      2.497700    15B      2.529281  
      18A      2.530054    16B      2.531516  

    Final Occupation by Irrep:
              A     B 
    DOCC [     3,    2 ]

  @DF-RKS Final Energy:   -40.47005868183913

   => Energetics <=

    Nuclear Repulsion Energy =             13.4551645582137951
    One-Electron Energy =                 -79.8139978484731216
    Two-Electron Energy =                  30.4471875303629318
    DFT Exchange-Correlation Energy =      -4.5998224044394771
    Empirical Dispersion Energy =           0.0000000000000000
    VV10 Nonlocal Energy =                  0.0414094824967474
    Total Energy =                        -40.4700586818391272

Computation Completed


Properties will be evaluated at   0.000000,   0.000000,   0.000000 [a0]

Properties computed using the SCF density matrix

  Nuclear Dipole Moment: [e a0]
     X:     0.0000      Y:     0.0000      Z:     0.0032

  Electronic Dipole Moment: [e a0]
     X:     0.0000      Y:     0.0000      Z:    -0.0032

  Dipole Moment: [e a0]
     X:     0.0000      Y:     0.0000      Z:     0.0000     Total:     0.0000

  Dipole Moment: [D]
     X:     0.0000      Y:     0.0000      Z:     0.0001     Total:     0.0001


*** tstop() called on bp1-compute00147.data.bp.acrc.priv at Wed Apr 28 13:30:11 2021
Module time:
	user time   =      77.61 seconds =       1.29 minutes
	system time =       1.89 seconds =       0.03 minutes
	total time  =          3 seconds =       0.05 minutes
Total time:
	user time   =     625.63 seconds =      10.43 minutes
	system time =      16.14 seconds =       0.27 minutes
	total time  =         27 seconds =       0.45 minutes

  //>>>>>>>>>>>>>>>>>>>>>>>>>>>>>>>>>>>//
  //    Loading displacement 9 of 11   //
  //<<<<<<<<<<<<<<<<<<<<<<<<<<<<<<<<<<<//

*** tstart() called on bp1-compute00147.data.bp.acrc.priv
*** at Wed Apr 28 13:30:11 2021

   => Loading Basis Set <=

    Name: CC-PV(D+D)Z
    Role: ORBITAL
    Keyword: BASIS
    atoms 1, 3-5 entry H          line    31 file /work/zw18965/.conda/envs/p4env/share/psi4/basis/cc-pv_dpd_z.gbs 
    atoms 2      entry C          line   147 file /work/zw18965/.conda/envs/p4env/share/psi4/basis/cc-pv_dpd_z.gbs 


         ---------------------------------------------------------
                                   SCF
               by Justin Turney, Rob Parrish, Andy Simmonett
                          and Daniel G. A. Smith
                              RKS Reference
                       24 Threads, 137329 MiB Core
         ---------------------------------------------------------

  ==> Geometry <==

    Molecular point group: c2
    Full point group: C2v

    Geometry (in Angstrom), charge = 0, multiplicity = 1:

       Center              X                  Y                   Z               Mass       
    ------------   -----------------  -----------------  -----------------  -----------------
         H            0.000000000007     0.888266630384    -0.628099357864     1.007825032230
         C           -0.000000000000     0.000000000000     0.000289655293    12.000000000000
         H            0.888266630391     0.000000000002     0.626374919889     1.007825032230
         H           -0.888266630391    -0.000000000002     0.626374919889     1.007825032230
         H           -0.000000000007    -0.888266630384    -0.628099357864     1.007825032230

  Running in c2 symmetry.

  Rotational constants: A =      5.30714  B =      5.30714  C =      5.29986 [cm^-1]
  Rotational constants: A = 159103.96382  B = 159103.96382  C = 158885.90516 [MHz]
  Nuclear repulsion =   13.467483821115112

  Charge       = 0
  Multiplicity = 1
  Electrons    = 10
  Nalpha       = 5
  Nbeta        = 5

  ==> Algorithm <==

  SCF Algorithm Type is DF.
  DIIS enabled.
  MOM disabled.
  Fractional occupation disabled.
  Guess Type is SAD.
  Energy threshold   = 1.00e-08
  Density threshold  = 1.00e-08
  Integral threshold = 0.00e+00

  ==> Primary Basis <==

  Basis Set: CC-PV(D+D)Z
    Blend: CC-PV(D+D)Z
    Number of shells: 18
    Number of basis function: 34
    Number of Cartesian functions: 35
    Spherical Harmonics?: true
    Max angular momentum: 2

  ==> DFT Potential <==

   => Composite Functional: WB97M-V <= 

    wB97M-V Hyb-GGA Exchange-Correlation Functional

    N. Mardirossian and M. Head-Gordon, J. Chem. Phys. 144, 214110 (2016)

    Deriv               =              1
    GGA                 =           TRUE
    Meta                =           TRUE

    Exchange Hybrid     =           TRUE
    MP2 Hybrid          =          FALSE

   => Exchange-Correlation Functionals <=

    1.0000   wB97M-V exchange-correlation functional

   => Exact (HF) Exchange <=

    0.8500            HF,LR [omega = 0.3000]
    0.1500               HF 

   => VV10 Non-Local Parameters <=

    VV10 B              =     6.0000E+00
    VV10 C              =     1.0000E-02

   => Molecular Quadrature <=

    Radial Scheme          =       TREUTLER
    Pruning Scheme         =           FLAT
    Nuclear Scheme         =       TREUTLER

    BS radius alpha        =              1
    Pruning alpha          =              1
    Radial Points          =             75
    Spherical Points       =            302
    Total Points           =         111366
    Total Blocks           =            926
    Max Points             =            255
    Max Functions          =             34

   => Loading Basis Set <=

    Name: (CC-PV(D+D)Z AUX)
    Role: JKFIT
    Keyword: DF_BASIS_SCF
    atoms 1, 3-5 entry H          line    51 file /work/zw18965/.conda/envs/p4env/share/psi4/basis/cc-pvdz-jkfit.gbs 
    atoms 2      entry C          line   121 file /work/zw18965/.conda/envs/p4env/share/psi4/basis/cc-pvdz-jkfit.gbs 

  ==> Pre-Iterations <==

   -------------------------------------------------------
    Irrep   Nso     Nmo     Nalpha   Nbeta   Ndocc  Nsocc
   -------------------------------------------------------
     A         18      18       0       0       0       0
     B         16      16       0       0       0       0
   -------------------------------------------------------
    Total      34      34       5       5       5       0
   -------------------------------------------------------

  ==> Integral Setup <==

  ==> DiskDFJK: Density-Fitted J/K Matrices <==

    J tasked:                  Yes
    K tasked:                  Yes
    wK tasked:                 Yes
    Omega:               3.000E-01
    OpenMP threads:             24
    Integrals threads:          24
    Memory [MiB]:           102722
    Algorithm:                Core
    Integral Cache:           NONE
    Schwarz Cutoff:          1E-12
    Fitting Condition:       1E-10

   => Auxiliary Basis Set <=

  Basis Set: (CC-PV(D+D)Z AUX)
    Blend: CC-PVDZ-JKFIT
    Number of shells: 60
    Number of basis function: 162
    Number of Cartesian functions: 181
    Spherical Harmonics?: true
    Max angular momentum: 3

  Cached 100.0% of DFT collocation blocks in 0.268 [GiB].

  Minimum eigenvalue in the overlap matrix is 2.3015996242E-02.
  Using Symmetric Orthogonalization.

  SCF Guess: Superposition of Atomic Densities via on-the-fly atomic UHF.

  ==> Iterations <==

                           Total Energy        Delta E     RMS |[F,P]|

   @DF-RKS iter SAD:   -39.99869510079193   -3.99987e+01   0.00000e+00 
   @DF-RKS iter   1:   -40.37381575702985   -3.75121e-01   1.75546e-02 DIIS
   @DF-RKS iter   2:   -40.42680766739952   -5.29919e-02   1.19782e-02 DIIS
   @DF-RKS iter   3:   -40.46984285182104   -4.30352e-02   4.59862e-04 DIIS
   @DF-RKS iter   4:   -40.47000499627902   -1.62144e-04   8.59814e-05 DIIS
   @DF-RKS iter   5:   -40.47000874063102   -3.74435e-06   6.41847e-06 DIIS
   @DF-RKS iter   6:   -40.47000876858214   -2.79511e-08   5.59055e-07 DIIS
   @DF-RKS iter   7:   -40.47000876872583   -1.43693e-10   4.82236e-08 DIIS
[...]
    OpenMP threads:             24
    Integrals threads:          24
    Memory [MiB]:           102723
    Algorithm:                Core
    Integral Cache:           NONE
    Schwarz Cutoff:          1E-12
    Fitting Condition:       1E-10

   => Auxiliary Basis Set <=

  Basis Set: (CC-PV(D+D)Z AUX)
    Blend: CC-PVDZ-JKFIT
    Number of shells: 60
    Number of basis function: 162
    Number of Cartesian functions: 181
    Spherical Harmonics?: true
    Max angular momentum: 3

  Cached 100.0% of DFT collocation blocks in 0.267 [GiB].

  Minimum eigenvalue in the overlap matrix is 2.4324709462E-02.
  Using Symmetric Orthogonalization.

  SCF Guess: Orbitals guess was supplied from a previous computation.

  ==> Iterations <==

                           Total Energy        Delta E     RMS |[F,P]|

   @DF-RKS iter   0:   -40.45380593088267   -4.04538e+01   3.87178e-05 
   @DF-RKS iter   1:   -40.45399261946202   -1.86689e-04   7.97554e-06 DIIS
   @DF-RKS iter   2:   -40.45399264381280   -2.43508e-08   1.88400e-06 DIIS
   @DF-RKS iter   3:   -40.45399264518911   -1.37631e-09   9.75204e-07 DIIS
   @DF-RKS iter   4:   -40.45399264551353   -3.24420e-10   1.98496e-07 DIIS
   @DF-RKS iter   5:   -40.45399264553144   -1.79057e-11   2.64090e-08 DIIS
   @DF-RKS iter   6:   -40.45399264553201   -5.75540e-13   4.90710e-09 DIIS
   @DF-RKS iter   7:   -40.45399264553202   -7.10543e-15   4.29502e-10 DIIS
   @DF-RKS iter   8:   -40.45399264553205   -3.55271e-14   5.26464e-11 DIIS
  Energy and wave function converged.


  ==> Post-Iterations <==

    Orbital Energies [Eh]
    ---------------------

    Doubly Occupied:                                                      

       1A    -10.350942     2A     -0.800566     1B     -0.511966  
       3A     -0.498241     2B     -0.430760  

    Virtual:                                                              

       4A      0.144327     3B      0.196131     4B      0.218496  
       5A      0.219757     5B      0.470013     6A      0.537495  
       6B      0.557749     7B      0.709779     7A      0.713835  
       8A      0.738550     8B      0.739813     9A      0.942857  
      10A      0.986373    11A      1.187235    12A      1.411891  
       9B      1.423114    10B      1.555409    11B      1.674738  
      12B      1.725761    13A      1.752042    13B      1.895861  
      14A      1.945983    14B      2.030399    15A      2.133765  
      16A      2.361993    15B      2.439409    17A      2.451428  
      18A      2.466153    16B      2.601049  

    Final Occupation by Irrep:
              A     B 
    DOCC [     3,    2 ]

  @DF-RKS Final Energy:   -40.45399264553205

   => Energetics <=

    Nuclear Repulsion Energy =             13.0767385994912786
    One-Electron Energy =                 -79.0806965098690000
    Two-Electron Energy =                  30.0704874078086597
    DFT Exchange-Correlation Energy =      -4.5618588455381310
    Empirical Dispersion Energy =           0.0000000000000000
    VV10 Nonlocal Energy =                  0.0413367025751378
    Total Energy =                        -40.4539926455320611

Computation Completed


Properties will be evaluated at   0.000000,   0.000000,   0.000000 [a0]

Properties computed using the SCF density matrix

  Nuclear Dipole Moment: [e a0]
     X:     0.0000      Y:     0.0000      Z:     0.0230

  Electronic Dipole Moment: [e a0]
     X:     0.0000      Y:     0.0000      Z:    -0.0209

  Dipole Moment: [e a0]
     X:     0.0000      Y:     0.0000      Z:     0.0020     Total:     0.0020

  Dipole Moment: [D]
     X:     0.0000      Y:     0.0000      Z:     0.0052     Total:     0.0052


*** tstop() called on bp1-compute00147.data.bp.acrc.priv at Wed Apr 28 13:36:07 2021
Module time:
	user time   =      66.79 seconds =       1.11 minutes
	system time =       1.27 seconds =       0.02 minutes
	total time  =          3 seconds =       0.05 minutes
Total time:
	user time   =    8972.27 seconds =     149.54 minutes
	system time =     190.80 seconds =       3.18 minutes
	total time  =        383 seconds =       6.38 minutes

  //>>>>>>>>>>>>>>>>>>>>>>>>>>>>>>>>>>>//
  //   Loading displacement 31 of 47   //
  //<<<<<<<<<<<<<<<<<<<<<<<<<<<<<<<<<<<//

*** tstart() called on bp1-compute00147.data.bp.acrc.priv
*** at Wed Apr 28 13:36:07 2021

   => Loading Basis Set <=

    Name: CC-PV(D+D)Z
    Role: ORBITAL
    Keyword: BASIS
    atoms 1, 3-5 entry H          line    31 file /work/zw18965/.conda/envs/p4env/share/psi4/basis/cc-pv_dpd_z.gbs 
    atoms 2      entry C          line   147 file /work/zw18965/.conda/envs/p4env/share/psi4/basis/cc-pv_dpd_z.gbs 


         ---------------------------------------------------------
                                   SCF
               by Justin Turney, Rob Parrish, Andy Simmonett
                          and Daniel G. A. Smith
                              RKS Reference
                       24 Threads, 137329 MiB Core
         ---------------------------------------------------------

  ==> Geometry <==

    Molecular point group: c2
    Full point group: C2

    Geometry (in Angstrom), charge = 0, multiplicity = 1:

       Center              X                  Y                   Z               Mass       
    ------------   -----------------  -----------------  -----------------  -----------------
         H            0.148260207497     0.874879263410    -0.682657562637     1.007825032230
         C           -0.000000000000     0.000000000000    -0.002637006236    12.000000000000
         H            0.864816570309     0.147784447146     0.698356753378     1.007825032230
         H           -0.864816570309    -0.147784447146     0.698356753378     1.007825032230
         H           -0.148260207497    -0.874879263410    -0.682657562637     1.007825032230

  Running in c2 symmetry.

  Rotational constants: A =      5.67134  B =      5.37097  C =      4.20270 [cm^-1]
  Rotational constants: A = 170022.39101  B = 161017.70502  C = 125993.81924 [MHz]
  Nuclear repulsion =   13.081282672132641

  Charge       = 0
  Multiplicity = 1
  Electrons    = 10
  Nalpha       = 5
  Nbeta        = 5

  ==> Algorithm <==

  SCF Algorithm Type is DF.
  DIIS enabled.
  MOM disabled.
  Fractional occupation disabled.
  Guess Type is READ.
  Energy threshold   = 1.00e-10
  Density threshold  = 1.00e-10
  Integral threshold = 0.00e+00

  ==> Primary Basis <==

  Basis Set: CC-PV(D+D)Z
    Blend: CC-PV(D+D)Z
    Number of shells: 18
    Number of basis function: 34
    Number of Cartesian functions: 35
    Spherical Harmonics?: true
    Max angular momentum: 2

  ==> DFT Potential <==

   => Composite Functional: WB97M-V <= 

    wB97M-V Hyb-GGA Exchange-Correlation Functional

    N. Mardirossian and M. Head-Gordon, J. Chem. Phys. 144, 214110 (2016)

    Deriv               =              1
    GGA                 =           TRUE
    Meta                =           TRUE

    Exchange Hybrid     =           TRUE
    MP2 Hybrid          =          FALSE

   => Exchange-Correlation Functionals <=

    1.0000   wB97M-V exchange-correlation functional

   => Exact (HF) Exchange <=

    0.8500            HF,LR [omega = 0.3000]
    0.1500               HF 

   => VV10 Non-Local Parameters <=

    VV10 B              =     6.0000E+00
    VV10 C              =     1.0000E-02

   => Molecular Quadrature <=

    Radial Scheme          =       TREUTLER
    Pruning Scheme         =           FLAT
    Nuclear Scheme         =       TREUTLER

    BS radius alpha        =              1
    Pruning alpha          =              1
    Radial Points          =             75
    Spherical Points       =            302
    Total Points           =         111404
    Total Blocks           =            915
    Max Points             =            253
    Max Functions          =             34

   => Loading Basis Set <=

    Name: (CC-PV(D+D)Z AUX)
    Role: JKFIT
    Keyword: DF_BASIS_SCF
    atoms 1, 3-5 entry H          line    51 file /work/zw18965/.conda/envs/p4env/share/psi4/basis/cc-pvdz-jkfit.gbs 
    atoms 2      entry C          line   121 file /work/zw18965/.conda/envs/p4env/share/psi4/basis/cc-pvdz-jkfit.gbs 

   => Loading Basis Set <=

    Name: CC-PV(D+D)Z
    Role: ORBITAL
    Keyword: BASIS
    atoms 1, 3-5 entry H          line    31 file /work/zw18965/.conda/envs/p4env/share/psi4/basis/cc-pv_dpd_z.gbs 
    atoms 2      entry C          line   147 file /work/zw18965/.conda/envs/p4env/share/psi4/basis/cc-pv_dpd_z.gbs 

  Reading orbitals from file 180, no projection.

  ==> Pre-Iterations <==

   -------------------------------------------------------
    Irrep   Nso     Nmo     Nalpha   Nbeta   Ndocc  Nsocc
   -------------------------------------------------------
     A         18      18       0       0       0       0
     B         16      16       0       0       0       0
   -------------------------------------------------------
    Total      34      34       5       5       5       0
   -------------------------------------------------------

  ==> Integral Setup <==

  ==> DiskDFJK: Density-Fitted J/K Matrices <==

    J tasked:                  Yes
    K tasked:                  Yes
    wK tasked:                 Yes
    Omega:               3.000E-01
    OpenMP threads:             24
    Integrals threads:          24
    Memory [MiB]:           102723
    Algorithm:                Core
    Integral Cache:           NONE
    Schwarz Cutoff:          1E-12
    Fitting Condition:       1E-10

   => Auxiliary Basis Set <=

  Basis Set: (CC-PV(D+D)Z AUX)
    Blend: CC-PVDZ-JKFIT
    Number of shells: 60
    Number of basis function: 162
    Number of Cartesian functions: 181
    Spherical Harmonics?: true
    Max angular momentum: 3

  Cached 100.0% of DFT collocation blocks in 0.267 [GiB].

  Minimum eigenvalue in the overlap matrix is 2.4303954754E-02.
  Using Symmetric Orthogonalization.

  SCF Guess: Orbitals guess was supplied from a previous computation.

  ==> Iterations <==

                           Total Energy        Delta E     RMS |[F,P]|

   @DF-RKS iter   0:   -40.45406929507032   -4.04541e+01   3.86606e-05 
   @DF-RKS iter   1:   -40.45388706441545    1.82231e-04   7.91390e-06 DIIS
   @DF-RKS iter   2:   -40.45388708867166   -2.42562e-08   1.73471e-06 DIIS
   @DF-RKS iter   3:   -40.45388708996096   -1.28930e-09   8.72556e-07 DIIS
   @DF-RKS iter   4:   -40.45388709022344   -2.62474e-10   2.03713e-07 DIIS
   @DF-RKS iter   5:   -40.45388709024140   -1.79625e-11   2.68914e-08 DIIS
   @DF-RKS iter   6:   -40.45388709024196   -5.54223e-13   4.94511e-09 DIIS
   @DF-RKS iter   7:   -40.45388709024198   -2.13163e-14   4.32217e-10 DIIS
   @DF-RKS iter   8:   -40.45388709024200   -2.13163e-14   5.32492e-11 DIIS
  Energy and wave function converged.


  ==> Post-Iterations <==

    Orbital Energies [Eh]
    ---------------------

    Doubly Occupied:                                                      

       1A    -10.350798     2A     -0.800702     1B     -0.511538  
       3A     -0.499138     2B     -0.430452  

    Virtual:                                                              

       4A      0.144385     3B      0.196003     4B      0.218627  
       5A      0.219781     5B      0.469897     6A      0.538698  
       6B      0.557075     7B      0.709708     7A      0.714219  
       8A      0.738833     8B      0.740017     9A      0.943134  
      10A      0.985551    11A      1.188015    12A      1.412018  
       9B      1.422150    10B      1.556956    11B      1.673938  
      12B      1.728363    13A      1.751695    13B      1.898122  
      14A      1.943580    14B      2.031062    15A      2.133417  
      16A      2.363262    15B      2.440702    17A      2.451439  
      18A      2.467149    16B      2.603085  

    Final Occupation by Irrep:
              A     B 
    DOCC [     3,    2 ]

  @DF-RKS Final Energy:   -40.45388709024200

   => Energetics <=

    Nuclear Repulsion Energy =             13.0812826721326410
    One-Electron Energy =                 -79.0890377692667528
    Two-Electron Energy =                  30.0747764535267805
    DFT Exchange-Correlation Energy =      -4.5622455324908886
    Empirical Dispersion Energy =           0.0000000000000000
    VV10 Nonlocal Energy =                  0.0413370858562245
    Total Energy =                        -40.4538870902419916

Computation Completed


Properties will be evaluated at   0.000000,   0.000000,   0.000000 [a0]

Properties computed using the SCF density matrix

  Nuclear Dipole Moment: [e a0]
     X:     0.0000      Y:     0.0000      Z:     0.0294

  Electronic Dipole Moment: [e a0]
     X:     0.0000      Y:     0.0000      Z:    -0.0262

  Dipole Moment: [e a0]
     X:     0.0000      Y:     0.0000      Z:     0.0033     Total:     0.0033

  Dipole Moment: [D]
     X:     0.0000      Y:     0.0000      Z:     0.0083     Total:     0.0083


*** tstop() called on bp1-compute00147.data.bp.acrc.priv at Wed Apr 28 13:36:09 2021
Module time:
	user time   =      65.51 seconds =       1.09 minutes
	system time =       1.32 seconds =       0.02 minutes
	total time  =          2 seconds =       0.03 minutes
Total time:
	user time   =    9037.90 seconds =     150.63 minutes
	system time =     192.13 seconds =       3.20 minutes
	total time  =        385 seconds =       6.42 minutes

  //>>>>>>>>>>>>>>>>>>>>>>>>>>>>>>>>>>>//
  //   Loading displacement 32 of 47   //
  //<<<<<<<<<<<<<<<<<<<<<<<<<<<<<<<<<<<//

*** tstart() called on bp1-compute00147.data.bp.acrc.priv
*** at Wed Apr 28 13:36:09 2021

   => Loading Basis Set <=

    Name: CC-PV(D+D)Z
    Role: ORBITAL
    Keyword: BASIS
    atoms 1, 3-5 entry H          line    31 file /work/zw18965/.conda/envs/p4env/share/psi4/basis/cc-pv_dpd_z.gbs 
    atoms 2      entry C          line   147 file /work/zw18965/.conda/envs/p4env/share/psi4/basis/cc-pv_dpd_z.gbs 


         ---------------------------------------------------------
                                   SCF
               by Justin Turney, Rob Parrish, Andy Simmonett
                          and Daniel G. A. Smith
                              RKS Reference
                       24 Threads, 137329 MiB Core
         ---------------------------------------------------------

  ==> Geometry <==

    Molecular point group: c1
    Full point group: C1

    Geometry (in Angstrom), charge = 0, multiplicity = 1:

       Center              X                  Y                   Z               Mass       
    ------------   -----------------  -----------------  -----------------  -----------------
         H            0.146819184630     0.874780392127    -0.682639598237     1.007825032230
         C            0.000305332483    -0.000000339974    -0.002347350949    12.000000000000
         H            0.866276839932     0.148199261744     0.697456566379     1.007825032230
         H           -0.867030335761    -0.147997471169     0.695808064500     1.007825032230
         H           -0.149701230364    -0.874978134694    -0.682675527037     1.007825032230

  Running in c1 symmetry.

  Rotational constants: A =      5.67629  B =      5.35964  C =      4.20329 [cm^-1]
  Rotational constants: A = 170170.99149  B = 160678.08670  C = 126011.40117 [MHz]
  Nuclear repulsion =   13.079018106604924

  Charge       = 0
  Multiplicity = 1
  Electrons    = 10
  Nalpha       = 5
  Nbeta        = 5

  ==> Algorithm <==

  SCF Algorithm Type is DF.
  DIIS enabled.
  MOM disabled.
  Fractional occupation disabled.
  Guess Type is READ.
  Energy threshold   = 1.00e-10
  Density threshold  = 1.00e-10
  Integral threshold = 0.00e+00

  ==> Primary Basis <==

  Basis Set: CC-PV(D+D)Z
    Blend: CC-PV(D+D)Z
    Number of shells: 18
    Number of basis function: 34
    Number of Cartesian functions: 35
    Spherical Harmonics?: true
    Max angular momentum: 2

  ==> DFT Potential <==

   => Composite Functional: WB97M-V <= 

    wB97M-V Hyb-GGA Exchange-Correlation Functional

    N. Mardirossian and M. Head-Gordon, J. Chem. Phys. 144, 214110 (2016)

    Deriv               =              1
    GGA                 =           TRUE
    Meta                =           TRUE

    Exchange Hybrid     =           TRUE
    MP2 Hybrid          =          FALSE

   => Exchange-Correlation Functionals <=

    1.0000   wB97M-V exchange-correlation functional

   => Exact (HF) Exchange <=

    0.8500            HF,LR [omega = 0.3000]
    0.1500               HF 

   => VV10 Non-Local Parameters <=

    VV10 B              =     6.0000E+00
    VV10 C              =     1.0000E-02

   => Molecular Quadrature <=

    Radial Scheme          =       TREUTLER
    Pruning Scheme         =           FLAT
    Nuclear Scheme         =       TREUTLER

    BS radius alpha        =              1
    Pruning alpha          =              1
    Radial Points          =             75
    Spherical Points       =            302
    Total Points           =         111402
    Total Blocks           =            926
    Max Points             =            256
    Max Functions          =             34

   => Loading Basis Set <=

    Name: (CC-PV(D+D)Z AUX)
    Role: JKFIT
    Keyword: DF_BASIS_SCF
    atoms 1, 3-5 entry H          line    51 file /work/zw18965/.conda/envs/p4env/share/psi4/basis/cc-pvdz-jkfit.gbs 
    atoms 2      entry C          line   121 file /work/zw18965/.conda/envs/p4env/share/psi4/basis/cc-pvdz-jkfit.gbs 

   => Loading Basis Set <=

    Name: CC-PV(D+D)Z
    Role: ORBITAL
    Keyword: BASIS
    atoms 1, 3-5 entry H          line    31 file /work/zw18965/.conda/envs/p4env/share/psi4/basis/cc-pv_dpd_z.gbs 
    atoms 2      entry C          line   147 file /work/zw18965/.conda/envs/p4env/share/psi4/basis/cc-pv_dpd_z.gbs 


Traceback (most recent call last):
  File "/work/zw18965/.conda/envs/p4env/bin/psi4", line 287, in <module>
    exec(content)
  File "<string>", line 33, in <module>
  File "/work/zw18965/.conda/envs/p4env/lib//python3.7/site-packages/psi4/driver/driver.py", line 1079, in optimize
    frequencies(hessian_with_method, molecule=moleculeclone, **kwargs)
  File "/work/zw18965/.conda/envs/p4env/lib//python3.7/site-packages/psi4/driver/driver.py", line 1464, in frequency
    H, wfn = hessian(name, return_wfn=True, molecule=molecule, **kwargs)
  File "/work/zw18965/.conda/envs/p4env/lib//python3.7/site-packages/psi4/driver/driver.py", line 1344, in hessian
    energy, lowername, molecule, displacement, n, ndisp, write_orbitals=False, **kwargs)
  File "/work/zw18965/.conda/envs/p4env/lib//python3.7/site-packages/psi4/driver/driver.py", line 183, in _process_displacement
    derivative, wfn = derivfunc(method, return_wfn=True, molecule=clone, **kwargs)
  File "/work/zw18965/.conda/envs/p4env/lib//python3.7/site-packages/psi4/driver/driver.py", line 556, in energy
    wfn = procedures['energy'][lowername](lowername, molecule=molecule, **kwargs)
  File "/work/zw18965/.conda/envs/p4env/lib//python3.7/site-packages/psi4/driver/procrouting/proc.py", line 2002, in run_scf
    scf_wfn = scf_helper(name, post_scf=False, **kwargs)
  File "/work/zw18965/.conda/envs/p4env/lib//python3.7/site-packages/psi4/driver/procrouting/proc.py", line 1294, in scf_helper
    raise ValidationError("Cannot compute projection of different symmetries.")

psi4.driver.p4util.exceptions.ValidationError: Cannot compute projection of different symmetries.


Printing out the relevant lines from the Psithon --> Python processed input file:
    """)
    core.IO.set_default_namespace("")
    core.set_global_option("DYNAMIC_LEVEL", 1)
    core.set_global_option("BASIS", "cc-pV(D+d)Z")
    core.set_global_option("FULL_HESS_EVERY", 1)
--> optimize("wB97M-V")
    frequencies("wB97M-V")

    Psi4 stopped on: Wednesday, 28 April 2021 01:36PM
    Psi4 wall time for execution: 0:06:26.37

*** Psi4 encountered an error. Buy a developer more coffee!
*** Resources and help at github.com/psi4/psi4.
