
    -----------------------------------------------------------------------
          Psi4: An Open-Source Ab Initio Electronic Structure Package
                               Psi4 1.3.2 release

                         Git: Rev {HEAD} ecbda83 


    R. M. Parrish, L. A. Burns, D. G. A. Smith, A. C. Simmonett,
    A. E. DePrince III, E. G. Hohenstein, U. Bozkaya, A. Yu. Sokolov,
    R. Di Remigio, R. M. Richard, J. F. Gonthier, A. M. James,
    H. R. McAlexander, A. Kumar, M. Saitow, X. Wang, B. P. Pritchard,
    P. Verma, H. F. Schaefer III, K. Patkowski, R. A. King, E. F. Valeev,
    F. A. Evangelista, J. M. Turney, T. D. Crawford, and C. D. Sherrill,
    J. Chem. Theory Comput. 13(7) pp 3185--3197 (2017).
    (doi: 10.1021/acs.jctc.7b00174)


                         Additional Contributions by
    P. Kraus, H. Kruse, M. H. Lechner, M. C. Schieber, R. A. Shaw,
    A. Alenaizan, R. Galvelis, Z. L. Glick, S. Lehtola, and J. P. Misiewicz

    -----------------------------------------------------------------------


    Psi4 started on: Tuesday, 27 April 2021 06:10PM

    Process ID: 214823
    Host:       bp1-compute00099.data.bp.acrc.priv
    PSIDATADIR: /work/zw18965/.conda/envs/p4env/share/psi4
    Memory:     500.0 MiB
    Threads:    24
    
  ==> Input File <==

--------------------------------------------------------------------------
memory 144 GB

molecule {
0 1
Cl 0.0000000000 0.0000000000 0.0000000000
F 0.0000000000 0.0000000000 1.6318233300
}

set dynamic_level 1
set basis cc-pV(D+d)Z
 
optimize("wB97M-V")
frequencies("wB97M-V")
--------------------------------------------------------------------------

  Memory set to 134.110 GiB by Python driver.
gradient() will perform gradient computation by finite difference of analytic energies.

         ----------------------------------------------------------
                                   FINDIF
                     R. A. King and Jonathon Misiewicz
         ---------------------------------------------------------

  Using finite-differences of energies to determine gradients.
    Generating geometries for use with 3-point formula.
    Displacement size will be 5.00e-03.
    Number of atoms is 2.
    Number of symmetric SALCs is 1.
    Translations projected? 1. Rotations projected? 1.
    Number of geometries (including reference) is 3.

  //>>>>>>>>>>>>>>>>>>>>>>>>>>>>>>>>>>>//
  //    Loading displacement 1 of 3    //
  //<<<<<<<<<<<<<<<<<<<<<<<<<<<<<<<<<<<//

*** tstart() called on bp1-compute00099.data.bp.acrc.priv
*** at Tue Apr 27 18:10:23 2021

   => Loading Basis Set <=

    Name: CC-PV(D+D)Z
    Role: ORBITAL
    Keyword: BASIS
    atoms 1 entry CL         line   675 file /work/zw18965/.conda/envs/p4env/share/psi4/basis/cc-pv_dpd_z.gbs 
    atoms 2 entry F          line   237 file /work/zw18965/.conda/envs/p4env/share/psi4/basis/cc-pv_dpd_z.gbs 


         ---------------------------------------------------------
                                   SCF
               by Justin Turney, Rob Parrish, Andy Simmonett
                          and Daniel G. A. Smith
                              RKS Reference
                       24 Threads, 137329 MiB Core
         ---------------------------------------------------------

  ==> Geometry <==

    Molecular point group: c2v
    Full point group: C_inf_v

    Geometry (in Angstrom), charge = 0, multiplicity = 1:

       Center              X                  Y                   Z               Mass       
    ------------   -----------------  -----------------  -----------------  -----------------
         CL           0.000000000000     0.000000000000    -0.574460143071    34.968852682000
         F            0.000000000000     0.000000000000     1.057363186929    18.998403162730

  Running in c2v symmetry.

  Rotational constants: A = ************  B =      0.51426  C =      0.51426 [cm^-1]
  Rotational constants: A = ************  B =  15417.10307  C =  15417.10307 [MHz]
  Nuclear repulsion =   49.615734585992229

  Charge       = 0
  Multiplicity = 1
  Electrons    = 26
  Nalpha       = 13
  Nbeta        = 13

  ==> Algorithm <==

  SCF Algorithm Type is DF.
  DIIS enabled.
  MOM disabled.
  Fractional occupation disabled.
  Guess Type is SAD.
  Energy threshold   = 1.00e-08
  Density threshold  = 1.00e-08
  Integral threshold = 0.00e+00

  ==> Primary Basis <==

  Basis Set: CC-PV(D+D)Z
    Blend: CC-PV(D+D)Z
    Number of shells: 15
    Number of basis function: 37
    Number of Cartesian functions: 40
    Spherical Harmonics?: true
    Max angular momentum: 2

  ==> DFT Potential <==

   => Composite Functional: WB97M-V <= 

    wB97M-V Hyb-GGA Exchange-Correlation Functional

    N. Mardirossian and M. Head-Gordon, J. Chem. Phys. 144, 214110 (2016)

    Deriv               =              1
    GGA                 =           TRUE
    Meta                =           TRUE

    Exchange Hybrid     =           TRUE
    MP2 Hybrid          =          FALSE

   => Exchange-Correlation Functionals <=

    1.0000   wB97M-V exchange-correlation functional

   => Exact (HF) Exchange <=

    0.8500            HF,LR [omega = 0.3000]
    0.1500               HF 

   => VV10 Non-Local Parameters <=

    VV10 B              =     6.0000E+00
    VV10 C              =     1.0000E-02

   => Molecular Quadrature <=

    Radial Scheme          =       TREUTLER
    Pruning Scheme         =           FLAT
    Nuclear Scheme         =       TREUTLER

    BS radius alpha        =              1
    Pruning alpha          =              1
    Radial Points          =             75
    Spherical Points       =            302
    Total Points           =          42263
    Total Blocks           =            379
    Max Points             =            256
    Max Functions          =             37

   => Loading Basis Set <=

    Name: (CC-PV(D+D)Z AUX)
    Role: JKFIT
    Keyword: DF_BASIS_SCF
    atoms 1 entry CL         line   667 file /work/zw18965/.conda/envs/p4env/share/psi4/basis/cc-pvdz-jkfit.gbs 
    atoms 2 entry F          line   271 file /work/zw18965/.conda/envs/p4env/share/psi4/basis/cc-pvdz-jkfit.gbs 

  ==> Pre-Iterations <==

   -------------------------------------------------------
    Irrep   Nso     Nmo     Nalpha   Nbeta   Ndocc  Nsocc
   -------------------------------------------------------
     A1        18      18       0       0       0       0
     A2         3       3       0       0       0       0
     B1         8       8       0       0       0       0
     B2         8       8       0       0       0       0
   -------------------------------------------------------
    Total      37      37      13      13      13       0
   -------------------------------------------------------

  ==> Integral Setup <==

  ==> DiskDFJK: Density-Fitted J/K Matrices <==

    J tasked:                  Yes
    K tasked:                  Yes
    wK tasked:                 Yes
    Omega:               3.000E-01
    OpenMP threads:             24
    Integrals threads:          24
    Memory [MiB]:           102891
    Algorithm:                Core
    Integral Cache:           NONE
    Schwarz Cutoff:          1E-12
    Fitting Condition:       1E-10

   => Auxiliary Basis Set <=

  Basis Set: (CC-PV(D+D)Z AUX)
    Blend: CC-PVDZ-JKFIT
    Number of shells: 60
    Number of basis function: 182
    Number of Cartesian functions: 211
    Spherical Harmonics?: true
    Max angular momentum: 3

  Cached 100.0% of DFT collocation blocks in 0.103 [GiB].

  Minimum eigenvalue in the overlap matrix is 5.3710663248E-02.
  Using Symmetric Orthogonalization.

  SCF Guess: Superposition of Atomic Densities via on-the-fly atomic UHF.

  ==> Iterations <==

                           Total Energy        Delta E     RMS |[F,P]|

   @DF-RKS iter SAD:  -559.67300918640331   -5.59673e+02   0.00000e+00 
   @DF-RKS iter   1:  -559.89452047930433   -2.21511e-01   1.06484e-02 DIIS
   @DF-RKS iter   2:  -559.90753679552245   -1.30163e-02   6.64296e-03 DIIS
   @DF-RKS iter   3:  -559.91271635304724   -5.17956e-03   2.03405e-03 DIIS
   @DF-RKS iter   4:  -559.91332376773096   -6.07415e-04   3.61767e-04 DIIS
   @DF-RKS iter   5:  -559.91334912077264   -2.53530e-05   7.13144e-05 DIIS
   @DF-RKS iter   6:  -559.91335008979365   -9.69021e-07   9.28607e-06 DIIS
   @DF-RKS iter   7:  -559.91335012157879   -3.17851e-08   2.01695e-06 DIIS
   @DF-RKS iter   8:  -559.91335012289335   -1.31456e-09   6.27429e-07 DIIS
   @DF-RKS iter   9:  -559.91335012298111   -8.77662e-11   3.57722e-08 DIIS
   @DF-RKS iter  10:  -559.91335012298180   -6.82121e-13   4.95692e-09 DIIS
  Energy and wave function converged.


  ==> Post-Iterations <==

    Orbital Energies [Eh]
    ---------------------

    Doubly Occupied:                                                      

       1A1  -101.958335     2A1   -24.962433     3A1    -9.719457  
       4A1    -7.429868     1B2    -7.412311     1B1    -7.412311  
       5A1    -1.367644     6A1    -0.952755     7A1    -0.626496  
       2B2    -0.587349     2B1    -0.587349     3B2    -0.425643  
       3B1    -0.425643  

    Virtual:                                                              

       8A1    -0.009213     9A1     0.569671     4B2     0.615510  
       4B1     0.615510    10A1     0.657022     5B2     0.685479  
       5B1     0.685479    11A1     0.704685     1A2     0.704686  
      12A1     0.896767     6B2     1.320174     6B1     1.320174  
      13A1     1.347999    14A1     2.139655     7B1     3.643882  
       7B2     3.643882     2A2     3.656578    15A1     3.656580  
      16A1     3.812957    17A1     5.288932     3A2     5.288950  
       8B2     5.314784     8B1     5.314784    18A1     5.564943  

    Final Occupation by Irrep:
             A1    A2    B1    B2 
    DOCC [     7,    0,    3,    3 ]

  @DF-RKS Final Energy:  -559.91335012298180

   => Energetics <=

    Nuclear Repulsion Energy =             49.6157345859922287
    One-Electron Energy =                -872.8405254898632393
    Two-Electron Energy =                 292.7420517334480792
    DFT Exchange-Correlation Energy =     -29.5405902586761684
    Empirical Dispersion Energy =           0.0000000000000000
    VV10 Nonlocal Energy =                  0.1099793061174238
    Total Energy =                       -559.9133501229816829

Computation Completed


Properties will be evaluated at   0.000000,   0.000000,   0.000000 [a0]

Properties computed using the SCF density matrix

  Nuclear Dipole Moment: [e a0]
     X:     0.0000      Y:     0.0000      Z:    -0.4716

  Electronic Dipole Moment: [e a0]
     X:     0.0000      Y:     0.0000      Z:     0.0450

  Dipole Moment: [e a0]
     X:     0.0000      Y:     0.0000      Z:    -0.4266     Total:     0.4266

  Dipole Moment: [D]
     X:     0.0000      Y:     0.0000      Z:    -1.0844     Total:     1.0844


*** tstop() called on bp1-compute00099.data.bp.acrc.priv at Tue Apr 27 18:10:25 2021
Module time:
	user time   =      47.12 seconds =       0.79 minutes
	system time =       2.08 seconds =       0.03 minutes
	total time  =          2 seconds =       0.03 minutes
Total time:
	user time   =      47.12 seconds =       0.79 minutes
	system time =       2.08 seconds =       0.03 minutes
	total time  =          2 seconds =       0.03 minutes

  //>>>>>>>>>>>>>>>>>>>>>>>>>>>>>>>>>>>//
  //    Loading displacement 2 of 3    //
  //<<<<<<<<<<<<<<<<<<<<<<<<<<<<<<<<<<<//

*** tstart() called on bp1-compute00099.data.bp.acrc.priv
*** at Tue Apr 27 18:10:25 2021

   => Loading Basis Set <=

    Name: CC-PV(D+D)Z
    Role: ORBITAL
    Keyword: BASIS
    atoms 1 entry CL         line   675 file /work/zw18965/.conda/envs/p4env/share/psi4/basis/cc-pv_dpd_z.gbs 
    atoms 2 entry F          line   237 file /work/zw18965/.conda/envs/p4env/share/psi4/basis/cc-pv_dpd_z.gbs 


         ---------------------------------------------------------
                                   SCF
               by Justin Turney, Rob Parrish, Andy Simmonett
                          and Daniel G. A. Smith
                              RKS Reference
                       24 Threads, 137329 MiB Core
         ---------------------------------------------------------

  ==> Geometry <==

    Molecular point group: c2v
    Full point group: C_inf_v

    Geometry (in Angstrom), charge = 0, multiplicity = 1:

       Center              X                  Y                   Z               Mass       
    ------------   -----------------  -----------------  -----------------  -----------------
         CL           0.000000000000     0.000000000000    -0.574725618192    34.968852682000
         F            0.000000000000     0.000000000000     1.057851825912    18.998403162730

  Running in c2v symmetry.

  Rotational constants: A = ************  B =      0.51378  C =      0.51378 [cm^-1]
  Rotational constants: A = ************  B =  15402.86354  C =  15402.86354 [MHz]
  Nuclear repulsion =   49.592816270318309

  Charge       = 0
  Multiplicity = 1
  Electrons    = 26
  Nalpha       = 13
  Nbeta        = 13

  ==> Algorithm <==

  SCF Algorithm Type is DF.
  DIIS enabled.
  MOM disabled.
  Fractional occupation disabled.
  Guess Type is SAD.
  Energy threshold   = 1.00e-08
  Density threshold  = 1.00e-08
  Integral threshold = 0.00e+00

  ==> Primary Basis <==

  Basis Set: CC-PV(D+D)Z
    Blend: CC-PV(D+D)Z
    Number of shells: 15
    Number of basis function: 37
    Number of Cartesian functions: 40
    Spherical Harmonics?: true
    Max angular momentum: 2

  ==> DFT Potential <==

   => Composite Functional: WB97M-V <= 

    wB97M-V Hyb-GGA Exchange-Correlation Functional

    N. Mardirossian and M. Head-Gordon, J. Chem. Phys. 144, 214110 (2016)

    Deriv               =              1
    GGA                 =           TRUE
    Meta                =           TRUE

    Exchange Hybrid     =           TRUE
    MP2 Hybrid          =          FALSE

   => Exchange-Correlation Functionals <=

    1.0000   wB97M-V exchange-correlation functional

   => Exact (HF) Exchange <=

    0.8500            HF,LR [omega = 0.3000]
    0.1500               HF 

   => VV10 Non-Local Parameters <=

    VV10 B              =     6.0000E+00
    VV10 C              =     1.0000E-02

   => Molecular Quadrature <=

    Radial Scheme          =       TREUTLER
    Pruning Scheme         =           FLAT
    Nuclear Scheme         =       TREUTLER

    BS radius alpha        =              1
    Pruning alpha          =              1
    Radial Points          =             75
    Spherical Points       =            302
    Total Points           =          42271
    Total Blocks           =            379
    Max Points             =            256
    Max Functions          =             37

   => Loading Basis Set <=

    Name: (CC-PV(D+D)Z AUX)
    Role: JKFIT
    Keyword: DF_BASIS_SCF
    atoms 1 entry CL         line   667 file /work/zw18965/.conda/envs/p4env/share/psi4/basis/cc-pvdz-jkfit.gbs 
    atoms 2 entry F          line   271 file /work/zw18965/.conda/envs/p4env/share/psi4/basis/cc-pvdz-jkfit.gbs 

  ==> Pre-Iterations <==

   -------------------------------------------------------
    Irrep   Nso     Nmo     Nalpha   Nbeta   Ndocc  Nsocc
   -------------------------------------------------------
     A1        18      18       0       0       0       0
     A2         3       3       0       0       0       0
     B1         8       8       0       0       0       0
     B2         8       8       0       0       0       0
   -------------------------------------------------------
    Total      37      37      13      13      13       0
   -------------------------------------------------------

  ==> Integral Setup <==

  ==> DiskDFJK: Density-Fitted J/K Matrices <==

    J tasked:                  Yes
    K tasked:                  Yes
    wK tasked:                 Yes
    Omega:               3.000E-01
    OpenMP threads:             24
    Integrals threads:          24
    Memory [MiB]:           102891
    Algorithm:                Core
    Integral Cache:           NONE
    Schwarz Cutoff:          1E-12
    Fitting Condition:       1E-10

   => Auxiliary Basis Set <=

  Basis Set: (CC-PV(D+D)Z AUX)
    Blend: CC-PVDZ-JKFIT
    Number of shells: 60
    Number of basis function: 182
    Number of Cartesian functions: 211
    Spherical Harmonics?: true
    Max angular momentum: 3

  Cached 100.0% of DFT collocation blocks in 0.103 [GiB].

  Minimum eigenvalue in the overlap matrix is 5.3762167107E-02.
  Using Symmetric Orthogonalization.

  SCF Guess: Superposition of Atomic Densities via on-the-fly atomic UHF.

  ==> Iterations <==

                           Total Energy        Delta E     RMS |[F,P]|

   @DF-RKS iter SAD:  -559.67191119849872   -5.59672e+02   0.00000e+00 
   @DF-RKS iter   1:  -559.89455388814747   -2.22643e-01   1.06439e-02 DIIS
   @DF-RKS iter   2:  -559.90753646973019   -1.29826e-02   6.65060e-03 DIIS
   @DF-RKS iter   3:  -559.91273095720089   -5.19449e-03   2.03681e-03 DIIS
   @DF-RKS iter   4:  -559.91334024169771   -6.09284e-04   3.61151e-04 DIIS
   @DF-RKS iter   5:  -559.91336551008146   -2.52684e-05   7.12801e-05 DIIS
   @DF-RKS iter   6:  -559.91336647729543   -9.67214e-07   9.26414e-06 DIIS
   @DF-RKS iter   7:  -559.91336650892470   -3.16293e-08   2.01179e-06 DIIS
   @DF-RKS iter   8:  -559.91336651023255   -1.30785e-09   6.27190e-07 DIIS
   @DF-RKS iter   9:  -559.91336651032032   -8.77662e-11   3.57630e-08 DIIS
   @DF-RKS iter  10:  -559.91336651032111   -7.95808e-13   4.96171e-09 DIIS
  Energy and wave function converged.


  ==> Post-Iterations <==

    Orbital Energies [Eh]
    ---------------------

    Doubly Occupied:                                                      

       1A1  -101.958396     2A1   -24.962423     3A1    -9.719505  
       4A1    -7.429915     1B2    -7.412360     1B1    -7.412360  
       5A1    -1.367365     6A1    -0.952814     7A1    -0.626360  
       2B1    -0.587183     2B2    -0.587183     3B1    -0.425736  
       3B2    -0.425736  

    Virtual:                                                              

       8A1    -0.009521     9A1     0.569598     4B1     0.615532  
       4B2     0.615532    10A1     0.656995     5B1     0.685375  
       5B2     0.685375    11A1     0.704664     1A2     0.704666  
      12A1     0.896525     6B2     1.320142     6B1     1.320142  
      13A1     1.348066    14A1     2.139385     7B1     3.643901  
       7B2     3.643901     2A2     3.656684    15A1     3.656686  
      16A1     3.812303    17A1     5.288889     3A2     5.288907  
       8B2     5.314572     8B1     5.314572    18A1     5.564562  

    Final Occupation by Irrep:
             A1    A2    B1    B2 
    DOCC [     7,    0,    3,    3 ]

  @DF-RKS Final Energy:  -559.91336651032111

   => Energetics <=

    Nuclear Repulsion Energy =             49.5928162703183091
    One-Electron Energy =                -872.7954054097558583
    Two-Electron Energy =                 292.7195421250559662
    DFT Exchange-Correlation Energy =     -29.5403001019328038
    Empirical Dispersion Energy =           0.0000000000000000
    VV10 Nonlocal Energy =                  0.1099806059934046
    Total Energy =                       -559.9133665103208841

Computation Completed


Properties will be evaluated at   0.000000,   0.000000,   0.000000 [a0]

Properties computed using the SCF density matrix

  Nuclear Dipole Moment: [e a0]
     X:     0.0000      Y:     0.0000      Z:    -0.4718

  Electronic Dipole Moment: [e a0]
     X:     0.0000      Y:     0.0000      Z:     0.0445

  Dipole Moment: [e a0]
     X:     0.0000      Y:     0.0000      Z:    -0.4273     Total:     0.4273

  Dipole Moment: [D]
     X:     0.0000      Y:     0.0000      Z:    -1.0861     Total:     1.0861


*** tstop() called on bp1-compute00099.data.bp.acrc.priv at Tue Apr 27 18:10:27 2021
Module time:
	user time   =      49.36 seconds =       0.82 minutes
	system time =       2.10 seconds =       0.03 minutes
	total time  =          2 seconds =       0.03 minutes
Total time:
	user time   =      96.61 seconds =       1.61 minutes
	system time =       4.19 seconds =       0.07 minutes
	total time  =          4 seconds =       0.07 minutes

  //>>>>>>>>>>>>>>>>>>>>>>>>>>>>>>>>>>>//
  //    Loading displacement 3 of 3    //
  //<<<<<<<<<<<<<<<<<<<<<<<<<<<<<<<<<<<//

*** tstart() called on bp1-compute00099.data.bp.acrc.priv
*** at Tue Apr 27 18:10:27 2021

   => Loading Basis Set <=

    Name: CC-PV(D+D)Z
    Role: ORBITAL
    Keyword: BASIS
    atoms 1 entry CL         line   675 file /work/zw18965/.conda/envs/p4env/share/psi4/basis/cc-pv_dpd_z.gbs 
    atoms 2 entry F          line   237 file /work/zw18965/.conda/envs/p4env/share/psi4/basis/cc-pv_dpd_z.gbs 


         ---------------------------------------------------------
                                   SCF
               by Justin Turney, Rob Parrish, Andy Simmonett
                          and Daniel G. A. Smith
                              RKS Reference
                       24 Threads, 137329 MiB Core
         ---------------------------------------------------------

  ==> Geometry <==

    Molecular point group: c2v
    Full point group: C_inf_v

    Geometry (in Angstrom), charge = 0, multiplicity = 1:

       Center              X                  Y                   Z               Mass       
    ------------   -----------------  -----------------  -----------------  -----------------
         CL           0.000000000000     0.000000000000    -0.574194667950    34.968852682000
         F            0.000000000000     0.000000000000     1.056874547947    18.998403162730

  Running in c2v symmetry.

  Rotational constants: A = ************  B =      0.51473  C =      0.51473 [cm^-1]
  Rotational constants: A = ************  B =  15431.36236  C =  15431.36236 [MHz]
  Nuclear repulsion =   49.638674093930597

  Charge       = 0
  Multiplicity = 1
  Electrons    = 26
  Nalpha       = 13
  Nbeta        = 13

  ==> Algorithm <==

  SCF Algorithm Type is DF.
  DIIS enabled.
  MOM disabled.
  Fractional occupation disabled.
  Guess Type is SAD.
  Energy threshold   = 1.00e-08
  Density threshold  = 1.00e-08
  Integral threshold = 0.00e+00

  ==> Primary Basis <==

  Basis Set: CC-PV(D+D)Z
    Blend: CC-PV(D+D)Z
    Number of shells: 15
    Number of basis function: 37
    Number of Cartesian functions: 40
    Spherical Harmonics?: true
    Max angular momentum: 2

  ==> DFT Potential <==

   => Composite Functional: WB97M-V <= 

    wB97M-V Hyb-GGA Exchange-Correlation Functional

    N. Mardirossian and M. Head-Gordon, J. Chem. Phys. 144, 214110 (2016)

    Deriv               =              1
    GGA                 =           TRUE
    Meta                =           TRUE

    Exchange Hybrid     =           TRUE
    MP2 Hybrid          =          FALSE

   => Exchange-Correlation Functionals <=

    1.0000   wB97M-V exchange-correlation functional

   => Exact (HF) Exchange <=

    0.8500            HF,LR [omega = 0.3000]
    0.1500               HF 

   => VV10 Non-Local Parameters <=

    VV10 B              =     6.0000E+00
    VV10 C              =     1.0000E-02

   => Molecular Quadrature <=

    Radial Scheme          =       TREUTLER
    Pruning Scheme         =           FLAT
    Nuclear Scheme         =       TREUTLER

    BS radius alpha        =              1
    Pruning alpha          =              1
    Radial Points          =             75
    Spherical Points       =            302
    Total Points           =          42263
    Total Blocks           =            379
    Max Points             =            256
    Max Functions          =             37

   => Loading Basis Set <=

    Name: (CC-PV(D+D)Z AUX)
    Role: JKFIT
    Keyword: DF_BASIS_SCF
    atoms 1 entry CL         line   667 file /work/zw18965/.conda/envs/p4env/share/psi4/basis/cc-pvdz-jkfit.gbs 
    atoms 2 entry F          line   271 file /work/zw18965/.conda/envs/p4env/share/psi4/basis/cc-pvdz-jkfit.gbs 

  ==> Pre-Iterations <==

   -------------------------------------------------------
    Irrep   Nso     Nmo     Nalpha   Nbeta   Ndocc  Nsocc
   -------------------------------------------------------
     A1        18      18       0       0       0       0
     A2         3       3       0       0       0       0
     B1         8       8       0       0       0       0
     B2         8       8       0       0       0       0
   -------------------------------------------------------
    Total      37      37      13      13      13       0
   -------------------------------------------------------

  ==> Integral Setup <==

  ==> DiskDFJK: Density-Fitted J/K Matrices <==

    J tasked:                  Yes
    K tasked:                  Yes
    wK tasked:                 Yes
    Omega:               3.000E-01
    OpenMP threads:             24
    Integrals threads:          24
    Memory [MiB]:           102891
    Algorithm:                Core
    Integral Cache:           NONE
    Schwarz Cutoff:          1E-12
    Fitting Condition:       1E-10

   => Auxiliary Basis Set <=

  Basis Set: (CC-PV(D+D)Z AUX)
    Blend: CC-PVDZ-JKFIT
    Number of shells: 60
    Number of basis function: 182
    Number of Cartesian functions: 211
    Spherical Harmonics?: true
    Max angular momentum: 3

  Cached 100.0% of DFT collocation blocks in 0.103 [GiB].

  Minimum eigenvalue in the overlap matrix is 5.3659168705E-02.
  Using Symmetric Orthogonalization.

  SCF Guess: Superposition of Atomic Densities via on-the-fly atomic UHF.

  ==> Iterations <==

                           Total Energy        Delta E     RMS |[F,P]|

   @DF-RKS iter SAD:  -559.67410828760126   -5.59674e+02   0.00000e+00 
   @DF-RKS iter   1:  -559.89448633862787   -2.20378e-01   1.06528e-02 DIIS
   @DF-RKS iter   2:  -559.90753632046142   -1.30500e-02   6.63537e-03 DIIS
   @DF-RKS iter   3:  -559.91270107631544   -5.16476e-03   2.03128e-03 DIIS
   @DF-RKS iter   4:  -559.91330661873519   -6.05542e-04   3.62385e-04 DIIS
   @DF-RKS iter   5:  -559.91333205668798   -2.54380e-05   7.13487e-05 DIIS
   @DF-RKS iter   6:  -559.91333302752059   -9.70833e-07   9.30804e-06 DIIS
   @DF-RKS iter   7:  -559.91333305946273   -3.19421e-08   2.02212e-06 DIIS
   @DF-RKS iter   8:  -559.91333306078388   -1.32115e-09   6.27657e-07 DIIS
   @DF-RKS iter   9:  -559.91333306087188   -8.79936e-11   3.57811e-08 DIIS
   @DF-RKS iter  10:  -559.91333306087267   -7.95808e-13   4.95209e-09 DIIS
  Energy and wave function converged.


  ==> Post-Iterations <==

    Orbital Energies [Eh]
    ---------------------

    Doubly Occupied:                                                      

       1A1  -101.958274     2A1   -24.962442     3A1    -9.719410  
       4A1    -7.429821     1B2    -7.412261     1B1    -7.412261  
       5A1    -1.367923     6A1    -0.952696     7A1    -0.626631  
       2B2    -0.587515     2B1    -0.587515     3B1    -0.425550  
       3B2    -0.425550  

    Virtual:                                                              

       8A1    -0.008905     9A1     0.569744     4B2     0.615488  
       4B1     0.615488    10A1     0.657050     5B2     0.685583  
       5B1     0.685583    11A1     0.704706     1A2     0.704707  
      12A1     0.897010     6B2     1.320206     6B1     1.320206  
      13A1     1.347933    14A1     2.139924     7B2     3.643863  
       7B1     3.643863     2A2     3.656471    15A1     3.656474  
      16A1     3.813613    17A1     5.288975     3A2     5.288993  
       8B1     5.314996     8B2     5.314996    18A1     5.565322  

    Final Occupation by Irrep:
             A1    A2    B1    B2 
    DOCC [     7,    0,    3,    3 ]

  @DF-RKS Final Energy:  -559.91333306087267

   => Energetics <=

    Nuclear Repulsion Energy =             49.6386740939305966
    One-Electron Energy =                -872.8856843559012759
    Two-Electron Energy =                 292.7645800871052302
    DFT Exchange-Correlation Energy =     -29.5408808924260846
    Empirical Dispersion Energy =           0.0000000000000000
    VV10 Nonlocal Energy =                  0.1099780064187053
    Total Energy =                       -559.9133330608727874

Computation Completed


Properties will be evaluated at   0.000000,   0.000000,   0.000000 [a0]

Properties computed using the SCF density matrix

  Nuclear Dipole Moment: [e a0]
     X:     0.0000      Y:     0.0000      Z:    -0.4714

  Electronic Dipole Moment: [e a0]
     X:     0.0000      Y:     0.0000      Z:     0.0454

  Dipole Moment: [e a0]
     X:     0.0000      Y:     0.0000      Z:    -0.4260     Total:     0.4260

  Dipole Moment: [D]
     X:     0.0000      Y:     0.0000      Z:    -1.0827     Total:     1.0827


*** tstop() called on bp1-compute00099.data.bp.acrc.priv at Tue Apr 27 18:10:30 2021
Module time:
	user time   =      46.70 seconds =       0.78 minutes
	system time =       1.80 seconds =       0.03 minutes
	total time  =          3 seconds =       0.05 minutes
Total time:
	user time   =     143.45 seconds =       2.39 minutes
	system time =       6.00 seconds =       0.10 minutes
	total time  =          7 seconds =       0.12 minutes

         ----------------------------------------------------------
                                   FINDIF
                     R. A. King and Jonathon Misiewicz
         ---------------------------------------------------------

  Computing gradient from energies.
    Using 3-point formula.
    Energy without displacement: -559.9133501230
    Check energies below for precision!
    Forces are for mass-weighted, symmetry-adapted cartesians (in au).

     Coord      Energy(-1)        Energy(+1)            Force
        0   -559.9133665103   -559.9133330609      0.0033449448


-------------------------------------------------------------
  ## New Matrix (Symmetry 0) ##
  Irrep: 1 Size: 2 x 3

                 1                   2                   3

    1     0.00000000000000     0.00000000000000     0.01173607928261
    2     0.00000000000000     0.00000000000000    -0.01173607928261




			-----------------------------------------
			 OPTKING 2.0: for geometry optimizations 
			  - R.A. King,  Bethel University        
			-----------------------------------------
	At level 1: Red. Int., RFO, no backsteps, dynamic trust

	Internal coordinates to be generated automatically.
	Detected frag 1 with atoms:  1 2
	---Fragment 1 Bond Connectivity---
	 1 : 2
	 2 : 1

	---Fragment 1 Geometry and Gradient---
	 CL          0.0000000000        0.0000000000       -1.0855723404
	 F           0.0000000000        0.0000000000        1.9981268384
	             0.0000000000        0.0000000000        0.0117360793
	             0.0000000000        0.0000000000       -0.0117360793

	Previous optimization step data not found.  Starting new optimization.

	---Fragment 1 Intrafragment Coordinates---
	 - Coordinate -           - BOHR/RAD -       - ANG/DEG -
	 R(1,2)           =         3.083699	       1.631823

	Current energy   :      -559.9133501230

	Generating empirical Hessian (Schlegel '84) for each fragment.
	Taking RFO optimization step.
	Going to follow RFO solution 1.
	Using RFO vector 1.
	Norm of target step-size    0.02576
	Projected energy change by RFO approximation:         0.0000294744

	Back-transformation to cartesian coordinates...
	Successfully converged to displaced geometry.

	--- Internal Coordinate Step in ANG or DEG, aJ/ANG or AJ/DEG ---
	 ---------------------------------------------------------------------------
	   Coordinate                Previous        Force       Change         New 
	   ----------                --------       ------       ------       ------
	    1 R(1,2)          =      1.631823     0.096690     0.013633     1.645456
	 ---------------------------------------------------------------------------
	Successfully symmetrized geometry.

  ==> Convergence Check <==

  Measures of convergence in internal coordinates in au.
  Criteria marked as inactive (o), active & met (*), and active & unmet ( ).
  --------------------------------------------------------------------------------------------- ~
   Step     Total Energy     Delta E     MAX Force     RMS Force      MAX Disp      RMS Disp    ~
  --------------------------------------------------------------------------------------------- ~
    Convergence Criteria    1.00e-06 *    3.00e-04 *             o    1.20e-03 *             o  ~
  --------------------------------------------------------------------------------------------- ~
      1    -559.91335012   -5.60e+02      1.17e-02      1.17e-02 o    2.58e-02      2.58e-02 o  ~
  ---------------------------------------------------------------------------------------------

	Writing optimization data to binary file.
	Structure for next step:
	Cartesian Geometry (in Angstrom)
	   CL     0.0000000000   0.0000000000  -0.5812764440
	    F     0.0000000000   0.0000000000   1.0641794859
			--------------------------
			 OPTKING Finished Execution 
			--------------------------

    Structure for next step:
    Molecular point group: c2v
    Full point group: C_inf_v

    Geometry (in Angstrom), charge = 0, multiplicity = 1:

    CL           0.000000000000     0.000000000000    -0.579259307811
    F            0.000000000000     0.000000000000     1.066196628528

gradient() will perform gradient computation by finite difference of analytic energies.

         ----------------------------------------------------------
                                   FINDIF
                     R. A. King and Jonathon Misiewicz
         ---------------------------------------------------------

  Using finite-differences of energies to determine gradients.
    Generating geometries for use with 3-point formula.
    Displacement size will be 5.00e-03.
    Number of atoms is 2.
    Number of symmetric SALCs is 1.
    Translations projected? 1. Rotations projected? 1.
    Number of geometries (including reference) is 3.

  //>>>>>>>>>>>>>>>>>>>>>>>>>>>>>>>>>>>//
  //    Loading displacement 1 of 3    //
  //<<<<<<<<<<<<<<<<<<<<<<<<<<<<<<<<<<<//

*** tstart() called on bp1-compute00099.data.bp.acrc.priv
*** at Tue Apr 27 18:10:30 2021

   => Loading Basis Set <=

    Name: CC-PV(D+D)Z
    Role: ORBITAL
    Keyword: BASIS
    atoms 1 entry CL         line   675 file /work/zw18965/.conda/envs/p4env/share/psi4/basis/cc-pv_dpd_z.gbs 
    atoms 2 entry F          line   237 file /work/zw18965/.conda/envs/p4env/share/psi4/basis/cc-pv_dpd_z.gbs 


         ---------------------------------------------------------
                                   SCF
               by Justin Turney, Rob Parrish, Andy Simmonett
                          and Daniel G. A. Smith
                              RKS Reference
                       24 Threads, 137329 MiB Core
         ---------------------------------------------------------

  ==> Geometry <==

    Molecular point group: c2v
    Full point group: C_inf_v

    Geometry (in Angstrom), charge = 0, multiplicity = 1:

       Center              X                  Y                   Z               Mass       
    ------------   -----------------  -----------------  -----------------  -----------------
         CL           0.000000000000     0.000000000000    -0.579259307811    34.968852682000
         F            0.000000000000     0.000000000000     1.066196628528    18.998403162730

  Running in c2v symmetry.

  Rotational constants: A = ************  B =      0.50577  C =      0.50577 [cm^-1]
  Rotational constants: A = ************  B =  15162.69985  C =  15162.69985 [MHz]
  Nuclear repulsion =   49.204668107145629

  Charge       = 0
  Multiplicity = 1
  Electrons    = 26
  Nalpha       = 13
  Nbeta        = 13

  ==> Algorithm <==

  SCF Algorithm Type is DF.
  DIIS enabled.
  MOM disabled.
  Fractional occupation disabled.
  Guess Type is READ.
  Energy threshold   = 1.00e-08
  Density threshold  = 1.00e-08
  Integral threshold = 0.00e+00

  ==> Primary Basis <==

  Basis Set: CC-PV(D+D)Z
    Blend: CC-PV(D+D)Z
    Number of shells: 15
    Number of basis function: 37
    Number of Cartesian functions: 40
    Spherical Harmonics?: true
    Max angular momentum: 2

  ==> DFT Potential <==

   => Composite Functional: WB97M-V <= 

    wB97M-V Hyb-GGA Exchange-Correlation Functional

    N. Mardirossian and M. Head-Gordon, J. Chem. Phys. 144, 214110 (2016)

    Deriv               =              1
    GGA                 =           TRUE
    Meta                =           TRUE

    Exchange Hybrid     =           TRUE
    MP2 Hybrid          =          FALSE

   => Exchange-Correlation Functionals <=

    1.0000   wB97M-V exchange-correlation functional

   => Exact (HF) Exchange <=

    0.8500            HF,LR [omega = 0.3000]
    0.1500               HF 

   => VV10 Non-Local Parameters <=

    VV10 B              =     6.0000E+00
    VV10 C              =     1.0000E-02

   => Molecular Quadrature <=

    Radial Scheme          =       TREUTLER
    Pruning Scheme         =           FLAT
    Nuclear Scheme         =       TREUTLER

    BS radius alpha        =              1
    Pruning alpha          =              1
    Radial Points          =             75
    Spherical Points       =            302
    Total Points           =          42275
    Total Blocks           =            377
    Max Points             =            256
    Max Functions          =             37

   => Loading Basis Set <=

    Name: (CC-PV(D+D)Z AUX)
    Role: JKFIT
    Keyword: DF_BASIS_SCF
    atoms 1 entry CL         line   667 file /work/zw18965/.conda/envs/p4env/share/psi4/basis/cc-pvdz-jkfit.gbs 
    atoms 2 entry F          line   271 file /work/zw18965/.conda/envs/p4env/share/psi4/basis/cc-pvdz-jkfit.gbs 

   => Loading Basis Set <=

    Name: CC-PV(D+D)Z
    Role: ORBITAL
    Keyword: BASIS
    atoms 1 entry CL         line   675 file /work/zw18965/.conda/envs/p4env/share/psi4/basis/cc-pv_dpd_z.gbs 
    atoms 2 entry F          line   237 file /work/zw18965/.conda/envs/p4env/share/psi4/basis/cc-pv_dpd_z.gbs 

  Reading orbitals from file 180, no projection.

  ==> Pre-Iterations <==

   -------------------------------------------------------
    Irrep   Nso     Nmo     Nalpha   Nbeta   Ndocc  Nsocc
   -------------------------------------------------------
     A1        18      18       0       0       0       0
     A2         3       3       0       0       0       0
     B1         8       8       0       0       0       0
     B2         8       8       0       0       0       0
   -------------------------------------------------------
    Total      37      37      13      13      13       0
   -------------------------------------------------------

  ==> Integral Setup <==

  ==> DiskDFJK: Density-Fitted J/K Matrices <==

    J tasked:                  Yes
    K tasked:                  Yes
    wK tasked:                 Yes
    Omega:               3.000E-01
    OpenMP threads:             24
    Integrals threads:          24
    Memory [MiB]:           102891
    Algorithm:                Core
    Integral Cache:           NONE
    Schwarz Cutoff:          1E-12
    Fitting Condition:       1E-10

   => Auxiliary Basis Set <=

  Basis Set: (CC-PV(D+D)Z AUX)
    Blend: CC-PVDZ-JKFIT
    Number of shells: 60
    Number of basis function: 182
    Number of Cartesian functions: 211
    Spherical Harmonics?: true
    Max angular momentum: 3

  Cached 100.0% of DFT collocation blocks in 0.103 [GiB].

  Minimum eigenvalue in the overlap matrix is 5.4643092987E-02.
  Using Symmetric Orthogonalization.

  SCF Guess: Orbitals guess was supplied from a previous computation.

  ==> Iterations <==

                           Total Energy        Delta E     RMS |[F,P]|

   @DF-RKS iter   0:  -559.90700942280102   -5.59907e+02   1.56253e-03 
   @DF-RKS iter   1:  -559.91353066219915   -6.52124e-03   2.86452e-04 DIIS
   @DF-RKS iter   2:  -559.91354098652005   -1.03243e-05   1.62600e-04 DIIS
   @DF-RKS iter   3:  -559.91354435149390   -3.36497e-06   3.98150e-05 DIIS
   @DF-RKS iter   4:  -559.91354459791160   -2.46418e-07   1.66853e-05 DIIS
   @DF-RKS iter   5:  -559.91354464356345   -4.56519e-08   1.37391e-06 DIIS
   @DF-RKS iter   6:  -559.91354464433925   -7.75799e-10   3.09238e-07 DIIS
   @DF-RKS iter   7:  -559.91354464436142   -2.21689e-11   5.36286e-08 DIIS
   @DF-RKS iter   8:  -559.91354464436279   -1.36424e-12   1.76662e-08 DIIS
   @DF-RKS iter   9:  -559.91354464436256    2.27374e-13   9.52057e-10 DIIS
  Energy and wave function converged.


  ==> Post-Iterations <==

    Orbital Energies [Eh]
    ---------------------

    Doubly Occupied:                                                      

       1A1  -101.959433     2A1   -24.962273     3A1    -9.720306  
       4A1    -7.430711     1B2    -7.413199     1B1    -7.413199  
       5A1    -1.362708     6A1    -0.953805     7A1    -0.624052  
       2B2    -0.584406     2B1    -0.584406     3B2    -0.427301  
       3B1    -0.427301  

    Virtual:                                                              

       8A1    -0.014744     9A1     0.568437     4B1     0.615896  
       4B2     0.615896    10A1     0.656530     5B2     0.683649  
       5B1     0.683649    11A1     0.704311     1A2     0.704313  
      12A1     0.892400     6B2     1.319559     6B1     1.319559  
      13A1     1.349194    14A1     2.134654     7B1     3.644260  
       7B2     3.644260     2A2     3.658457    15A1     3.658462  
      16A1     3.801505    17A1     5.288154     3A2     5.288171  
       8B2     5.311031     8B1     5.311031    18A1     5.557926  

    Final Occupation by Irrep:
             A1    A2    B1    B2 
    DOCC [     7,    0,    3,    3 ]

  @DF-RKS Final Energy:  -559.91354464436256

   => Energetics <=

    Nuclear Repulsion Energy =             49.2046681071456291
    One-Electron Energy =                -872.0308022647789130
    Two-Electron Energy =                 292.3380045147536634
    DFT Exchange-Correlation Energy =     -29.5354178329126711
    Empirical Dispersion Energy =           0.0000000000000000
    VV10 Nonlocal Energy =                  0.1100028314298376
    Total Energy =                       -559.9135446443624460

Computation Completed


Properties will be evaluated at   0.000000,   0.000000,   0.000000 [a0]

Properties computed using the SCF density matrix

  Nuclear Dipole Moment: [e a0]
     X:     0.0000      Y:     0.0000      Z:    -0.4755

  Electronic Dipole Moment: [e a0]
     X:     0.0000      Y:     0.0000      Z:     0.0371

  Dipole Moment: [e a0]
     X:     0.0000      Y:     0.0000      Z:    -0.4385     Total:     0.4385

  Dipole Moment: [D]
     X:     0.0000      Y:     0.0000      Z:    -1.1145     Total:     1.1145


*** tstop() called on bp1-compute00099.data.bp.acrc.priv at Tue Apr 27 18:10:31 2021
Module time:
	user time   =      35.67 seconds =       0.59 minutes
	system time =       1.32 seconds =       0.02 minutes
	total time  =          1 seconds =       0.02 minutes
Total time:
	user time   =     179.46 seconds =       2.99 minutes
	system time =       7.34 seconds =       0.12 minutes
	total time  =          8 seconds =       0.13 minutes

  //>>>>>>>>>>>>>>>>>>>>>>>>>>>>>>>>>>>//
  //    Loading displacement 2 of 3    //
  //<<<<<<<<<<<<<<<<<<<<<<<<<<<<<<<<<<<//

*** tstart() called on bp1-compute00099.data.bp.acrc.priv
*** at Tue Apr 27 18:10:31 2021

   => Loading Basis Set <=

    Name: CC-PV(D+D)Z
    Role: ORBITAL
    Keyword: BASIS
    atoms 1 entry CL         line   675 file /work/zw18965/.conda/envs/p4env/share/psi4/basis/cc-pv_dpd_z.gbs 
    atoms 2 entry F          line   237 file /work/zw18965/.conda/envs/p4env/share/psi4/basis/cc-pv_dpd_z.gbs 


         ---------------------------------------------------------
                                   SCF
               by Justin Turney, Rob Parrish, Andy Simmonett
                          and Daniel G. A. Smith
                              RKS Reference
                       24 Threads, 137329 MiB Core
         ---------------------------------------------------------

  ==> Geometry <==

    Molecular point group: c2v
    Full point group: C_inf_v

    Geometry (in Angstrom), charge = 0, multiplicity = 1:

       Center              X                  Y                   Z               Mass       
    ------------   -----------------  -----------------  -----------------  -----------------
         CL           0.000000000000     0.000000000000    -0.579524782932    34.968852682000
         F            0.000000000000     0.000000000000     1.066685267511    18.998403162730

  Running in c2v symmetry.

  Rotational constants: A = ************  B =      0.50531  C =      0.50531 [cm^-1]
  Rotational constants: A = ************  B =  15148.81124  C =  15148.81124 [MHz]
  Nuclear repulsion =   49.182127888668184

  Charge       = 0
  Multiplicity = 1
  Electrons    = 26
  Nalpha       = 13
  Nbeta        = 13

  ==> Algorithm <==

  SCF Algorithm Type is DF.
  DIIS enabled.
  MOM disabled.
  Fractional occupation disabled.
  Guess Type is READ.
  Energy threshold   = 1.00e-08
  Density threshold  = 1.00e-08
  Integral threshold = 0.00e+00

  ==> Primary Basis <==

  Basis Set: CC-PV(D+D)Z
    Blend: CC-PV(D+D)Z
    Number of shells: 15
    Number of basis function: 37
    Number of Cartesian functions: 40
    Spherical Harmonics?: true
    Max angular momentum: 2

  ==> DFT Potential <==

   => Composite Functional: WB97M-V <= 

    wB97M-V Hyb-GGA Exchange-Correlation Functional

    N. Mardirossian and M. Head-Gordon, J. Chem. Phys. 144, 214110 (2016)

    Deriv               =              1
    GGA                 =           TRUE
    Meta                =           TRUE

    Exchange Hybrid     =           TRUE
    MP2 Hybrid          =          FALSE

   => Exchange-Correlation Functionals <=

    1.0000   wB97M-V exchange-correlation functional

   => Exact (HF) Exchange <=

    0.8500            HF,LR [omega = 0.3000]
    0.1500               HF 

   => VV10 Non-Local Parameters <=

    VV10 B              =     6.0000E+00
    VV10 C              =     1.0000E-02

   => Molecular Quadrature <=

    Radial Scheme          =       TREUTLER
    Pruning Scheme         =           FLAT
    Nuclear Scheme         =       TREUTLER

    BS radius alpha        =              1
    Pruning alpha          =              1
    Radial Points          =             75
    Spherical Points       =            302
    Total Points           =          42275
    Total Blocks           =            378
    Max Points             =            256
    Max Functions          =             37

   => Loading Basis Set <=

    Name: (CC-PV(D+D)Z AUX)
    Role: JKFIT
    Keyword: DF_BASIS_SCF
    atoms 1 entry CL         line   667 file /work/zw18965/.conda/envs/p4env/share/psi4/basis/cc-pvdz-jkfit.gbs 
    atoms 2 entry F          line   271 file /work/zw18965/.conda/envs/p4env/share/psi4/basis/cc-pvdz-jkfit.gbs 

   => Loading Basis Set <=

    Name: CC-PV(D+D)Z
    Role: ORBITAL
    Keyword: BASIS
    atoms 1 entry CL         line   675 file /work/zw18965/.conda/envs/p4env/share/psi4/basis/cc-pv_dpd_z.gbs 
    atoms 2 entry F          line   237 file /work/zw18965/.conda/envs/p4env/share/psi4/basis/cc-pv_dpd_z.gbs 

  Reading orbitals from file 180, no projection.

  ==> Pre-Iterations <==

   -------------------------------------------------------
    Irrep   Nso     Nmo     Nalpha   Nbeta   Ndocc  Nsocc
   -------------------------------------------------------
     A1        18      18       0       0       0       0
     A2         3       3       0       0       0       0
     B1         8       8       0       0       0       0
     B2         8       8       0       0       0       0
   -------------------------------------------------------
    Total      37      37      13      13      13       0
   -------------------------------------------------------

  ==> Integral Setup <==

  ==> DiskDFJK: Density-Fitted J/K Matrices <==

    J tasked:                  Yes
    K tasked:                  Yes
    wK tasked:                 Yes
    Omega:               3.000E-01
    OpenMP threads:             24
    Integrals threads:          24
    Memory [MiB]:           102891
    Algorithm:                Core
    Integral Cache:           NONE
    Schwarz Cutoff:          1E-12
    Fitting Condition:       1E-10

   => Auxiliary Basis Set <=

  Basis Set: (CC-PV(D+D)Z AUX)
    Blend: CC-PVDZ-JKFIT
    Number of shells: 60
    Number of basis function: 182
    Number of Cartesian functions: 211
    Spherical Harmonics?: true
    Max angular momentum: 3

  Cached 100.0% of DFT collocation blocks in 0.103 [GiB].

  Minimum eigenvalue in the overlap matrix is 5.4694751786E-02.
  Using Symmetric Orthogonalization.

  SCF Guess: Orbitals guess was supplied from a previous computation.

  ==> Iterations <==

                           Total Energy        Delta E     RMS |[F,P]|

   @DF-RKS iter   0:  -559.91318747394234   -5.59913e+02   8.52193e-05 
   @DF-RKS iter   1:  -559.91354921731977   -3.61743e-04   1.57258e-05 DIIS
   @DF-RKS iter   2:  -559.91354924851987   -3.12001e-08   8.81903e-06 DIIS
   @DF-RKS iter   3:  -559.91354925841620   -9.89633e-09   2.11298e-06 DIIS
   @DF-RKS iter   4:  -559.91354925910821   -6.92012e-10   9.19663e-07 DIIS
   @DF-RKS iter   5:  -559.91354925924622   -1.38016e-10   7.50349e-08 DIIS
   @DF-RKS iter   6:  -559.91354925924850   -2.27374e-12   1.67986e-08 DIIS
   @DF-RKS iter   7:  -559.91354925924838    1.13687e-13   2.90277e-09 DIIS
  Energy and wave function converged.


  ==> Post-Iterations <==

    Orbital Energies [Eh]
    ---------------------

    Doubly Occupied:                                                      

       1A1  -101.959493     2A1   -24.962265     3A1    -9.720353  
       4A1    -7.430757     1B1    -7.413248     1B2    -7.413248  
       5A1    -1.362441     6A1    -0.953862     7A1    -0.623917  
       2B1    -0.584246     2B2    -0.584246     3B1    -0.427391  
       3B2    -0.427391  

    Virtual:                                                              

       8A1    -0.015048     9A1     0.568374     4B1     0.615917  
       4B2     0.615917    10A1     0.656503     5B2     0.683551  
       5B1     0.683551    11A1     0.704290     1A2     0.704292  
      12A1     0.892159     6B1     1.319523     6B2     1.319523  
      13A1     1.349259    14A1     2.134370     7B2     3.644282  
       7B1     3.644282     2A2     3.658558    15A1     3.658564  
      16A1     3.800894    17A1     5.288112     3A2     5.288129  
       8B2     5.310827     8B1     5.310827    18A1     5.557529  

    Final Occupation by Irrep:
             A1    A2    B1    B2 
    DOCC [     7,    0,    3,    3 ]

  @DF-RKS Final Energy:  -559.91354925924838

   => Energetics <=

    Nuclear Repulsion Energy =             49.1821278886681839
    One-Electron Energy =                -871.9863749547250791
    Two-Electron Energy =                 292.3158298208399515
    DFT Exchange-Correlation Energy =     -29.5351361483621204
    Empirical Dispersion Energy =           0.0000000000000000
    VV10 Nonlocal Energy =                  0.1100041343306088
    Total Energy =                       -559.9135492592483843

Computation Completed


Properties will be evaluated at   0.000000,   0.000000,   0.000000 [a0]

Properties computed using the SCF density matrix

  Nuclear Dipole Moment: [e a0]
     X:     0.0000      Y:     0.0000      Z:    -0.4757

  Electronic Dipole Moment: [e a0]
     X:     0.0000      Y:     0.0000      Z:     0.0366

  Dipole Moment: [e a0]
     X:     0.0000      Y:     0.0000      Z:    -0.4391     Total:     0.4391

  Dipole Moment: [D]
     X:     0.0000      Y:     0.0000      Z:    -1.1161     Total:     1.1161


*** tstop() called on bp1-compute00099.data.bp.acrc.priv at Tue Apr 27 18:10:33 2021
Module time:
	user time   =      34.29 seconds =       0.57 minutes
	system time =       1.24 seconds =       0.02 minutes
	total time  =          2 seconds =       0.03 minutes
Total time:
	user time   =     213.88 seconds =       3.56 minutes
	system time =       8.59 seconds =       0.14 minutes
	total time  =         10 seconds =       0.17 minutes

  //>>>>>>>>>>>>>>>>>>>>>>>>>>>>>>>>>>>//
  //    Loading displacement 3 of 3    //
  //<<<<<<<<<<<<<<<<<<<<<<<<<<<<<<<<<<<//

*** tstart() called on bp1-compute00099.data.bp.acrc.priv
*** at Tue Apr 27 18:10:33 2021

   => Loading Basis Set <=

    Name: CC-PV(D+D)Z
    Role: ORBITAL
    Keyword: BASIS
    atoms 1 entry CL         line   675 file /work/zw18965/.conda/envs/p4env/share/psi4/basis/cc-pv_dpd_z.gbs 
    atoms 2 entry F          line   237 file /work/zw18965/.conda/envs/p4env/share/psi4/basis/cc-pv_dpd_z.gbs 


         ---------------------------------------------------------
                                   SCF
               by Justin Turney, Rob Parrish, Andy Simmonett
                          and Daniel G. A. Smith
                              RKS Reference
                       24 Threads, 137329 MiB Core
         ---------------------------------------------------------

  ==> Geometry <==

    Molecular point group: c2v
    Full point group: C_inf_v

    Geometry (in Angstrom), charge = 0, multiplicity = 1:

       Center              X                  Y                   Z               Mass       
    ------------   -----------------  -----------------  -----------------  -----------------
         CL           0.000000000000     0.000000000000    -0.578993832690    34.968852682000
         F            0.000000000000     0.000000000000     1.065707989545    18.998403162730

  Running in c2v symmetry.

  Rotational constants: A = ************  B =      0.50624  C =      0.50624 [cm^-1]
  Rotational constants: A = ************  B =  15176.60757  C =  15176.60757 [MHz]
  Nuclear repulsion =   49.227228995505513

  Charge       = 0
  Multiplicity = 1
  Electrons    = 26
  Nalpha       = 13
  Nbeta        = 13

  ==> Algorithm <==

  SCF Algorithm Type is DF.
  DIIS enabled.
  MOM disabled.
  Fractional occupation disabled.
  Guess Type is READ.
  Energy threshold   = 1.00e-08
  Density threshold  = 1.00e-08
  Integral threshold = 0.00e+00

  ==> Primary Basis <==

  Basis Set: CC-PV(D+D)Z
    Blend: CC-PV(D+D)Z
    Number of shells: 15
    Number of basis function: 37
    Number of Cartesian functions: 40
    Spherical Harmonics?: true
    Max angular momentum: 2

  ==> DFT Potential <==

   => Composite Functional: WB97M-V <= 

    wB97M-V Hyb-GGA Exchange-Correlation Functional

    N. Mardirossian and M. Head-Gordon, J. Chem. Phys. 144, 214110 (2016)

    Deriv               =              1
    GGA                 =           TRUE
    Meta                =           TRUE

    Exchange Hybrid     =           TRUE
    MP2 Hybrid          =          FALSE

   => Exchange-Correlation Functionals <=

    1.0000   wB97M-V exchange-correlation functional

   => Exact (HF) Exchange <=

    0.8500            HF,LR [omega = 0.3000]
    0.1500               HF 

   => VV10 Non-Local Parameters <=

    VV10 B              =     6.0000E+00
    VV10 C              =     1.0000E-02

   => Molecular Quadrature <=

    Radial Scheme          =       TREUTLER
    Pruning Scheme         =           FLAT
    Nuclear Scheme         =       TREUTLER

    BS radius alpha        =              1
    Pruning alpha          =              1
    Radial Points          =             75
    Spherical Points       =            302
    Total Points           =          42275
    Total Blocks           =            377
    Max Points             =            256
    Max Functions          =             37

   => Loading Basis Set <=

    Name: (CC-PV(D+D)Z AUX)
    Role: JKFIT
    Keyword: DF_BASIS_SCF
    atoms 1 entry CL         line   667 file /work/zw18965/.conda/envs/p4env/share/psi4/basis/cc-pvdz-jkfit.gbs 
    atoms 2 entry F          line   271 file /work/zw18965/.conda/envs/p4env/share/psi4/basis/cc-pvdz-jkfit.gbs 

   => Loading Basis Set <=

    Name: CC-PV(D+D)Z
    Role: ORBITAL
    Keyword: BASIS
    atoms 1 entry CL         line   675 file /work/zw18965/.conda/envs/p4env/share/psi4/basis/cc-pv_dpd_z.gbs 
    atoms 2 entry F          line   237 file /work/zw18965/.conda/envs/p4env/share/psi4/basis/cc-pv_dpd_z.gbs 

  Reading orbitals from file 180, no projection.

  ==> Pre-Iterations <==

   -------------------------------------------------------
    Irrep   Nso     Nmo     Nalpha   Nbeta   Ndocc  Nsocc
   -------------------------------------------------------
     A1        18      18       0       0       0       0
     A2         3       3       0       0       0       0
     B1         8       8       0       0       0       0
     B2         8       8       0       0       0       0
   -------------------------------------------------------
    Total      37      37      13      13      13       0
   -------------------------------------------------------

  ==> Integral Setup <==

  ==> DiskDFJK: Density-Fitted J/K Matrices <==

    J tasked:                  Yes
    K tasked:                  Yes
    wK tasked:                 Yes
    Omega:               3.000E-01
    OpenMP threads:             24
    Integrals threads:          24
    Memory [MiB]:           102891
    Algorithm:                Core
    Integral Cache:           NONE
    Schwarz Cutoff:          1E-12
    Fitting Condition:       1E-10

   => Auxiliary Basis Set <=

  Basis Set: (CC-PV(D+D)Z AUX)
    Blend: CC-PVDZ-JKFIT
    Number of shells: 60
    Number of basis function: 182
    Number of Cartesian functions: 211
    Spherical Harmonics?: true
    Max angular momentum: 3

  Cached 100.0% of DFT collocation blocks in 0.103 [GiB].

  Minimum eigenvalue in the overlap matrix is 5.4591442092E-02.
  Using Symmetric Orthogonalization.

  SCF Guess: Orbitals guess was supplied from a previous computation.

  ==> Iterations <==

                           Total Energy        Delta E     RMS |[F,P]|

   @DF-RKS iter   0:  -559.91390230258935   -5.59914e+02   8.54034e-05 
   @DF-RKS iter   1:  -559.91353935711334    3.62945e-04   1.57401e-05 DIIS
   @DF-RKS iter   2:  -559.91353938838085   -3.12675e-08   8.82485e-06 DIIS
   @DF-RKS iter   3:  -559.91353939828878   -9.90792e-09   2.11180e-06 DIIS
   @DF-RKS iter   4:  -559.91353939897976   -6.90989e-10   9.19114e-07 DIIS
   @DF-RKS iter   5:  -559.91353939911733   -1.37561e-10   7.49927e-08 DIIS
   @DF-RKS iter   6:  -559.91353939911983   -2.50111e-12   1.68363e-08 DIIS
   @DF-RKS iter   7:  -559.91353939911994   -1.13687e-13   2.91453e-09 DIIS
  Energy and wave function converged.


  ==> Post-Iterations <==

    Orbital Energies [Eh]
    ---------------------

    Doubly Occupied:                                                      

       1A1  -101.959372     2A1   -24.962281     3A1    -9.720259  
       4A1    -7.430664     1B2    -7.413150     1B1    -7.413150  
       5A1    -1.362975     6A1    -0.953747     7A1    -0.624187  
       2B1    -0.584566     2B2    -0.584566     3B1    -0.427210  
       3B2    -0.427210  

    Virtual:                                                              

       8A1    -0.014440     9A1     0.568501     4B1     0.615875  
       4B2     0.615875    10A1     0.656556     5B2     0.683748  
       5B1     0.683748    11A1     0.704332     1A2     0.704334  
      12A1     0.892640     6B2     1.319595     6B1     1.319595  
      13A1     1.349128    14A1     2.134938     7B2     3.644237  
       7B1     3.644237     2A2     3.658355    15A1     3.658360  
      16A1     3.802119    17A1     5.288197     3A2     5.288214  
       8B2     5.311234     8B1     5.311234    18A1     5.558321  

    Final Occupation by Irrep:
             A1    A2    B1    B2 
    DOCC [     7,    0,    3,    3 ]

  @DF-RKS Final Energy:  -559.91353939911994

   => Energetics <=

    Nuclear Repulsion Energy =             49.2272289955055129
    One-Electron Energy =                -872.0752675535329672
    Two-Electron Energy =                 292.3601976124176645
    DFT Exchange-Correlation Energy =     -29.5356999821995316
    Empirical Dispersion Energy =           0.0000000000000000
    VV10 Nonlocal Energy =                  0.1100015286894336
    Total Energy =                       -559.9135393991199408

Computation Completed


Properties will be evaluated at   0.000000,   0.000000,   0.000000 [a0]

Properties computed using the SCF density matrix

  Nuclear Dipole Moment: [e a0]
     X:     0.0000      Y:     0.0000      Z:    -0.4753

  Electronic Dipole Moment: [e a0]
     X:     0.0000      Y:     0.0000      Z:     0.0375

  Dipole Moment: [e a0]
     X:     0.0000      Y:     0.0000      Z:    -0.4378     Total:     0.4378

  Dipole Moment: [D]
     X:     0.0000      Y:     0.0000      Z:    -1.1129     Total:     1.1129


*** tstop() called on bp1-compute00099.data.bp.acrc.priv at Tue Apr 27 18:10:34 2021
Module time:
	user time   =      33.79 seconds =       0.56 minutes
	system time =       1.30 seconds =       0.02 minutes
	total time  =          1 seconds =       0.02 minutes
Total time:
	user time   =     247.81 seconds =       4.13 minutes
	system time =       9.90 seconds =       0.17 minutes
	total time  =         11 seconds =       0.18 minutes

         ----------------------------------------------------------
                                   FINDIF
                     R. A. King and Jonathon Misiewicz
         ---------------------------------------------------------

  Computing gradient from energies.
    Using 3-point formula.
    Energy without displacement: -559.9135446444
    Check energies below for precision!
    Forces are for mass-weighted, symmetry-adapted cartesians (in au).

     Coord      Energy(-1)        Energy(+1)            Force
        0   -559.9135492592   -559.9135393991      0.0009860128


-------------------------------------------------------------
  ## New Matrix (Symmetry 0) ##
  Irrep: 1 Size: 2 x 3

                 1                   2                   3

    1     0.00000000000000     0.00000000000000     0.00345952637650
    2     0.00000000000000     0.00000000000000    -0.00345952637650




			-----------------------------------------
			 OPTKING 2.0: for geometry optimizations 
			  - R.A. King,  Bethel University        
			-----------------------------------------
	At level 1: Red. Int., RFO, no backsteps, dynamic trust

	Previous internal coordinate definitions found.
	---Fragment 1 Geometry and Gradient---
	 CL          0.0000000000        0.0000000000       -1.0946414474
	 F           0.0000000000        0.0000000000        2.0148196238
	             0.0000000000        0.0000000000        0.0034595264
	             0.0000000000        0.0000000000       -0.0034595264

	---Fragment 1 Intrafragment Coordinates---
	 - Coordinate -           - BOHR/RAD -       - ANG/DEG -
	 R(1,2)           =         3.109461	       1.645456

	Current energy   :      -559.9135446444

	Energy change for the previous step:
		Projected    :         0.0000294744
		Actual       :        -0.0001945214

	Performing BFGS update.
	Previous computed or guess Hessian on step 1.
	Steps to be used in Hessian update: 1
	Taking RFO optimization step.
	Going to follow RFO solution 1.
	Using RFO vector 1.
	Norm of target step-size    0.01077
	Projected energy change by RFO approximation:         0.0000207130

	Back-transformation to cartesian coordinates...
	Successfully converged to displaced geometry.

	--- Internal Coordinate Step in ANG or DEG, aJ/ANG or AJ/DEG ---
	 ---------------------------------------------------------------------------
	   Coordinate                Previous        Force       Change         New 
	   ----------                --------       ------       ------       ------
	    1 R(1,2)          =      1.645456     0.028502     0.005698     1.651154
	 ---------------------------------------------------------------------------
	Successfully symmetrized geometry.

  ==> Convergence Check <==

  Measures of convergence in internal coordinates in au.
  Criteria marked as inactive (o), active & met (*), and active & unmet ( ).
  ---------------------------------------------------------------------------------------------
   Step     Total Energy     Delta E     MAX Force     RMS Force      MAX Disp      RMS Disp   
  ---------------------------------------------------------------------------------------------
    Convergence Criteria    1.00e-06 *    3.00e-04 *             o    1.20e-03 *             o
  ---------------------------------------------------------------------------------------------
      2    -559.91354464   -1.95e-04      3.46e-03      3.46e-03 o    1.08e-02      1.08e-02 o  ~
  ---------------------------------------------------------------------------------------------

	Writing optimization data to binary file.
	Structure for next step:
	Cartesian Geometry (in Angstrom)
	   CL     0.0000000000   0.0000000000  -0.5821081300
	    F     0.0000000000   0.0000000000   1.0690454488
			--------------------------
			 OPTKING Finished Execution 
			--------------------------

    Structure for next step:
    Molecular point group: c2v
    Full point group: C_inf_v

    Geometry (in Angstrom), charge = 0, multiplicity = 1:

    CL           0.000000000000     0.000000000000    -0.581265083942
    F            0.000000000000     0.000000000000     1.069888501442

gradient() will perform gradient computation by finite difference of analytic energies.

         ----------------------------------------------------------
                                   FINDIF
                     R. A. King and Jonathon Misiewicz
         ---------------------------------------------------------

  Using finite-differences of energies to determine gradients.
    Generating geometries for use with 3-point formula.
    Displacement size will be 5.00e-03.
    Number of atoms is 2.
    Number of symmetric SALCs is 1.
    Translations projected? 1. Rotations projected? 1.
    Number of geometries (including reference) is 3.

  //>>>>>>>>>>>>>>>>>>>>>>>>>>>>>>>>>>>//
  //    Loading displacement 1 of 3    //
  //<<<<<<<<<<<<<<<<<<<<<<<<<<<<<<<<<<<//

*** tstart() called on bp1-compute00099.data.bp.acrc.priv
*** at Tue Apr 27 18:10:34 2021

   => Loading Basis Set <=

    Name: CC-PV(D+D)Z
    Role: ORBITAL
    Keyword: BASIS
    atoms 1 entry CL         line   675 file /work/zw18965/.conda/envs/p4env/share/psi4/basis/cc-pv_dpd_z.gbs 
    atoms 2 entry F          line   237 file /work/zw18965/.conda/envs/p4env/share/psi4/basis/cc-pv_dpd_z.gbs 


         ---------------------------------------------------------
                                   SCF
               by Justin Turney, Rob Parrish, Andy Simmonett
                          and Daniel G. A. Smith
                              RKS Reference
                       24 Threads, 137329 MiB Core
         ---------------------------------------------------------

  ==> Geometry <==

    Molecular point group: c2v
    Full point group: C_inf_v

    Geometry (in Angstrom), charge = 0, multiplicity = 1:

       Center              X                  Y                   Z               Mass       
    ------------   -----------------  -----------------  -----------------  -----------------
         CL           0.000000000000     0.000000000000    -0.581265083942    34.968852682000
         F            0.000000000000     0.000000000000     1.069888501442    18.998403162730

  Running in c2v symmetry.

  Rotational constants: A = ************  B =      0.50229  C =      0.50229 [cm^-1]
  Rotational constants: A = ************  B =  15058.23630  C =  15058.23630 [MHz]
  Nuclear repulsion =   49.034877160535132

  Charge       = 0
  Multiplicity = 1
  Electrons    = 26
  Nalpha       = 13
  Nbeta        = 13

  ==> Algorithm <==

  SCF Algorithm Type is DF.
  DIIS enabled.
  MOM disabled.
  Fractional occupation disabled.
  Guess Type is READ.
  Energy threshold   = 1.00e-08
  Density threshold  = 1.00e-08
  Integral threshold = 0.00e+00

  ==> Primary Basis <==

  Basis Set: CC-PV(D+D)Z
    Blend: CC-PV(D+D)Z
    Number of shells: 15
    Number of basis function: 37
    Number of Cartesian functions: 40
    Spherical Harmonics?: true
    Max angular momentum: 2

  ==> DFT Potential <==

   => Composite Functional: WB97M-V <= 

    wB97M-V Hyb-GGA Exchange-Correlation Functional

    N. Mardirossian and M. Head-Gordon, J. Chem. Phys. 144, 214110 (2016)

    Deriv               =              1
    GGA                 =           TRUE
    Meta                =           TRUE

    Exchange Hybrid     =           TRUE
    MP2 Hybrid          =          FALSE

   => Exchange-Correlation Functionals <=

    1.0000   wB97M-V exchange-correlation functional

   => Exact (HF) Exchange <=

    0.8500            HF,LR [omega = 0.3000]
    0.1500               HF 

   => VV10 Non-Local Parameters <=

    VV10 B              =     6.0000E+00
    VV10 C              =     1.0000E-02

   => Molecular Quadrature <=

    Radial Scheme          =       TREUTLER
    Pruning Scheme         =           FLAT
    Nuclear Scheme         =       TREUTLER

    BS radius alpha        =              1
    Pruning alpha          =              1
    Radial Points          =             75
    Spherical Points       =            302
    Total Points           =          42275
    Total Blocks           =            378
    Max Points             =            256
    Max Functions          =             37

   => Loading Basis Set <=

    Name: (CC-PV(D+D)Z AUX)
    Role: JKFIT
    Keyword: DF_BASIS_SCF
    atoms 1 entry CL         line   667 file /work/zw18965/.conda/envs/p4env/share/psi4/basis/cc-pvdz-jkfit.gbs 
    atoms 2 entry F          line   271 file /work/zw18965/.conda/envs/p4env/share/psi4/basis/cc-pvdz-jkfit.gbs 

   => Loading Basis Set <=

    Name: CC-PV(D+D)Z
    Role: ORBITAL
    Keyword: BASIS
    atoms 1 entry CL         line   675 file /work/zw18965/.conda/envs/p4env/share/psi4/basis/cc-pv_dpd_z.gbs 
    atoms 2 entry F          line   237 file /work/zw18965/.conda/envs/p4env/share/psi4/basis/cc-pv_dpd_z.gbs 

  Reading orbitals from file 180, no projection.

  ==> Pre-Iterations <==

   -------------------------------------------------------
    Irrep   Nso     Nmo     Nalpha   Nbeta   Ndocc  Nsocc
   -------------------------------------------------------
     A1        18      18       0       0       0       0
     A2         3       3       0       0       0       0
     B1         8       8       0       0       0       0
     B2         8       8       0       0       0       0
   -------------------------------------------------------
    Total      37      37      13      13      13       0
   -------------------------------------------------------

  ==> Integral Setup <==

  ==> DiskDFJK: Density-Fitted J/K Matrices <==

    J tasked:                  Yes
    K tasked:                  Yes
    wK tasked:                 Yes
    Omega:               3.000E-01
    OpenMP threads:             24
    Integrals threads:          24
    Memory [MiB]:           102891
    Algorithm:                Core
    Integral Cache:           NONE
    Schwarz Cutoff:          1E-12
    Fitting Condition:       1E-10

   => Auxiliary Basis Set <=

  Basis Set: (CC-PV(D+D)Z AUX)
    Blend: CC-PVDZ-JKFIT
    Number of shells: 60
    Number of basis function: 182
    Number of Cartesian functions: 211
    Spherical Harmonics?: true
    Max angular momentum: 3

  Cached 100.0% of DFT collocation blocks in 0.103 [GiB].

  Minimum eigenvalue in the overlap matrix is 5.5033587204E-02.
  Using Symmetric Orthogonalization.

  SCF Guess: Orbitals guess was supplied from a previous computation.

  ==> Iterations <==

                           Total Energy        Delta E     RMS |[F,P]|

   @DF-RKS iter   0:  -559.91085809568074   -5.59911e+02   6.39329e-04 
   @DF-RKS iter   1:  -559.91356168302320   -2.70359e-03   1.18459e-04 DIIS
   @DF-RKS iter   2:  -559.91356345134682   -1.76832e-06   6.64823e-05 DIIS
   @DF-RKS iter   3:  -559.91356401409291   -5.62746e-07   1.59923e-05 DIIS
   @DF-RKS iter   4:  -559.91356405371107   -3.96182e-08   6.96190e-06 DIIS
   @DF-RKS iter   5:  -559.91356406160776   -7.89669e-09   5.67966e-07 DIIS
   @DF-RKS iter   6:  -559.91356406173998   -1.32218e-10   1.25978e-07 DIIS
   @DF-RKS iter   7:  -559.91356406174327   -3.29692e-12   2.16375e-08 DIIS
   @DF-RKS iter   8:  -559.91356406174327    0.00000e+00   7.24030e-09 DIIS
  Energy and wave function converged.


  ==> Post-Iterations <==

    Orbital Energies [Eh]
    ---------------------

    Doubly Occupied:                                                      

       1A1  -101.959888     2A1   -24.962212     3A1    -9.720660  
       4A1    -7.431062     1B1    -7.413568     1B2    -7.413568  
       5A1    -1.360709     6A1    -0.954233     7A1    -0.623032  
       2B2    -0.583208     2B1    -0.583208     3B2    -0.427981  
       3B1    -0.427981  

    Virtual:                                                              

       8A1    -0.017033     9A1     0.567971     4B1     0.616050  
       4B2     0.616050    10A1     0.656330     5B2     0.682914  
       5B1     0.682914    11A1     0.704155     1A2     0.704157  
      12A1     0.890583     6B2     1.319279     6B1     1.319279  
      13A1     1.349686    14A1     2.132488     7B1     3.644435  
       7B2     3.644435     2A2     3.659218    15A1     3.659225  
      16A1     3.796945    17A1     5.287833     3A2     5.287849  
       8B1     5.309505     8B2     5.309505    18A1     5.554910  

    Final Occupation by Irrep:
             A1    A2    B1    B2 
    DOCC [     7,    0,    3,    3 ]

  @DF-RKS Final Energy:  -559.91356406174327

   => Energetics <=

    Nuclear Repulsion Energy =             49.0348771605351317
    One-Electron Energy =                -871.6960755195295860
    Two-Electron Energy =                 292.1709228939593004
    DFT Exchange-Correlation Energy =     -29.5333012764011471
    Empirical Dispersion Energy =           0.0000000000000000
    VV10 Nonlocal Energy =                  0.1100126796929486
    Total Energy =                       -559.9135640617432728

Computation Completed


Properties will be evaluated at   0.000000,   0.000000,   0.000000 [a0]

Properties computed using the SCF density matrix

  Nuclear Dipole Moment: [e a0]
     X:     0.0000      Y:     0.0000      Z:    -0.4772

  Electronic Dipole Moment: [e a0]
     X:     0.0000      Y:     0.0000      Z:     0.0339

  Dipole Moment: [e a0]
     X:     0.0000      Y:     0.0000      Z:    -0.4433     Total:     0.4433

  Dipole Moment: [D]
     X:     0.0000      Y:     0.0000      Z:    -1.1267     Total:     1.1267


*** tstop() called on bp1-compute00099.data.bp.acrc.priv at Tue Apr 27 18:10:36 2021
Module time:
	user time   =      33.89 seconds =       0.56 minutes
	system time =       1.13 seconds =       0.02 minutes
	total time  =          2 seconds =       0.03 minutes
Total time:
	user time   =     282.00 seconds =       4.70 minutes
	system time =      11.05 seconds =       0.18 minutes
	total time  =         13 seconds =       0.22 minutes

  //>>>>>>>>>>>>>>>>>>>>>>>>>>>>>>>>>>>//
  //    Loading displacement 2 of 3    //
  //<<<<<<<<<<<<<<<<<<<<<<<<<<<<<<<<<<<//

*** tstart() called on bp1-compute00099.data.bp.acrc.priv
*** at Tue Apr 27 18:10:36 2021

   => Loading Basis Set <=

    Name: CC-PV(D+D)Z
    Role: ORBITAL
    Keyword: BASIS
    atoms 1 entry CL         line   675 file /work/zw18965/.conda/envs/p4env/share/psi4/basis/cc-pv_dpd_z.gbs 
    atoms 2 entry F          line   237 file /work/zw18965/.conda/envs/p4env/share/psi4/basis/cc-pv_dpd_z.gbs 


         ---------------------------------------------------------
                                   SCF
               by Justin Turney, Rob Parrish, Andy Simmonett
                          and Daniel G. A. Smith
                              RKS Reference
                       24 Threads, 137329 MiB Core
         ---------------------------------------------------------

  ==> Geometry <==

    Molecular point group: c2v
    Full point group: C_inf_v

    Geometry (in Angstrom), charge = 0, multiplicity = 1:

       Center              X                  Y                   Z               Mass       
    ------------   -----------------  -----------------  -----------------  -----------------
         CL           0.000000000000     0.000000000000    -0.581530559063    34.968852682000
         F            0.000000000000     0.000000000000     1.070377140425    18.998403162730

  Running in c2v symmetry.

  Rotational constants: A = ************  B =      0.50183  C =      0.50183 [cm^-1]
  Rotational constants: A = ************  B =  15044.49093  C =  15044.49093 [MHz]
  Nuclear repulsion =   49.012492197706607

  Charge       = 0
  Multiplicity = 1
  Electrons    = 26
  Nalpha       = 13
  Nbeta        = 13

  ==> Algorithm <==

  SCF Algorithm Type is DF.
  DIIS enabled.
  MOM disabled.
  Fractional occupation disabled.
  Guess Type is READ.
  Energy threshold   = 1.00e-08
  Density threshold  = 1.00e-08
  Integral threshold = 0.00e+00

  ==> Primary Basis <==

  Basis Set: CC-PV(D+D)Z
    Blend: CC-PV(D+D)Z
    Number of shells: 15
    Number of basis function: 37
    Number of Cartesian functions: 40
    Spherical Harmonics?: true
    Max angular momentum: 2

  ==> DFT Potential <==

   => Composite Functional: WB97M-V <= 

    wB97M-V Hyb-GGA Exchange-Correlation Functional

    N. Mardirossian and M. Head-Gordon, J. Chem. Phys. 144, 214110 (2016)

    Deriv               =              1
    GGA                 =           TRUE
    Meta                =           TRUE

    Exchange Hybrid     =           TRUE
    MP2 Hybrid          =          FALSE

   => Exchange-Correlation Functionals <=

    1.0000   wB97M-V exchange-correlation functional

   => Exact (HF) Exchange <=

    0.8500            HF,LR [omega = 0.3000]
    0.1500               HF 

   => VV10 Non-Local Parameters <=

    VV10 B              =     6.0000E+00
    VV10 C              =     1.0000E-02

   => Molecular Quadrature <=

    Radial Scheme          =       TREUTLER
    Pruning Scheme         =           FLAT
    Nuclear Scheme         =       TREUTLER

    BS radius alpha        =              1
    Pruning alpha          =              1
    Radial Points          =             75
    Spherical Points       =            302
    Total Points           =          42275
    Total Blocks           =            377
    Max Points             =            256
    Max Functions          =             37

   => Loading Basis Set <=

    Name: (CC-PV(D+D)Z AUX)
    Role: JKFIT
    Keyword: DF_BASIS_SCF
    atoms 1 entry CL         line   667 file /work/zw18965/.conda/envs/p4env/share/psi4/basis/cc-pvdz-jkfit.gbs 
    atoms 2 entry F          line   271 file /work/zw18965/.conda/envs/p4env/share/psi4/basis/cc-pvdz-jkfit.gbs 

   => Loading Basis Set <=

    Name: CC-PV(D+D)Z
    Role: ORBITAL
    Keyword: BASIS
    atoms 1 entry CL         line   675 file /work/zw18965/.conda/envs/p4env/share/psi4/basis/cc-pv_dpd_z.gbs 
    atoms 2 entry F          line   237 file /work/zw18965/.conda/envs/p4env/share/psi4/basis/cc-pv_dpd_z.gbs 

  Reading orbitals from file 180, no projection.

  ==> Pre-Iterations <==

   -------------------------------------------------------
    Irrep   Nso     Nmo     Nalpha   Nbeta   Ndocc  Nsocc
   -------------------------------------------------------
     A1        18      18       0       0       0       0
     A2         3       3       0       0       0       0
[...]

  ==> Iterations <==

                           Total Energy        Delta E     RMS |[F,P]|

   @DF-RKS iter SAD:  -559.64454794147832   -5.59645e+02   0.00000e+00 
   @DF-RKS iter   1:  -559.89516711725082   -2.50619e-01   1.05339e-02 DIIS
   @DF-RKS iter   2:  -559.90727091975714   -1.21038e-02   6.85903e-03 DIIS
   @DF-RKS iter   3:  -559.91288429498047   -5.61338e-03   2.10315e-03 DIIS
   @DF-RKS iter   4:  -559.91353979300357   -6.55498e-04   3.46452e-04 DIIS
   @DF-RKS iter   5:  -559.91356303713064   -2.32441e-05   7.04148e-05 DIIS
   @DF-RKS iter   6:  -559.91356395928938   -9.22159e-07   8.69069e-06 DIIS
   @DF-RKS iter   7:  -559.91356398702646   -2.77371e-08   1.87871e-06 DIIS
   @DF-RKS iter   8:  -559.91356398816617   -1.13971e-09   6.16927e-07 DIIS
   @DF-RKS iter   9:  -559.91356398825167   -8.54925e-11   3.54761e-08 DIIS
   @DF-RKS iter  10:  -559.91356398825246   -7.95808e-13   5.08190e-09 DIIS
   @DF-RKS iter  11:  -559.91356398825235    1.13687e-13   6.14344e-10 DIIS
   @DF-RKS iter  12:  -559.91356398825201    3.41061e-13   5.40595e-11 DIIS
  Energy and wave function converged.


  ==> Post-Iterations <==

    Orbital Energies [Eh]
    ---------------------

    Doubly Occupied:                                                      

       1A1  -101.959948     2A1   -24.962204     3A1    -9.720706  
       4A1    -7.431109     1B1    -7.413617     1B2    -7.413617  
       5A1    -1.360447     6A1    -0.954290     7A1    -0.622898  
       2B2    -0.583051     2B1    -0.583051     3B1    -0.428071  
       3B2    -0.428071  

    Virtual:                                                              

       8A1    -0.017334     9A1     0.567912     4B1     0.616070  
       4B2     0.616070    10A1     0.656304     5B2     0.682818  
       5B1     0.682818    11A1     0.704134     1A2     0.704136  
      12A1     0.890343     6B2     1.319241     6B1     1.319241  
      13A1     1.349751    14A1     2.132198     7B1     3.644459  
       7B2     3.644459     2A2     3.659318    15A1     3.659324  
      16A1     3.796351    17A1     5.287790     3A2     5.287807  
       8B2     5.309305     8B1     5.309305    18A1     5.554507  

    Final Occupation by Irrep:
             A1    A2    B1    B2 
    DOCC [     7,    0,    3,    3 ]

  @DF-RKS Final Energy:  -559.91356398825201

   => Energetics <=

    Nuclear Repulsion Energy =             49.0124921977066137
    One-Electron Energy =                -871.6519338088766062
    Two-Electron Energy =                 292.1488867538139402
    DFT Exchange-Correlation Energy =     -29.5330231147024378
    Empirical Dispersion Energy =           0.0000000000000000
    VV10 Nonlocal Energy =                  0.1100139838064503
    Total Energy =                       -559.9135639882521218

Computation Completed


Properties will be evaluated at   0.000000,   0.000000,   0.000000 [a0]

Properties computed using the SCF density matrix

  Nuclear Dipole Moment: [e a0]
     X:     0.0000      Y:     0.0000      Z:    -0.4774

  Electronic Dipole Moment: [e a0]
     X:     0.0000      Y:     0.0000      Z:     0.0335

  Dipole Moment: [e a0]
     X:     0.0000      Y:     0.0000      Z:    -0.4439     Total:     0.4439

  Dipole Moment: [D]
     X:     0.0000      Y:     0.0000      Z:    -1.1283     Total:     1.1283


*** tstop() called on bp1-compute00099.data.bp.acrc.priv at Tue Apr 27 18:10:50 2021
Module time:
	user time   =      48.94 seconds =       0.82 minutes
	system time =       1.80 seconds =       0.03 minutes
	total time  =          3 seconds =       0.05 minutes
Total time:
	user time   =     588.91 seconds =       9.82 minutes
	system time =      22.31 seconds =       0.37 minutes
	total time  =         27 seconds =       0.45 minutes

  //>>>>>>>>>>>>>>>>>>>>>>>>>>>>>>>>>>>//
  //    Loading displacement 3 of 3    //
  //<<<<<<<<<<<<<<<<<<<<<<<<<<<<<<<<<<<//

*** tstart() called on bp1-compute00099.data.bp.acrc.priv
*** at Tue Apr 27 18:10:50 2021

   => Loading Basis Set <=

    Name: CC-PV(D+D)Z
    Role: ORBITAL
    Keyword: BASIS
    atoms 1 entry CL         line   675 file /work/zw18965/.conda/envs/p4env/share/psi4/basis/cc-pv_dpd_z.gbs 
    atoms 2 entry F          line   237 file /work/zw18965/.conda/envs/p4env/share/psi4/basis/cc-pv_dpd_z.gbs 


         ---------------------------------------------------------
                                   SCF
               by Justin Turney, Rob Parrish, Andy Simmonett
                          and Daniel G. A. Smith
                              RKS Reference
                       24 Threads, 137329 MiB Core
         ---------------------------------------------------------

  ==> Geometry <==

    Molecular point group: c2v
    Full point group: C_inf_v

    Geometry (in Angstrom), charge = 0, multiplicity = 1:

       Center              X                  Y                   Z               Mass       
    ------------   -----------------  -----------------  -----------------  -----------------
         CL           0.000000000000     0.000000000000    -0.580999608821    34.968852682000
         F            0.000000000000     0.000000000000     1.069399862459    18.998403162730

  Running in c2v symmetry.

  Rotational constants: A = ************  B =      0.50275  C =      0.50275 [cm^-1]
  Rotational constants: A = ************  B =  15072.00051  C =  15072.00051 [MHz]
  Nuclear repulsion =   49.057282580006394

  Charge       = 0
  Multiplicity = 1
  Electrons    = 26
  Nalpha       = 13
  Nbeta        = 13

  ==> Algorithm <==

  SCF Algorithm Type is DF.
  DIIS enabled.
  MOM disabled.
  Fractional occupation disabled.
  Guess Type is SAD.
  Energy threshold   = 1.00e-10
  Density threshold  = 1.00e-10
  Integral threshold = 0.00e+00

  ==> Primary Basis <==

  Basis Set: CC-PV(D+D)Z
    Blend: CC-PV(D+D)Z
    Number of shells: 15
    Number of basis function: 37
    Number of Cartesian functions: 40
    Spherical Harmonics?: true
    Max angular momentum: 2

  ==> DFT Potential <==

   => Composite Functional: WB97M-V <= 

    wB97M-V Hyb-GGA Exchange-Correlation Functional

    N. Mardirossian and M. Head-Gordon, J. Chem. Phys. 144, 214110 (2016)

    Deriv               =              1
    GGA                 =           TRUE
    Meta                =           TRUE

    Exchange Hybrid     =           TRUE
    MP2 Hybrid          =          FALSE

   => Exchange-Correlation Functionals <=

    1.0000   wB97M-V exchange-correlation functional

   => Exact (HF) Exchange <=

    0.8500            HF,LR [omega = 0.3000]
    0.1500               HF 

   => VV10 Non-Local Parameters <=

    VV10 B              =     6.0000E+00
    VV10 C              =     1.0000E-02

   => Molecular Quadrature <=

    Radial Scheme          =       TREUTLER
    Pruning Scheme         =           FLAT
    Nuclear Scheme         =       TREUTLER

    BS radius alpha        =              1
    Pruning alpha          =              1
    Radial Points          =             75
    Spherical Points       =            302
    Total Points           =          42275
    Total Blocks           =            378
    Max Points             =            256
    Max Functions          =             37

   => Loading Basis Set <=

    Name: (CC-PV(D+D)Z AUX)
    Role: JKFIT
    Keyword: DF_BASIS_SCF
    atoms 1 entry CL         line   667 file /work/zw18965/.conda/envs/p4env/share/psi4/basis/cc-pvdz-jkfit.gbs 
    atoms 2 entry F          line   271 file /work/zw18965/.conda/envs/p4env/share/psi4/basis/cc-pvdz-jkfit.gbs 

  ==> Pre-Iterations <==

   -------------------------------------------------------
    Irrep   Nso     Nmo     Nalpha   Nbeta   Ndocc  Nsocc
   -------------------------------------------------------
     A1        18      18       0       0       0       0
     A2         3       3       0       0       0       0
     B1         8       8       0       0       0       0
     B2         8       8       0       0       0       0
   -------------------------------------------------------
    Total      37      37      13      13      13       0
   -------------------------------------------------------

  ==> Integral Setup <==

  ==> DiskDFJK: Density-Fitted J/K Matrices <==

    J tasked:                  Yes
    K tasked:                  Yes
    wK tasked:                 Yes
    Omega:               3.000E-01
    OpenMP threads:             24
    Integrals threads:          24
    Memory [MiB]:           102891
    Algorithm:                Core
    Integral Cache:           NONE
    Schwarz Cutoff:          1E-12
    Fitting Condition:       1E-10

   => Auxiliary Basis Set <=

  Basis Set: (CC-PV(D+D)Z AUX)
    Blend: CC-PVDZ-JKFIT
    Number of shells: 60
    Number of basis function: 182
    Number of Cartesian functions: 211
    Spherical Harmonics?: true
    Max angular momentum: 3

  Cached 100.0% of DFT collocation blocks in 0.103 [GiB].

  Minimum eigenvalue in the overlap matrix is 5.4981878509E-02.
  Using Symmetric Orthogonalization.

  SCF Guess: Superposition of Atomic Densities via on-the-fly atomic UHF.

  ==> Iterations <==

                           Total Energy        Delta E     RMS |[F,P]|

   @DF-RKS iter SAD:  -559.64663073875067   -5.59647e+02   0.00000e+00 
   @DF-RKS iter   1:  -559.89513567941708   -2.48505e-01   1.05422e-02 DIIS
   @DF-RKS iter   2:  -559.90730910332957   -1.21734e-02   6.84186e-03 DIIS
   @DF-RKS iter   3:  -559.91288714476707   -5.57804e-03   2.09829e-03 DIIS
   @DF-RKS iter   4:  -559.91353917540573   -6.52031e-04   3.47524e-04 DIIS
   @DF-RKS iter   5:  -559.91356256757103   -2.33922e-05   7.04811e-05 DIIS
   @DF-RKS iter   6:  -559.91356349314924   -9.25578e-07   8.73606e-06 DIIS
   @DF-RKS iter   7:  -559.91356352118135   -2.80321e-08   1.88914e-06 DIIS
   @DF-RKS iter   8:  -559.91356352233322   -1.15188e-09   6.18016e-07 DIIS
   @DF-RKS iter   9:  -559.91356352241894   -8.57199e-11   3.55025e-08 DIIS
   @DF-RKS iter  10:  -559.91356352241951   -5.68434e-13   5.07275e-09 DIIS
   @DF-RKS iter  11:  -559.91356352241928    2.27374e-13   6.15406e-10 DIIS
   @DF-RKS iter  12:  -559.91356352241962   -3.41061e-13   5.38796e-11 DIIS
  Energy and wave function converged.


  ==> Post-Iterations <==

    Orbital Energies [Eh]
    ---------------------

    Doubly Occupied:                                                      

       1A1  -101.959828     2A1   -24.962220     3A1    -9.720613  
       4A1    -7.431016     1B2    -7.413519     1B1    -7.413519  
       5A1    -1.360971     6A1    -0.954177     7A1    -0.623167  
       2B1    -0.583365     2B2    -0.583365     3B1    -0.427891  
       3B2    -0.427891  

    Virtual:                                                              

       8A1    -0.016730     9A1     0.568031     4B1     0.616030  
       4B2     0.616030    10A1     0.656357     5B1     0.683011  
       5B2     0.683011    11A1     0.704175     1A2     0.704178  
      12A1     0.890823     6B1     1.319317     6B2     1.319317  
      13A1     1.349621    14A1     2.132778     7B1     3.644412  
       7B2     3.644412     2A2     3.659118    15A1     3.659124  
      16A1     3.797541    17A1     5.287875     3A2     5.287892  
       8B2     5.309706     8B1     5.309706    18A1     5.555312  

    Final Occupation by Irrep:
             A1    A2    B1    B2 
    DOCC [     7,    0,    3,    3 ]

  @DF-RKS Final Energy:  -559.91356352241962

   => Energetics <=

    Nuclear Repulsion Energy =             49.0572825800063939
    One-Electron Energy =                -871.7402545259797080
    Two-Electron Energy =                 292.1929769528193219
    DFT Exchange-Correlation Energy =     -29.5335799049533989
    Empirical Dispersion Energy =           0.0000000000000000
    VV10 Nonlocal Energy =                  0.1100113756877806
    Total Energy =                       -559.9135635224196221

Computation Completed


Properties will be evaluated at   0.000000,   0.000000,   0.000000 [a0]

Properties computed using the SCF density matrix

  Nuclear Dipole Moment: [e a0]
     X:     0.0000      Y:     0.0000      Z:    -0.4770

  Electronic Dipole Moment: [e a0]
     X:     0.0000      Y:     0.0000      Z:     0.0343

  Dipole Moment: [e a0]
     X:     0.0000      Y:     0.0000      Z:    -0.4426     Total:     0.4426

  Dipole Moment: [D]
     X:     0.0000      Y:     0.0000      Z:    -1.1251     Total:     1.1251


*** tstop() called on bp1-compute00099.data.bp.acrc.priv at Tue Apr 27 18:10:52 2021
Module time:
	user time   =      48.57 seconds =       0.81 minutes
	system time =       1.75 seconds =       0.03 minutes
	total time  =          2 seconds =       0.03 minutes
Total time:
	user time   =     637.61 seconds =      10.63 minutes
	system time =      24.07 seconds =       0.40 minutes
	total time  =         29 seconds =       0.48 minutes

         ----------------------------------------------------------
                                   FINDIF
                     R. A. King and Jonathon Misiewicz
         ---------------------------------------------------------

  Computing second-derivative from energies using projected, 
  symmetry-adapted, cartesian coordinates.

  3 energies passed in, including the reference geometry.
    Using 3-point formula.
    Energy without displacement: -559.9135640617
    Check energies below for precision!
    0: -1 :      -559.9135639883
    0: 1  :      -559.9135635224

-------------------------------------------------------------


  ==> Harmonic Vibrational Analysis <==

  non-mass-weighted Hessian:       Symmetric? True   Hermitian? True   Lin Dep Dim?  5 (0)
  projection of translations (True) and rotations (True) removed 5 degrees of freedom (5)
  total projector:                 Symmetric? True   Hermitian? True   Lin Dep Dim?  5 (5)
  mass-weighted Hessian:           Symmetric? True   Hermitian? True   Lin Dep Dim?  5 (0)
  pre-proj  low-frequency mode:    0.0000i [cm^-1]
  pre-proj  low-frequency mode:    0.0000  [cm^-1]
  pre-proj  low-frequency mode:    0.0000  [cm^-1]
  pre-proj  low-frequency mode:    0.0000  [cm^-1]
  pre-proj  low-frequency mode:    0.0000  [cm^-1]
  pre-proj  all modes:['0.0000i' '0.0000' '0.0000' '0.0000' '0.0000' '804.8203']
  projected mass-weighted Hessian: Symmetric? True   Hermitian? True   Lin Dep Dim?  5 (5)
  post-proj low-frequency mode:    0.0000i [cm^-1] (TR)
  post-proj low-frequency mode:    0.0000  [cm^-1] (TR)
  post-proj low-frequency mode:    0.0000  [cm^-1] (TR)
  post-proj low-frequency mode:    0.0000  [cm^-1] (TR)
  post-proj low-frequency mode:    0.0000  [cm^-1] (TR)
  post-proj  all modes:['0.0000i' '0.0000' '0.0000' '0.0000' '0.0000' '804.8203']

  Vibration                       6           
  Freq [cm^-1]                 804.8203       
  Irrep                           A1          
  Reduced mass [u]             22.6381        
  Force const [mDyne/A]         8.6395        
  Turning point v=0 [a0]        0.0813        
  RMS dev v=0 [a0 u^1/2]        0.2735        
  Char temp [K]               1157.9572       
  ----------------------------------------------------------------------------------
      1   CL               0.00  0.00 -0.48   
      2   F                0.00  0.00  0.88   

  ==> Thermochemistry Components <==

  Entropy, S
    Electronic S            0.000 [cal/(mol K)]        0.000 [J/(mol K)]       0.00000000 [mEh/K] (multiplicity = 1)
    Translational S        37.879 [cal/(mol K)]      158.488 [J/(mol K)]       0.06036475 [mEh/K] (mol. weight = 53.9673 [u], P = 101325.00 [Pa])
    Rotational S           13.955 [cal/(mol K)]       58.387 [J/(mol K)]       0.02223856 [mEh/K] (symmetry no. = 1)
    Vibrational S           0.203 [cal/(mol K)]        0.851 [J/(mol K)]       0.00032417 [mEh/K]
  Total S                  52.038 [cal/(mol K)]      217.726 [J/(mol K)]       0.08292747 [mEh/K]
  Correction S              0.000 [cal/(mol K)]        0.000 [J/(mol K)]       0.00000000 [mEh/K]

  Constant volume heat capacity, Cv
    Electronic Cv           0.000 [cal/(mol K)]        0.000 [J/(mol K)]       0.00000000 [mEh/K]
    Translational Cv        2.981 [cal/(mol K)]       12.472 [J/(mol K)]       0.00475022 [mEh/K]
    Rotational Cv           1.987 [cal/(mol K)]        8.314 [J/(mol K)]       0.00316681 [mEh/K]
    Vibrational Cv          0.643 [cal/(mol K)]        2.690 [J/(mol K)]       0.00102442 [mEh/K]
  Total Cv                  5.611 [cal/(mol K)]       23.476 [J/(mol K)]       0.00894144 [mEh/K]
  Correction Cv             0.000 [cal/(mol K)]        0.000 [J/(mol K)]       0.00000000 [mEh/K]

  Constant pressure heat capacity, Cp
    Electronic Cp           0.000 [cal/(mol K)]        0.000 [J/(mol K)]       0.00000000 [mEh/K]
    Translational Cp        4.968 [cal/(mol K)]       20.786 [J/(mol K)]       0.00791703 [mEh/K]
    Rotational Cp           1.987 [cal/(mol K)]        8.314 [J/(mol K)]       0.00316681 [mEh/K]
    Vibrational Cp          0.643 [cal/(mol K)]        2.690 [J/(mol K)]       0.00102442 [mEh/K]
  Total Cp                  7.598 [cal/(mol K)]       31.790 [J/(mol K)]       0.01210825 [mEh/K]
  Correction Cp             0.000 [cal/(mol K)]        0.000 [J/(mol K)]       0.00000000 [mEh/K]

  ==> Thermochemistry Energy Analysis <==

  Raw electronic energy, E0
  Total E0, Electronic energy at well bottom at 0 [K]                 -559.91356406 [Eh]

  Zero-point energy, ZPE_vib = Sum_i nu_i / 2
    Electronic ZPE          0.000 [kcal/mol]        0.000 [kJ/mol]       0.00000000 [Eh]
    Translational ZPE       0.000 [kcal/mol]        0.000 [kJ/mol]       0.00000000 [Eh]
    Rotational ZPE          0.000 [kcal/mol]        0.000 [kJ/mol]       0.00000000 [Eh]
    Vibrational ZPE         1.151 [kcal/mol]        4.814 [kJ/mol]       0.00183352 [Eh]         402.410 [cm^-1]
  Correction ZPE            1.151 [kcal/mol]        4.814 [kJ/mol]       0.00183352 [Eh]         402.410 [cm^-1]
  Total ZPE, Electronic energy at 0 [K]                               -559.91173055 [Eh]

  Thermal Energy, E (includes ZPE)
    Electronic E            0.000 [kcal/mol]        0.000 [kJ/mol]       0.00000000 [Eh]
    Translational E         0.889 [kcal/mol]        3.718 [kJ/mol]       0.00141628 [Eh]
    Rotational E            0.592 [kcal/mol]        2.479 [kJ/mol]       0.00094418 [Eh]
    Vibrational E           1.199 [kcal/mol]        5.016 [kJ/mol]       0.00191054 [Eh]
  Correction E              2.680 [kcal/mol]       11.214 [kJ/mol]       0.00427100 [Eh]
  Total E, Electronic energy at  298.15 [K]                           -559.90929306 [Eh]

  Enthalpy, H_trans = E_trans + k_B * T
    Electronic H            0.000 [kcal/mol]        0.000 [kJ/mol]       0.00000000 [Eh]
    Translational H         1.481 [kcal/mol]        6.197 [kJ/mol]       0.00236046 [Eh]
    Rotational H            0.592 [kcal/mol]        2.479 [kJ/mol]       0.00094418 [Eh]
    Vibrational H           1.199 [kcal/mol]        5.016 [kJ/mol]       0.00191054 [Eh]
  Correction H              3.273 [kcal/mol]       13.692 [kJ/mol]       0.00521519 [Eh]
  Total H, Enthalpy at  298.15 [K]                                    -559.90834888 [Eh]

  Gibbs free energy, G = H - T * S
    Electronic G            0.000 [kcal/mol]        0.000 [kJ/mol]       0.00000000 [Eh]
    Translational G        -9.813 [kcal/mol]      -41.056 [kJ/mol]      -0.01563729 [Eh]
    Rotational G           -3.568 [kcal/mol]      -14.929 [kJ/mol]      -0.00568624 [Eh]
    Vibrational G           1.138 [kcal/mol]        4.762 [kJ/mol]       0.00181389 [Eh]
  Correction G            -12.242 [kcal/mol]      -51.223 [kJ/mol]      -0.01950964 [Eh]
  Total G, Free enthalpy at  298.15 [K]                               -559.93307370 [Eh]

    Psi4 stopped on: Tuesday, 27 April 2021 06:10PM
    Psi4 wall time for execution: 0:00:28.89

*** Psi4 exiting successfully. Buy a developer a beer!
