
    -----------------------------------------------------------------------
          Psi4: An Open-Source Ab Initio Electronic Structure Package
                               Psi4 1.3.2 release

                         Git: Rev {HEAD} ecbda83 


    R. M. Parrish, L. A. Burns, D. G. A. Smith, A. C. Simmonett,
    A. E. DePrince III, E. G. Hohenstein, U. Bozkaya, A. Yu. Sokolov,
    R. Di Remigio, R. M. Richard, J. F. Gonthier, A. M. James,
    H. R. McAlexander, A. Kumar, M. Saitow, X. Wang, B. P. Pritchard,
    P. Verma, H. F. Schaefer III, K. Patkowski, R. A. King, E. F. Valeev,
    F. A. Evangelista, J. M. Turney, T. D. Crawford, and C. D. Sherrill,
    J. Chem. Theory Comput. 13(7) pp 3185--3197 (2017).
    (doi: 10.1021/acs.jctc.7b00174)


                         Additional Contributions by
    P. Kraus, H. Kruse, M. H. Lechner, M. C. Schieber, R. A. Shaw,
    A. Alenaizan, R. Galvelis, Z. L. Glick, S. Lehtola, and J. P. Misiewicz

    -----------------------------------------------------------------------


    Psi4 started on: Tuesday, 27 April 2021 06:10PM

    Process ID: 189611
    Host:       bp1-compute00116.data.bp.acrc.priv
    PSIDATADIR: /work/zw18965/.conda/envs/p4env/share/psi4
    Memory:     500.0 MiB
    Threads:    24
    
  ==> Input File <==

--------------------------------------------------------------------------
memory 144 GB

molecule {
0 1
C 0.0000000000 0.0000000000 0.0000000000
O 0.0000000000 0.0000000000 1.1626000000
O 0.0000000000 0.0000000000 -1.1626000000
}

set dynamic_level 1
set basis cc-pV(D+d)Z
 
optimize("wB97M-V")
frequencies("wB97M-V")
--------------------------------------------------------------------------

  Memory set to 134.110 GiB by Python driver.
gradient() will perform gradient computation by finite difference of analytic energies.

         ----------------------------------------------------------
                                   FINDIF
                     R. A. King and Jonathon Misiewicz
         ---------------------------------------------------------

  Using finite-differences of energies to determine gradients.
    Generating geometries for use with 3-point formula.
    Displacement size will be 5.00e-03.
    Number of atoms is 3.
    Number of symmetric SALCs is 1.
    Translations projected? 1. Rotations projected? 1.
    Number of geometries (including reference) is 3.

  //>>>>>>>>>>>>>>>>>>>>>>>>>>>>>>>>>>>//
  //    Loading displacement 1 of 3    //
  //<<<<<<<<<<<<<<<<<<<<<<<<<<<<<<<<<<<//

*** tstart() called on bp1-compute00116.data.bp.acrc.priv
*** at Tue Apr 27 18:10:28 2021

   => Loading Basis Set <=

    Name: CC-PV(D+D)Z
    Role: ORBITAL
    Keyword: BASIS
    atoms 1   entry C          line   147 file /work/zw18965/.conda/envs/p4env/share/psi4/basis/cc-pv_dpd_z.gbs 
    atoms 2-3 entry O          line   207 file /work/zw18965/.conda/envs/p4env/share/psi4/basis/cc-pv_dpd_z.gbs 


         ---------------------------------------------------------
                                   SCF
               by Justin Turney, Rob Parrish, Andy Simmonett
                          and Daniel G. A. Smith
                              RKS Reference
                       24 Threads, 137329 MiB Core
         ---------------------------------------------------------

  ==> Geometry <==

    Molecular point group: d2h
    Full point group: D_inf_h

    Geometry (in Angstrom), charge = 0, multiplicity = 1:

       Center              X                  Y                   Z               Mass       
    ------------   -----------------  -----------------  -----------------  -----------------
         C            0.000000000000     0.000000000000     0.000000000000    12.000000000000
         O            0.000000000000     0.000000000000     1.162600000000    15.994914619570
         O            0.000000000000     0.000000000000    -1.162600000000    15.994914619570

  Running in d2h symmetry.

  Rotational constants: A = ************  B =      0.38987  C =      0.38987 [cm^-1]
  Rotational constants: A = ************  B =  11688.11942  C =  11688.11942 [MHz]
  Nuclear repulsion =   58.261382217237241

  Charge       = 0
  Multiplicity = 1
  Electrons    = 22
  Nalpha       = 11
  Nbeta        = 11

  ==> Algorithm <==

  SCF Algorithm Type is DF.
  DIIS enabled.
  MOM disabled.
  Fractional occupation disabled.
  Guess Type is SAD.
  Energy threshold   = 1.00e-08
  Density threshold  = 1.00e-08
  Integral threshold = 0.00e+00

  ==> Primary Basis <==

  Basis Set: CC-PV(D+D)Z
    Blend: CC-PV(D+D)Z
    Number of shells: 18
    Number of basis function: 42
    Number of Cartesian functions: 45
    Spherical Harmonics?: true
    Max angular momentum: 2

  ==> DFT Potential <==

   => Composite Functional: WB97M-V <= 

    wB97M-V Hyb-GGA Exchange-Correlation Functional

    N. Mardirossian and M. Head-Gordon, J. Chem. Phys. 144, 214110 (2016)

    Deriv               =              1
    GGA                 =           TRUE
    Meta                =           TRUE

    Exchange Hybrid     =           TRUE
    MP2 Hybrid          =          FALSE

   => Exchange-Correlation Functionals <=

    1.0000   wB97M-V exchange-correlation functional

   => Exact (HF) Exchange <=

    0.8500            HF,LR [omega = 0.3000]
    0.1500               HF 

   => VV10 Non-Local Parameters <=

    VV10 B              =     6.0000E+00
    VV10 C              =     1.0000E-02

   => Molecular Quadrature <=

    Radial Scheme          =       TREUTLER
    Pruning Scheme         =           FLAT
    Nuclear Scheme         =       TREUTLER

    BS radius alpha        =              1
    Pruning alpha          =              1
    Radial Points          =             75
    Spherical Points       =            302
    Total Points           =          64496
    Total Blocks           =            557
    Max Points             =            254
    Max Functions          =             42

   => Loading Basis Set <=

    Name: (CC-PV(D+D)Z AUX)
    Role: JKFIT
    Keyword: DF_BASIS_SCF
    atoms 1   entry C          line   121 file /work/zw18965/.conda/envs/p4env/share/psi4/basis/cc-pvdz-jkfit.gbs 
    atoms 2-3 entry O          line   221 file /work/zw18965/.conda/envs/p4env/share/psi4/basis/cc-pvdz-jkfit.gbs 

  ==> Pre-Iterations <==

   -------------------------------------------------------
    Irrep   Nso     Nmo     Nalpha   Nbeta   Ndocc  Nsocc
   -------------------------------------------------------
     Ag        12      12       0       0       0       0
     B1g        2       2       0       0       0       0
     B2g        4       4       0       0       0       0
     B3g        4       4       0       0       0       0
     Au         1       1       0       0       0       0
     B1u        9       9       0       0       0       0
     B2u        5       5       0       0       0       0
     B3u        5       5       0       0       0       0
   -------------------------------------------------------
    Total      42      42      11      11      11       0
   -------------------------------------------------------

  ==> Integral Setup <==

  ==> DiskDFJK: Density-Fitted J/K Matrices <==

    J tasked:                  Yes
    K tasked:                  Yes
    wK tasked:                 Yes
    Omega:               3.000E-01
    OpenMP threads:             24
    Integrals threads:          24
    Memory [MiB]:           102807
    Algorithm:                Core
    Integral Cache:           NONE
    Schwarz Cutoff:          1E-12
    Fitting Condition:       1E-10

   => Auxiliary Basis Set <=

  Basis Set: (CC-PV(D+D)Z AUX)
    Blend: CC-PVDZ-JKFIT
    Number of shells: 72
    Number of basis function: 210
    Number of Cartesian functions: 243
    Spherical Harmonics?: true
    Max angular momentum: 3

  Cached 100.0% of DFT collocation blocks in 0.185 [GiB].

  Minimum eigenvalue in the overlap matrix is 1.7690317679E-02.
  Using Symmetric Orthogonalization.

  SCF Guess: Superposition of Atomic Densities via on-the-fly atomic UHF.

  ==> Iterations <==

                           Total Energy        Delta E     RMS |[F,P]|

   @DF-RKS iter SAD:  -187.92002067230757   -1.87920e+02   0.00000e+00 
   @DF-RKS iter   1:  -188.45111535779458   -5.31095e-01   3.08367e-02 DIIS
   @DF-RKS iter   2:  -188.41703286973276    3.40825e-02   3.61953e-02 DIIS
   @DF-RKS iter   3:  -188.55454393058287   -1.37511e-01   9.33564e-04 DIIS
   @DF-RKS iter   4:  -188.55466534329577   -1.21413e-04   2.62431e-04 DIIS
   @DF-RKS iter   5:  -188.55467460463186   -9.26134e-06   2.53587e-05 DIIS
   @DF-RKS iter   6:  -188.55467473846647   -1.33835e-07   4.20635e-06 DIIS
   @DF-RKS iter   7:  -188.55467474469711   -6.23064e-09   7.77755e-07 DIIS
   @DF-RKS iter   8:  -188.55467474488609   -1.88976e-10   6.63434e-08 DIIS
   @DF-RKS iter   9:  -188.55467474488731   -1.22213e-12   5.44188e-09 DIIS
  Energy and wave function converged.


  ==> Post-Iterations <==

    Orbital Energies [Eh]
    ---------------------

    Doubly Occupied:                                                      

       1B1u  -19.424717     1Ag   -19.424695     2Ag   -10.551085  
       3Ag    -1.288483     2B1u   -1.244916     4Ag    -0.672764  
       3B1u   -0.623772     1B2u   -0.623763     1B3u   -0.623763  
       1B3g   -0.464949     1B2g   -0.464949  

    Virtual:                                                              

       2B3u    0.139854     2B2u    0.139854     5Ag     0.179251  
       4B1u    0.428440     3B2u    0.509405     3B3u    0.509405  
       6Ag     0.643474     5B1u    0.860530     7Ag     0.937535  
       2B3g    0.982962     2B2g    0.982962     1B1g    1.134422  
       8Ag     1.134422     4B3u    1.203467     4B2u    1.203467  
       6B1u    1.217272     3B2g    1.409953     3B3g    1.409953  
       9Ag     1.689827     7B1u    2.124406     8B1u    2.635561  
       1Au     2.635565    10Ag     2.766152     2B1g    2.766156  
      11Ag     2.835809     5B2u    2.857488     5B3u    2.857488  
      12Ag     3.479339     4B2g    3.589863     4B3g    3.589863  
       9B1u    3.629797  

    Final Occupation by Irrep:
             Ag   B1g   B2g   B3g    Au   B1u   B2u   B3u 
    DOCC [     4,    0,    1,    1,    0,    3,    1,    1 ]

  @DF-RKS Final Energy:  -188.55467474488731

   => Energetics <=

    Nuclear Repulsion Energy =             58.2613822172372409
    One-Electron Energy =                -372.5370242207811202
    Two-Electron Energy =                 142.0182576209204228
    DFT Exchange-Correlation Energy =     -16.3891203596318675
    Empirical Dispersion Energy =           0.0000000000000000
    VV10 Nonlocal Energy =                  0.0918299973680600
    Total Energy =                       -188.5546747448873077

Computation Completed


Properties will be evaluated at   0.000000,   0.000000,   0.000000 [a0]

Properties computed using the SCF density matrix

  Nuclear Dipole Moment: [e a0]
     X:     0.0000      Y:     0.0000      Z:     0.0000

  Electronic Dipole Moment: [e a0]
     X:     0.0000      Y:     0.0000      Z:     0.0000

  Dipole Moment: [e a0]
     X:     0.0000      Y:     0.0000      Z:     0.0000     Total:     0.0000

  Dipole Moment: [D]
     X:     0.0000      Y:     0.0000      Z:     0.0000     Total:     0.0000


*** tstop() called on bp1-compute00116.data.bp.acrc.priv at Tue Apr 27 18:10:30 2021
Module time:
	user time   =      58.43 seconds =       0.97 minutes
	system time =       2.79 seconds =       0.05 minutes
	total time  =          2 seconds =       0.03 minutes
Total time:
	user time   =      58.43 seconds =       0.97 minutes
	system time =       2.79 seconds =       0.05 minutes
	total time  =          2 seconds =       0.03 minutes

  //>>>>>>>>>>>>>>>>>>>>>>>>>>>>>>>>>>>//
  //    Loading displacement 2 of 3    //
  //<<<<<<<<<<<<<<<<<<<<<<<<<<<<<<<<<<<//

*** tstart() called on bp1-compute00116.data.bp.acrc.priv
*** at Tue Apr 27 18:10:30 2021

   => Loading Basis Set <=

    Name: CC-PV(D+D)Z
    Role: ORBITAL
    Keyword: BASIS
    atoms 1   entry C          line   147 file /work/zw18965/.conda/envs/p4env/share/psi4/basis/cc-pv_dpd_z.gbs 
    atoms 2-3 entry O          line   207 file /work/zw18965/.conda/envs/p4env/share/psi4/basis/cc-pv_dpd_z.gbs 


         ---------------------------------------------------------
                                   SCF
               by Justin Turney, Rob Parrish, Andy Simmonett
                          and Daniel G. A. Smith
                              RKS Reference
                       24 Threads, 137329 MiB Core
         ---------------------------------------------------------

  ==> Geometry <==

    Molecular point group: d2h
    Full point group: D_inf_h

    Geometry (in Angstrom), charge = 0, multiplicity = 1:

       Center              X                  Y                   Z               Mass       
    ------------   -----------------  -----------------  -----------------  -----------------
         C            0.000000000000     0.000000000000     0.000000000000    12.000000000000
         O            0.000000000000     0.000000000000     1.162132194659    15.994914619570
         O            0.000000000000     0.000000000000    -1.162132194659    15.994914619570

  Running in d2h symmetry.

  Rotational constants: A = ************  B =      0.39019  C =      0.39019 [cm^-1]
  Rotational constants: A = ************  B =  11697.53120  C =  11697.53120 [MHz]
  Nuclear repulsion =   58.284834786504561

  Charge       = 0
  Multiplicity = 1
  Electrons    = 22
  Nalpha       = 11
  Nbeta        = 11

  ==> Algorithm <==

  SCF Algorithm Type is DF.
  DIIS enabled.
  MOM disabled.
  Fractional occupation disabled.
  Guess Type is SAD.
  Energy threshold   = 1.00e-08
  Density threshold  = 1.00e-08
  Integral threshold = 0.00e+00

  ==> Primary Basis <==

  Basis Set: CC-PV(D+D)Z
    Blend: CC-PV(D+D)Z
    Number of shells: 18
    Number of basis function: 42
    Number of Cartesian functions: 45
    Spherical Harmonics?: true
    Max angular momentum: 2

  ==> DFT Potential <==

   => Composite Functional: WB97M-V <= 

    wB97M-V Hyb-GGA Exchange-Correlation Functional

    N. Mardirossian and M. Head-Gordon, J. Chem. Phys. 144, 214110 (2016)

    Deriv               =              1
    GGA                 =           TRUE
    Meta                =           TRUE

    Exchange Hybrid     =           TRUE
    MP2 Hybrid          =          FALSE

   => Exchange-Correlation Functionals <=

    1.0000   wB97M-V exchange-correlation functional

   => Exact (HF) Exchange <=

    0.8500            HF,LR [omega = 0.3000]
    0.1500               HF 

   => VV10 Non-Local Parameters <=

    VV10 B              =     6.0000E+00
    VV10 C              =     1.0000E-02

   => Molecular Quadrature <=

    Radial Scheme          =       TREUTLER
    Pruning Scheme         =           FLAT
    Nuclear Scheme         =       TREUTLER

    BS radius alpha        =              1
    Pruning alpha          =              1
    Radial Points          =             75
    Spherical Points       =            302
    Total Points           =          64496
    Total Blocks           =            557
    Max Points             =            254
    Max Functions          =             42

   => Loading Basis Set <=

    Name: (CC-PV(D+D)Z AUX)
    Role: JKFIT
    Keyword: DF_BASIS_SCF
    atoms 1   entry C          line   121 file /work/zw18965/.conda/envs/p4env/share/psi4/basis/cc-pvdz-jkfit.gbs 
    atoms 2-3 entry O          line   221 file /work/zw18965/.conda/envs/p4env/share/psi4/basis/cc-pvdz-jkfit.gbs 

  ==> Pre-Iterations <==

   -------------------------------------------------------
    Irrep   Nso     Nmo     Nalpha   Nbeta   Ndocc  Nsocc
   -------------------------------------------------------
     Ag        12      12       0       0       0       0
     B1g        2       2       0       0       0       0
     B2g        4       4       0       0       0       0
     B3g        4       4       0       0       0       0
     Au         1       1       0       0       0       0
     B1u        9       9       0       0       0       0
     B2u        5       5       0       0       0       0
     B3u        5       5       0       0       0       0
   -------------------------------------------------------
    Total      42      42      11      11      11       0
   -------------------------------------------------------

  ==> Integral Setup <==

  ==> DiskDFJK: Density-Fitted J/K Matrices <==

    J tasked:                  Yes
    K tasked:                  Yes
    wK tasked:                 Yes
    Omega:               3.000E-01
    OpenMP threads:             24
    Integrals threads:          24
    Memory [MiB]:           102807
    Algorithm:                Core
    Integral Cache:           NONE
    Schwarz Cutoff:          1E-12
    Fitting Condition:       1E-10

   => Auxiliary Basis Set <=

  Basis Set: (CC-PV(D+D)Z AUX)
    Blend: CC-PVDZ-JKFIT
    Number of shells: 72
    Number of basis function: 210
    Number of Cartesian functions: 243
    Spherical Harmonics?: true
    Max angular momentum: 3

  Cached 100.0% of DFT collocation blocks in 0.185 [GiB].

  Minimum eigenvalue in the overlap matrix is 1.7686498524E-02.
  Using Symmetric Orthogonalization.

  SCF Guess: Superposition of Atomic Densities via on-the-fly atomic UHF.

  ==> Iterations <==

                           Total Energy        Delta E     RMS |[F,P]|

   @DF-RKS iter SAD:  -187.92176500226071   -1.87922e+02   0.00000e+00 
   @DF-RKS iter   1:  -188.45119630509276   -5.29431e-01   3.08284e-02 DIIS
   @DF-RKS iter   2:  -188.41741089627490    3.37854e-02   3.61499e-02 DIIS
   @DF-RKS iter   3:  -188.55453440915113   -1.37124e-01   9.34203e-04 DIIS
   @DF-RKS iter   4:  -188.55465597582696   -1.21567e-04   2.62290e-04 DIIS
   @DF-RKS iter   5:  -188.55466521690084   -9.24107e-06   2.52548e-05 DIIS
   @DF-RKS iter   6:  -188.55466534931961   -1.32419e-07   4.17196e-06 DIIS
   @DF-RKS iter   7:  -188.55466535545486   -6.13525e-09   7.72368e-07 DIIS
   @DF-RKS iter   8:  -188.55466535564170   -1.86844e-10   6.60942e-08 DIIS
   @DF-RKS iter   9:  -188.55466535564281   -1.10845e-12   5.40754e-09 DIIS
  Energy and wave function converged.


  ==> Post-Iterations <==

    Orbital Energies [Eh]
    ---------------------

    Doubly Occupied:                                                      

       1B1u  -19.424607     1Ag   -19.424586     2Ag   -10.550906  
       3Ag    -1.288695     2B1u   -1.245128     4Ag    -0.672679  
       1B2u   -0.623926     1B3u   -0.623926     3B1u   -0.623800  
       1B2g   -0.464963     1B3g   -0.464963  

    Virtual:                                                              

       2B3u    0.140192     2B2u    0.140192     5Ag     0.179458  
       4B1u    0.428455     3B3u    0.509346     3B2u    0.509346  
       6Ag     0.643825     5B1u    0.860881     7Ag     0.937595  
       2B3g    0.982856     2B2g    0.982856     1B1g    1.134396  
       8Ag     1.134397     4B3u    1.203594     4B2u    1.203594  
       6B1u    1.218303     3B2g    1.410530     3B3g    1.410530  
       9Ag     1.690063     7B1u    2.124300     8B1u    2.635528  
       1Au     2.635531    10Ag     2.766413     2B1g    2.766416  
      11Ag     2.837657     5B3u    2.858041     5B2u    2.858041  
      12Ag     3.479521     4B2g    3.590799     4B3g    3.590799  
       9B1u    3.630839  

    Final Occupation by Irrep:
             Ag   B1g   B2g   B3g    Au   B1u   B2u   B3u 
    DOCC [     4,    0,    1,    1,    0,    3,    1,    1 ]

  @DF-RKS Final Energy:  -188.55466535564281

   => Energetics <=

    Nuclear Repulsion Energy =             58.2848347865045611
    One-Electron Energy =                -372.5828187086473235
    Two-Electron Energy =                 142.0413792391341303
    DFT Exchange-Correlation Energy =     -16.3898904724838488
    Empirical Dispersion Energy =           0.0000000000000000
    VV10 Nonlocal Energy =                  0.0918297998496574
    Total Energy =                       -188.5546653556428112

Computation Completed


Properties will be evaluated at   0.000000,   0.000000,   0.000000 [a0]

Properties computed using the SCF density matrix

  Nuclear Dipole Moment: [e a0]
     X:     0.0000      Y:     0.0000      Z:     0.0000

  Electronic Dipole Moment: [e a0]
     X:     0.0000      Y:     0.0000      Z:     0.0000

  Dipole Moment: [e a0]
     X:     0.0000      Y:     0.0000      Z:     0.0000     Total:     0.0000

  Dipole Moment: [D]
     X:     0.0000      Y:     0.0000      Z:     0.0000     Total:     0.0000


*** tstop() called on bp1-compute00116.data.bp.acrc.priv at Tue Apr 27 18:10:33 2021
Module time:
	user time   =      58.18 seconds =       0.97 minutes
	system time =       2.57 seconds =       0.04 minutes
	total time  =          3 seconds =       0.05 minutes
Total time:
	user time   =     116.79 seconds =       1.95 minutes
	system time =       5.37 seconds =       0.09 minutes
	total time  =          5 seconds =       0.08 minutes

  //>>>>>>>>>>>>>>>>>>>>>>>>>>>>>>>>>>>//
  //    Loading displacement 3 of 3    //
  //<<<<<<<<<<<<<<<<<<<<<<<<<<<<<<<<<<<//

*** tstart() called on bp1-compute00116.data.bp.acrc.priv
*** at Tue Apr 27 18:10:33 2021

   => Loading Basis Set <=

    Name: CC-PV(D+D)Z
    Role: ORBITAL
    Keyword: BASIS
    atoms 1   entry C          line   147 file /work/zw18965/.conda/envs/p4env/share/psi4/basis/cc-pv_dpd_z.gbs 
    atoms 2-3 entry O          line   207 file /work/zw18965/.conda/envs/p4env/share/psi4/basis/cc-pv_dpd_z.gbs 


         ---------------------------------------------------------
                                   SCF
               by Justin Turney, Rob Parrish, Andy Simmonett
                          and Daniel G. A. Smith
                              RKS Reference
                       24 Threads, 137329 MiB Core
         ---------------------------------------------------------

  ==> Geometry <==

    Molecular point group: d2h
    Full point group: D_inf_h

    Geometry (in Angstrom), charge = 0, multiplicity = 1:

       Center              X                  Y                   Z               Mass       
    ------------   -----------------  -----------------  -----------------  -----------------
         C            0.000000000000     0.000000000000     0.000000000000    12.000000000000
         O            0.000000000000     0.000000000000     1.163067805341    15.994914619570
         O            0.000000000000     0.000000000000    -1.163067805341    15.994914619570

  Running in d2h symmetry.

  Rotational constants: A = ************  B =      0.38956  C =      0.38956 [cm^-1]
  Rotational constants: A = ************  B =  11678.71900  C =  11678.71900 [MHz]
  Nuclear repulsion =   58.237948514001836

  Charge       = 0
  Multiplicity = 1
  Electrons    = 22
  Nalpha       = 11
  Nbeta        = 11

  ==> Algorithm <==

  SCF Algorithm Type is DF.
  DIIS enabled.
  MOM disabled.
  Fractional occupation disabled.
  Guess Type is SAD.
  Energy threshold   = 1.00e-08
  Density threshold  = 1.00e-08
  Integral threshold = 0.00e+00

  ==> Primary Basis <==

  Basis Set: CC-PV(D+D)Z
    Blend: CC-PV(D+D)Z
    Number of shells: 18
    Number of basis function: 42
    Number of Cartesian functions: 45
    Spherical Harmonics?: true
    Max angular momentum: 2

  ==> DFT Potential <==

   => Composite Functional: WB97M-V <= 

    wB97M-V Hyb-GGA Exchange-Correlation Functional

    N. Mardirossian and M. Head-Gordon, J. Chem. Phys. 144, 214110 (2016)

    Deriv               =              1
    GGA                 =           TRUE
    Meta                =           TRUE

    Exchange Hybrid     =           TRUE
    MP2 Hybrid          =          FALSE

   => Exchange-Correlation Functionals <=

    1.0000   wB97M-V exchange-correlation functional

   => Exact (HF) Exchange <=

    0.8500            HF,LR [omega = 0.3000]
    0.1500               HF 

   => VV10 Non-Local Parameters <=

    VV10 B              =     6.0000E+00
    VV10 C              =     1.0000E-02

   => Molecular Quadrature <=

    Radial Scheme          =       TREUTLER
    Pruning Scheme         =           FLAT
    Nuclear Scheme         =       TREUTLER

    BS radius alpha        =              1
    Pruning alpha          =              1
    Radial Points          =             75
    Spherical Points       =            302
    Total Points           =          64496
    Total Blocks           =            557
    Max Points             =            254
    Max Functions          =             42

   => Loading Basis Set <=

    Name: (CC-PV(D+D)Z AUX)
    Role: JKFIT
    Keyword: DF_BASIS_SCF
    atoms 1   entry C          line   121 file /work/zw18965/.conda/envs/p4env/share/psi4/basis/cc-pvdz-jkfit.gbs 
    atoms 2-3 entry O          line   221 file /work/zw18965/.conda/envs/p4env/share/psi4/basis/cc-pvdz-jkfit.gbs 

  ==> Pre-Iterations <==

   -------------------------------------------------------
    Irrep   Nso     Nmo     Nalpha   Nbeta   Ndocc  Nsocc
   -------------------------------------------------------
     Ag        12      12       0       0       0       0
     B1g        2       2       0       0       0       0
     B2g        4       4       0       0       0       0
     B3g        4       4       0       0       0       0
     Au         1       1       0       0       0       0
     B1u        9       9       0       0       0       0
     B2u        5       5       0       0       0       0
     B3u        5       5       0       0       0       0
   -------------------------------------------------------
    Total      42      42      11      11      11       0
   -------------------------------------------------------

  ==> Integral Setup <==

  ==> DiskDFJK: Density-Fitted J/K Matrices <==

    J tasked:                  Yes
    K tasked:                  Yes
    wK tasked:                 Yes
    Omega:               3.000E-01
    OpenMP threads:             24
    Integrals threads:          24
    Memory [MiB]:           102807
    Algorithm:                Core
    Integral Cache:           NONE
    Schwarz Cutoff:          1E-12
    Fitting Condition:       1E-10

   => Auxiliary Basis Set <=

  Basis Set: (CC-PV(D+D)Z AUX)
    Blend: CC-PVDZ-JKFIT
    Number of shells: 72
    Number of basis function: 210
    Number of Cartesian functions: 243
    Spherical Harmonics?: true
    Max angular momentum: 3

  Cached 100.0% of DFT collocation blocks in 0.185 [GiB].

  Minimum eigenvalue in the overlap matrix is 1.7694148507E-02.
  Using Symmetric Orthogonalization.

  SCF Guess: Superposition of Atomic Densities via on-the-fly atomic UHF.

  ==> Iterations <==

                           Total Energy        Delta E     RMS |[F,P]|

   @DF-RKS iter SAD:  -187.91827718151850   -1.87918e+02   0.00000e+00 
   @DF-RKS iter   1:  -188.45103217275022   -5.32755e-01   3.08450e-02 DIIS
   @DF-RKS iter   2:  -188.41665166158364    3.43805e-02   3.62408e-02 DIIS
   @DF-RKS iter   3:  -188.55455160213145   -1.37900e-01   9.32929e-04 DIIS
   @DF-RKS iter   4:  -188.55467286220971   -1.21260e-04   2.62571e-04 DIIS
   @DF-RKS iter   5:  -188.55468214389788   -9.28169e-06   2.54631e-05 DIIS
   @DF-RKS iter   6:  -188.55468227916217   -1.35264e-07   4.24094e-06 DIIS
   @DF-RKS iter   7:  -188.55468228548980   -6.32764e-09   7.83154e-07 DIIS
   @DF-RKS iter   8:  -188.55468228568083   -1.91022e-10   6.65942e-08 DIIS
   @DF-RKS iter   9:  -188.55468228568202   -1.19371e-12   5.47648e-09 DIIS
  Energy and wave function converged.


  ==> Post-Iterations <==

    Orbital Energies [Eh]
    ---------------------

    Doubly Occupied:                                                      

       1B1u  -19.424826     1Ag   -19.424805     2Ag   -10.551264  
       3Ag    -1.288271     2B1u   -1.244704     4Ag    -0.672848  
       3B1u   -0.623745     1B3u   -0.623601     1B2u   -0.623601  
       1B3g   -0.464934     1B2g   -0.464934  

    Virtual:                                                              

       2B3u    0.139517     2B2u    0.139517     5Ag     0.179043  
       4B1u    0.428425     3B3u    0.509463     3B2u    0.509463  
       6Ag     0.643123     5B1u    0.860177     7Ag     0.937475  
       2B2g    0.983068     2B3g    0.983068     1B1g    1.134447  
       8Ag     1.134447     4B3u    1.203341     4B2u    1.203341  
       6B1u    1.216245     3B2g    1.409377     3B3g    1.409377  
       9Ag     1.689591     7B1u    2.124513     8B1u    2.635595  
       1Au     2.635598    10Ag     2.765892     2B1g    2.765895  
      11Ag     2.833963     5B3u    2.856937     5B2u    2.856937  
      12Ag     3.479159     4B2g    3.588926     4B3g    3.588926  
       9B1u    3.628755  

    Final Occupation by Irrep:
             Ag   B1g   B2g   B3g    Au   B1u   B2u   B3u 
    DOCC [     4,    0,    1,    1,    0,    3,    1,    1 ]

  @DF-RKS Final Energy:  -188.55468228568202

   => Energetics <=

    Nuclear Repulsion Energy =             58.2379485140018360
    One-Electron Energy =                -372.4912634016170045
    Two-Electron Energy =                 141.9951535532057392
    DFT Exchange-Correlation Energy =     -16.3883511468069223
    Empirical Dispersion Energy =           0.0000000000000000
    VV10 Nonlocal Energy =                  0.0918301955343122
    Total Energy =                       -188.5546822856820199

Computation Completed


Properties will be evaluated at   0.000000,   0.000000,   0.000000 [a0]

Properties computed using the SCF density matrix

  Nuclear Dipole Moment: [e a0]
     X:     0.0000      Y:     0.0000      Z:     0.0000

  Electronic Dipole Moment: [e a0]
     X:     0.0000      Y:     0.0000      Z:     0.0000

  Dipole Moment: [e a0]
     X:     0.0000      Y:     0.0000      Z:     0.0000     Total:     0.0000

  Dipole Moment: [D]
     X:     0.0000      Y:     0.0000      Z:     0.0000     Total:     0.0000


*** tstop() called on bp1-compute00116.data.bp.acrc.priv at Tue Apr 27 18:10:35 2021
Module time:
	user time   =      55.27 seconds =       0.92 minutes
	system time =       1.97 seconds =       0.03 minutes
	total time  =          2 seconds =       0.03 minutes
Total time:
	user time   =     172.19 seconds =       2.87 minutes
	system time =       7.35 seconds =       0.12 minutes
	total time  =          7 seconds =       0.12 minutes

         ----------------------------------------------------------
                                   FINDIF
                     R. A. King and Jonathon Misiewicz
         ---------------------------------------------------------

  Computing gradient from energies.
    Using 3-point formula.
    Energy without displacement: -188.5546747449
    Check energies below for precision!
    Forces are for mass-weighted, symmetry-adapted cartesians (in au).

     Coord      Energy(-1)        Energy(+1)            Force
        0   -188.5546653556   -188.5546822857     -0.0016930039


-------------------------------------------------------------
  ## New Matrix (Symmetry 0) ##
  Irrep: 1 Size: 3 x 3

                 1                   2                   3

    1     0.00000000000000     0.00000000000000     0.00000000000000
    2     0.00000000000000     0.00000000000000    -0.00478777716606
    3     0.00000000000000     0.00000000000000     0.00478777716606




			-----------------------------------------
			 OPTKING 2.0: for geometry optimizations 
			  - R.A. King,  Bethel University        
			-----------------------------------------
	At level 1: Red. Int., RFO, no backsteps, dynamic trust

	Internal coordinates to be generated automatically.
	Detected frag 1 with atoms:  1 2 3
	---Fragment 1 Bond Connectivity---
	 1 : 2 3
	 2 : 1
	 3 : 1

	---Fragment 1 Geometry and Gradient---
	 C           0.0000000000        0.0000000000        0.0000000000
	 O           0.0000000000        0.0000000000        2.1969955935
	 O           0.0000000000        0.0000000000       -2.1969955935
	             0.0000000000        0.0000000000        0.0000000000
	             0.0000000000        0.0000000000       -0.0047877772
	             0.0000000000        0.0000000000        0.0047877772

	Previous optimization step data not found.  Starting new optimization.

	---Fragment 1 Intrafragment Coordinates---
	 - Coordinate -           - BOHR/RAD -       - ANG/DEG -
	 R(1,2)           =         2.196996	       1.162600
	 R(1,3)           =         2.196996	       1.162600
	 L(2,1,3)         =         3.141593	     180.000000
	 l(2,1,3)         =         3.141593	     180.000000

	Current energy   :      -188.5546747449

	Generating empirical Hessian (Schlegel '84) for each fragment.
	Taking RFO optimization step.
	Going to follow RFO solution 1.
	Using RFO vector 1.
	Norm of target step-size    0.00537
	Projected energy change by RFO approximation:        -0.0000363524

	Back-transformation to cartesian coordinates...
	Successfully converged to displaced geometry.

	--- Internal Coordinate Step in ANG or DEG, aJ/ANG or AJ/DEG ---
	 ---------------------------------------------------------------------------
	   Coordinate                Previous        Force       Change         New 
	   ----------                --------       ------       ------       ------
	    1 R(1,2)          =      1.162600     0.039445     0.002009     1.164609
	    2 R(1,3)          =      1.162600     0.039445     0.002009     1.164609
	    3 L(2,1,3)        =    180.000000     0.000000     0.000000   180.000000
	    4 l(2,1,3)        =    180.000000     0.000000     0.000000   180.000000
	 ---------------------------------------------------------------------------
	Successfully symmetrized geometry.

  ==> Convergence Check <==

  Measures of convergence in internal coordinates in au.
  Criteria marked as inactive (o), active & met (*), and active & unmet ( ).
  --------------------------------------------------------------------------------------------- ~
   Step     Total Energy     Delta E     MAX Force     RMS Force      MAX Disp      RMS Disp    ~
  --------------------------------------------------------------------------------------------- ~
    Convergence Criteria    1.00e-06 *    3.00e-04 *             o    1.20e-03 *             o  ~
  --------------------------------------------------------------------------------------------- ~
      1    -188.55467474   -1.89e+02      4.79e-03      3.39e-03 o    3.80e-03      2.68e-03 o  ~
  ---------------------------------------------------------------------------------------------

	Writing optimization data to binary file.
	Structure for next step:
	Cartesian Geometry (in Angstrom)
	    C     0.0000000000  -0.0000000000   0.0000000000
	    O    -0.0000000000   0.0000000000   1.1646090080
	    O    -0.0000000000   0.0000000000  -1.1646090080
			--------------------------
			 OPTKING Finished Execution 
			--------------------------

    Structure for next step:
    Molecular point group: d2h
    Full point group: D_inf_h

    Geometry (in Angstrom), charge = 0, multiplicity = 1:

    C           -0.000000000000    -0.000000000000     0.000000000000
    O            0.000000000000     0.000000000000     1.164609012543
    O            0.000000000000     0.000000000000    -1.164609012543

gradient() will perform gradient computation by finite difference of analytic energies.

         ----------------------------------------------------------
                                   FINDIF
                     R. A. King and Jonathon Misiewicz
         ---------------------------------------------------------

  Using finite-differences of energies to determine gradients.
    Generating geometries for use with 3-point formula.
    Displacement size will be 5.00e-03.
    Number of atoms is 3.
    Number of symmetric SALCs is 1.
    Translations projected? 1. Rotations projected? 1.
    Number of geometries (including reference) is 3.

  //>>>>>>>>>>>>>>>>>>>>>>>>>>>>>>>>>>>//
  //    Loading displacement 1 of 3    //
  //<<<<<<<<<<<<<<<<<<<<<<<<<<<<<<<<<<<//

*** tstart() called on bp1-compute00116.data.bp.acrc.priv
*** at Tue Apr 27 18:10:35 2021

   => Loading Basis Set <=

    Name: CC-PV(D+D)Z
    Role: ORBITAL
    Keyword: BASIS
    atoms 1   entry C          line   147 file /work/zw18965/.conda/envs/p4env/share/psi4/basis/cc-pv_dpd_z.gbs 
    atoms 2-3 entry O          line   207 file /work/zw18965/.conda/envs/p4env/share/psi4/basis/cc-pv_dpd_z.gbs 


         ---------------------------------------------------------
                                   SCF
               by Justin Turney, Rob Parrish, Andy Simmonett
                          and Daniel G. A. Smith
                              RKS Reference
                       24 Threads, 137329 MiB Core
         ---------------------------------------------------------

  ==> Geometry <==

    Molecular point group: d2h
    Full point group: D_inf_h

    Geometry (in Angstrom), charge = 0, multiplicity = 1:

       Center              X                  Y                   Z               Mass       
    ------------   -----------------  -----------------  -----------------  -----------------
         C            0.000000000000     0.000000000000     0.000000000000    12.000000000000
         O           -0.000000000000    -0.000000000000     1.164609012543    15.994914619570
         O           -0.000000000000    -0.000000000000    -1.164609012543    15.994914619570

  Running in d2h symmetry.

  Rotational constants: A = ************  B =      0.38853  C =      0.38853 [cm^-1]
  Rotational constants: A = ************  B =  11647.82895  C =  11647.82895 [MHz]
  Nuclear repulsion =   58.160878231461894

  Charge       = 0
  Multiplicity = 1
  Electrons    = 22
  Nalpha       = 11
  Nbeta        = 11

  ==> Algorithm <==

  SCF Algorithm Type is DF.
  DIIS enabled.
  MOM disabled.
  Fractional occupation disabled.
  Guess Type is READ.
  Energy threshold   = 1.00e-08
  Density threshold  = 1.00e-08
  Integral threshold = 0.00e+00

  ==> Primary Basis <==

  Basis Set: CC-PV(D+D)Z
    Blend: CC-PV(D+D)Z
    Number of shells: 18
    Number of basis function: 42
    Number of Cartesian functions: 45
    Spherical Harmonics?: true
    Max angular momentum: 2

  ==> DFT Potential <==

   => Composite Functional: WB97M-V <= 

    wB97M-V Hyb-GGA Exchange-Correlation Functional

    N. Mardirossian and M. Head-Gordon, J. Chem. Phys. 144, 214110 (2016)

    Deriv               =              1
    GGA                 =           TRUE
    Meta                =           TRUE

    Exchange Hybrid     =           TRUE
    MP2 Hybrid          =          FALSE

   => Exchange-Correlation Functionals <=

    1.0000   wB97M-V exchange-correlation functional

   => Exact (HF) Exchange <=

    0.8500            HF,LR [omega = 0.3000]
    0.1500               HF 

   => VV10 Non-Local Parameters <=

    VV10 B              =     6.0000E+00
    VV10 C              =     1.0000E-02

   => Molecular Quadrature <=

    Radial Scheme          =       TREUTLER
    Pruning Scheme         =           FLAT
    Nuclear Scheme         =       TREUTLER

    BS radius alpha        =              1
    Pruning alpha          =              1
    Radial Points          =             75
    Spherical Points       =            302
    Total Points           =          64496
    Total Blocks           =            557
    Max Points             =            254
    Max Functions          =             42

   => Loading Basis Set <=

    Name: (CC-PV(D+D)Z AUX)
    Role: JKFIT
    Keyword: DF_BASIS_SCF
    atoms 1   entry C          line   121 file /work/zw18965/.conda/envs/p4env/share/psi4/basis/cc-pvdz-jkfit.gbs 
    atoms 2-3 entry O          line   221 file /work/zw18965/.conda/envs/p4env/share/psi4/basis/cc-pvdz-jkfit.gbs 

   => Loading Basis Set <=

    Name: CC-PV(D+D)Z
    Role: ORBITAL
    Keyword: BASIS
    atoms 1   entry C          line   147 file /work/zw18965/.conda/envs/p4env/share/psi4/basis/cc-pv_dpd_z.gbs 
    atoms 2-3 entry O          line   207 file /work/zw18965/.conda/envs/p4env/share/psi4/basis/cc-pv_dpd_z.gbs 

  Reading orbitals from file 180, no projection.

  ==> Pre-Iterations <==

   -------------------------------------------------------
    Irrep   Nso     Nmo     Nalpha   Nbeta   Ndocc  Nsocc
   -------------------------------------------------------
     Ag        12      12       0       0       0       0
     B1g        2       2       0       0       0       0
     B2g        4       4       0       0       0       0
     B3g        4       4       0       0       0       0
     Au         1       1       0       0       0       0
     B1u        9       9       0       0       0       0
     B2u        5       5       0       0       0       0
     B3u        5       5       0       0       0       0
   -------------------------------------------------------
    Total      42      42      11      11      11       0
   -------------------------------------------------------

  ==> Integral Setup <==

  ==> DiskDFJK: Density-Fitted J/K Matrices <==

    J tasked:                  Yes
    K tasked:                  Yes
    wK tasked:                 Yes
    Omega:               3.000E-01
    OpenMP threads:             24
    Integrals threads:          24
    Memory [MiB]:           102807
    Algorithm:                Core
    Integral Cache:           NONE
    Schwarz Cutoff:          1E-12
    Fitting Condition:       1E-10

   => Auxiliary Basis Set <=

  Basis Set: (CC-PV(D+D)Z AUX)
    Blend: CC-PVDZ-JKFIT
    Number of shells: 72
    Number of basis function: 210
    Number of Cartesian functions: 243
    Spherical Harmonics?: true
    Max angular momentum: 3

  Cached 100.0% of DFT collocation blocks in 0.184 [GiB].

  Minimum eigenvalue in the overlap matrix is 1.7706852265E-02.
  Using Symmetric Orthogonalization.

  SCF Guess: Orbitals guess was supplied from a previous computation.

  ==> Iterations <==

                           Total Energy        Delta E     RMS |[F,P]|

   @DF-RKS iter   0:  -188.54889778727517   -1.88549e+02   5.98263e-04 
   @DF-RKS iter   1:  -188.55469159548559   -5.79381e-03   1.31464e-04 DIIS
   @DF-RKS iter   2:  -188.55469357303932   -1.97755e-06   6.50243e-05 DIIS
   @DF-RKS iter   3:  -188.55469408910608   -5.16067e-07   1.83986e-05 DIIS
   @DF-RKS iter   4:  -188.55469412552583   -3.64197e-08   3.33015e-06 DIIS
   @DF-RKS iter   5:  -188.55469412792078   -2.39496e-09   3.43300e-07 DIIS
   @DF-RKS iter   6:  -188.55469412795858   -3.78009e-11   4.34522e-08 DIIS
   @DF-RKS iter   7:  -188.55469412795884   -2.55795e-13   1.97119e-09 DIIS
  Energy and wave function converged.


  ==> Post-Iterations <==

    Orbital Energies [Eh]
    ---------------------

    Doubly Occupied:                                                      

       1B1u  -19.425187     1Ag   -19.425166     2Ag   -10.551852  
       3Ag    -1.287574     2B1u   -1.244007     4Ag    -0.673127  
       3B1u   -0.623655     1B2u   -0.623068     1B3u   -0.623068  
       1B2g   -0.464886     1B3g   -0.464886  

    Virtual:                                                              

       2B2u    0.138408     2B3u    0.138408     5Ag     0.178355  
       4B1u    0.428376     3B3u    0.509656     3B2u    0.509656  
       6Ag     0.641974     5B1u    0.858997     7Ag     0.937280  
       2B3g    0.983416     2B2g    0.983416     1B1g    1.134530  
       8Ag     1.134531     4B3u    1.202924     4B2u    1.202924  
       6B1u    1.212892     3B3g    1.407486     3B2g    1.407486  
       9Ag     1.688818     7B1u    2.124864     8B1u    2.635706  
       1Au     2.635709    10Ag     2.765039     2B1g    2.765042  
      11Ag     2.827891     5B3u    2.855130     5B2u    2.855130  
      12Ag     3.478573     4B3g    3.585837     4B2g    3.585837  
       9B1u    3.625321  

    Final Occupation by Irrep:
             Ag   B1g   B2g   B3g    Au   B1u   B2u   B3u 
    DOCC [     4,    0,    1,    1,    0,    3,    1,    1 ]

  @DF-RKS Final Energy:  -188.55469412795884

   => Energetics <=

    Nuclear Repulsion Energy =             58.1608782314618935
    One-Electron Energy =                -372.3407399510708160
    Two-Electron Energy =                 141.9191600248361738
    DFT Exchange-Correlation Energy =     -16.3858232861644630
    Empirical Dispersion Energy =           0.0000000000000000
    VV10 Nonlocal Energy =                  0.0918308529783659
    Total Energy =                       -188.5546941279588395

Computation Completed


Properties will be evaluated at   0.000000,   0.000000,   0.000000 [a0]

Properties computed using the SCF density matrix

  Nuclear Dipole Moment: [e a0]
     X:    -0.0000      Y:     0.0000      Z:     0.0000

  Electronic Dipole Moment: [e a0]
     X:     0.0000      Y:     0.0000      Z:     0.0000

  Dipole Moment: [e a0]
     X:    -0.0000      Y:     0.0000      Z:     0.0000     Total:     0.0000

  Dipole Moment: [D]
     X:    -0.0000      Y:     0.0000      Z:     0.0000     Total:     0.0000


*** tstop() called on bp1-compute00116.data.bp.acrc.priv at Tue Apr 27 18:10:37 2021
Module time:
	user time   =      41.04 seconds =       0.68 minutes
	system time =       1.40 seconds =       0.02 minutes
	total time  =          2 seconds =       0.03 minutes
Total time:
	user time   =     213.66 seconds =       3.56 minutes
	system time =       8.78 seconds =       0.15 minutes
	total time  =          9 seconds =       0.15 minutes

  //>>>>>>>>>>>>>>>>>>>>>>>>>>>>>>>>>>>//
  //    Loading displacement 2 of 3    //
  //<<<<<<<<<<<<<<<<<<<<<<<<<<<<<<<<<<<//

*** tstart() called on bp1-compute00116.data.bp.acrc.priv
*** at Tue Apr 27 18:10:37 2021

   => Loading Basis Set <=

    Name: CC-PV(D+D)Z
    Role: ORBITAL
    Keyword: BASIS
    atoms 1   entry C          line   147 file /work/zw18965/.conda/envs/p4env/share/psi4/basis/cc-pv_dpd_z.gbs 
    atoms 2-3 entry O          line   207 file /work/zw18965/.conda/envs/p4env/share/psi4/basis/cc-pv_dpd_z.gbs 


         ---------------------------------------------------------
                                   SCF
               by Justin Turney, Rob Parrish, Andy Simmonett
                          and Daniel G. A. Smith
                              RKS Reference
                       24 Threads, 137329 MiB Core
         ---------------------------------------------------------

  ==> Geometry <==

    Molecular point group: d2h
    Full point group: D_inf_h

    Geometry (in Angstrom), charge = 0, multiplicity = 1:

       Center              X                  Y                   Z               Mass       
    ------------   -----------------  -----------------  -----------------  -----------------
         C            0.000000000000     0.000000000000     0.000000000000    12.000000000000
         O           -0.000000000000    -0.000000000000     1.164141207201    15.994914619570
         O           -0.000000000000    -0.000000000000    -1.164141207201    15.994914619570

  Running in d2h symmetry.

  Rotational constants: A = ************  B =      0.38884  C =      0.38884 [cm^-1]
  Rotational constants: A = ************  B =  11657.19209  C =  11657.19209 [MHz]
  Nuclear repulsion =   58.184249940429275

  Charge       = 0
  Multiplicity = 1
  Electrons    = 22
  Nalpha       = 11
  Nbeta        = 11

  ==> Algorithm <==

  SCF Algorithm Type is DF.
  DIIS enabled.
  MOM disabled.
  Fractional occupation disabled.
  Guess Type is READ.
  Energy threshold   = 1.00e-08
  Density threshold  = 1.00e-08
  Integral threshold = 0.00e+00

  ==> Primary Basis <==

  Basis Set: CC-PV(D+D)Z
    Blend: CC-PV(D+D)Z
    Number of shells: 18
    Number of basis function: 42
    Number of Cartesian functions: 45
    Spherical Harmonics?: true
    Max angular momentum: 2

  ==> DFT Potential <==

   => Composite Functional: WB97M-V <= 

    wB97M-V Hyb-GGA Exchange-Correlation Functional

    N. Mardirossian and M. Head-Gordon, J. Chem. Phys. 144, 214110 (2016)

    Deriv               =              1
    GGA                 =           TRUE
    Meta                =           TRUE

    Exchange Hybrid     =           TRUE
    MP2 Hybrid          =          FALSE

   => Exchange-Correlation Functionals <=

    1.0000   wB97M-V exchange-correlation functional

   => Exact (HF) Exchange <=

    0.8500            HF,LR [omega = 0.3000]
    0.1500               HF 

   => VV10 Non-Local Parameters <=

    VV10 B              =     6.0000E+00
    VV10 C              =     1.0000E-02

   => Molecular Quadrature <=

    Radial Scheme          =       TREUTLER
    Pruning Scheme         =           FLAT
    Nuclear Scheme         =       TREUTLER

    BS radius alpha        =              1
    Pruning alpha          =              1
    Radial Points          =             75
    Spherical Points       =            302
    Total Points           =          64496
    Total Blocks           =            557
    Max Points             =            254
    Max Functions          =             42

   => Loading Basis Set <=

    Name: (CC-PV(D+D)Z AUX)
    Role: JKFIT
    Keyword: DF_BASIS_SCF
    atoms 1   entry C          line   121 file /work/zw18965/.conda/envs/p4env/share/psi4/basis/cc-pvdz-jkfit.gbs 
    atoms 2-3 entry O          line   221 file /work/zw18965/.conda/envs/p4env/share/psi4/basis/cc-pvdz-jkfit.gbs 

   => Loading Basis Set <=

    Name: CC-PV(D+D)Z
    Role: ORBITAL
    Keyword: BASIS
    atoms 1   entry C          line   147 file /work/zw18965/.conda/envs/p4env/share/psi4/basis/cc-pv_dpd_z.gbs 
    atoms 2-3 entry O          line   207 file /work/zw18965/.conda/envs/p4env/share/psi4/basis/cc-pv_dpd_z.gbs 

  Reading orbitals from file 180, no projection.

  ==> Pre-Iterations <==

   -------------------------------------------------------
    Irrep   Nso     Nmo     Nalpha   Nbeta   Ndocc  Nsocc
   -------------------------------------------------------
     Ag        12      12       0       0       0       0
     B1g        2       2       0       0       0       0
     B2g        4       4       0       0       0       0
     B3g        4       4       0       0       0       0
     Au         1       1       0       0       0       0
     B1u        9       9       0       0       0       0
     B2u        5       5       0       0       0       0
     B3u        5       5       0       0       0       0
   -------------------------------------------------------
    Total      42      42      11      11      11       0
   -------------------------------------------------------

  ==> Integral Setup <==

  ==> DiskDFJK: Density-Fitted J/K Matrices <==

    J tasked:                  Yes
    K tasked:                  Yes
    wK tasked:                 Yes
    Omega:               3.000E-01
    OpenMP threads:             24
    Integrals threads:          24
    Memory [MiB]:           102807
    Algorithm:                Core
    Integral Cache:           NONE
    Schwarz Cutoff:          1E-12
    Fitting Condition:       1E-10

   => Auxiliary Basis Set <=

  Basis Set: (CC-PV(D+D)Z AUX)
    Blend: CC-PVDZ-JKFIT
    Number of shells: 72
    Number of basis function: 210
    Number of Cartesian functions: 243
    Spherical Harmonics?: true
    Max angular momentum: 3

  Cached 100.0% of DFT collocation blocks in 0.184 [GiB].

  Minimum eigenvalue in the overlap matrix is 1.7702982792E-02.
  Using Symmetric Orthogonalization.

  SCF Guess: Orbitals guess was supplied from a previous computation.

  ==> Iterations <==

                           Total Energy        Delta E     RMS |[F,P]|

   @DF-RKS iter   0:  -188.55603982449691   -1.88556e+02   1.39106e-04 
   @DF-RKS iter   1:  -188.55469249757874    1.34733e-03   3.05836e-05 DIIS
   @DF-RKS iter   2:  -188.55469260453660   -1.06958e-07   1.51305e-05 DIIS
   @DF-RKS iter   3:  -188.55469263247045   -2.79339e-08   4.27794e-06 DIIS
   @DF-RKS iter   4:  -188.55469263443888   -1.96843e-09   7.73678e-07 DIIS
   @DF-RKS iter   5:  -188.55469263456817   -1.29290e-10   7.97250e-08 DIIS
   @DF-RKS iter   6:  -188.55469263457016   -1.98952e-12   1.00377e-08 DIIS
   @DF-RKS iter   7:  -188.55469263457022   -5.68434e-14   4.53218e-10 DIIS
  Energy and wave function converged.


  ==> Post-Iterations <==

    Orbital Energies [Eh]
    ---------------------

    Doubly Occupied:                                                      

       1B1u  -19.425078     1Ag   -19.425057     2Ag   -10.551674  
       3Ag    -1.287786     2B1u   -1.244219     4Ag    -0.673043  
       3B1u   -0.623682     1B3u   -0.623230     1B2u   -0.623230  
       1B3g   -0.464900     1B2g   -0.464900  

    Virtual:                                                              

       2B3u    0.138744     2B2u    0.138744     5Ag     0.178564  
       4B1u    0.428391     3B3u    0.509598     3B2u    0.509598  
       6Ag     0.642321     5B1u    0.859358     7Ag     0.937338  
       2B2g    0.983311     2B3g    0.983311     1B1g    1.134505  
       8Ag     1.134505     4B3u    1.203050     4B2u    1.203050  
       6B1u    1.213905     3B3g    1.408059     3B2g    1.408059  
       9Ag     1.689052     7B1u    2.124757     8B1u    2.635672  
       1Au     2.635676    10Ag     2.765297     2B1g    2.765300  
      11Ag     2.829732     5B3u    2.855677     5B2u    2.855677  
      12Ag     3.478750     4B3g    3.586775     4B2g    3.586775  
       9B1u    3.626364  

    Final Occupation by Irrep:
             Ag   B1g   B2g   B3g    Au   B1u   B2u   B3u 
    DOCC [     4,    0,    1,    1,    0,    3,    1,    1 ]

  @DF-RKS Final Energy:  -188.55469263457022

   => Energetics <=

    Nuclear Repulsion Energy =             58.1842499404292752
    One-Electron Energy =                -372.3863900018901063
    Two-Electron Energy =                 141.9422063035343626
    DFT Exchange-Correlation Energy =     -16.3865895293153869
    Empirical Dispersion Energy =           0.0000000000000000
    VV10 Nonlocal Energy =                  0.0918306526716588
    Total Energy =                       -188.5546926345702161

Computation Completed


Properties will be evaluated at   0.000000,   0.000000,   0.000000 [a0]

Properties computed using the SCF density matrix

  Nuclear Dipole Moment: [e a0]
     X:    -0.0000      Y:     0.0000      Z:     0.0000

  Electronic Dipole Moment: [e a0]
     X:     0.0000      Y:     0.0000      Z:     0.0000

  Dipole Moment: [e a0]
     X:    -0.0000      Y:     0.0000      Z:     0.0000     Total:     0.0000

  Dipole Moment: [D]
     X:    -0.0000      Y:     0.0000      Z:     0.0000     Total:     0.0000


*** tstop() called on bp1-compute00116.data.bp.acrc.priv at Tue Apr 27 18:10:39 2021
Module time:
	user time   =      42.95 seconds =       0.72 minutes
	system time =       1.66 seconds =       0.03 minutes
	total time  =          2 seconds =       0.03 minutes
Total time:
	user time   =     256.74 seconds =       4.28 minutes
	system time =      10.44 seconds =       0.17 minutes
	total time  =         11 seconds =       0.18 minutes

  //>>>>>>>>>>>>>>>>>>>>>>>>>>>>>>>>>>>//
  //    Loading displacement 3 of 3    //
  //<<<<<<<<<<<<<<<<<<<<<<<<<<<<<<<<<<<//

*** tstart() called on bp1-compute00116.data.bp.acrc.priv
*** at Tue Apr 27 18:10:39 2021

   => Loading Basis Set <=

    Name: CC-PV(D+D)Z
    Role: ORBITAL
    Keyword: BASIS
    atoms 1   entry C          line   147 file /work/zw18965/.conda/envs/p4env/share/psi4/basis/cc-pv_dpd_z.gbs 
    atoms 2-3 entry O          line   207 file /work/zw18965/.conda/envs/p4env/share/psi4/basis/cc-pv_dpd_z.gbs 


         ---------------------------------------------------------
                                   SCF
               by Justin Turney, Rob Parrish, Andy Simmonett
                          and Daniel G. A. Smith
                              RKS Reference
                       24 Threads, 137329 MiB Core
         ---------------------------------------------------------

  ==> Geometry <==

    Molecular point group: d2h
    Full point group: D_inf_h

    Geometry (in Angstrom), charge = 0, multiplicity = 1:

       Center              X                  Y                   Z               Mass       
    ------------   -----------------  -----------------  -----------------  -----------------
         C            0.000000000000     0.000000000000     0.000000000000    12.000000000000
         O           -0.000000000000    -0.000000000000     1.165076817884    15.994914619570
         O           -0.000000000000    -0.000000000000    -1.165076817884    15.994914619570

  Running in d2h symmetry.

  Rotational constants: A = ************  B =      0.38822  C =      0.38822 [cm^-1]
  Rotational constants: A = ************  B =  11638.47708  C =  11638.47708 [MHz]
  Nuclear repulsion =   58.137525291060015

  Charge       = 0
  Multiplicity = 1
  Electrons    = 22
  Nalpha       = 11
  Nbeta        = 11

  ==> Algorithm <==

  SCF Algorithm Type is DF.
  DIIS enabled.
  MOM disabled.
  Fractional occupation disabled.
  Guess Type is READ.
  Energy threshold   = 1.00e-08
  Density threshold  = 1.00e-08
  Integral threshold = 0.00e+00

  ==> Primary Basis <==

  Basis Set: CC-PV(D+D)Z
    Blend: CC-PV(D+D)Z
    Number of shells: 18
    Number of basis function: 42
    Number of Cartesian functions: 45
    Spherical Harmonics?: true
    Max angular momentum: 2

  ==> DFT Potential <==

   => Composite Functional: WB97M-V <= 

    wB97M-V Hyb-GGA Exchange-Correlation Functional

    N. Mardirossian and M. Head-Gordon, J. Chem. Phys. 144, 214110 (2016)

    Deriv               =              1
    GGA                 =           TRUE
    Meta                =           TRUE

    Exchange Hybrid     =           TRUE
    MP2 Hybrid          =          FALSE

   => Exchange-Correlation Functionals <=

    1.0000   wB97M-V exchange-correlation functional

   => Exact (HF) Exchange <=

    0.8500            HF,LR [omega = 0.3000]
    0.1500               HF 

   => VV10 Non-Local Parameters <=

    VV10 B              =     6.0000E+00
    VV10 C              =     1.0000E-02

   => Molecular Quadrature <=

    Radial Scheme          =       TREUTLER
    Pruning Scheme         =           FLAT
    Nuclear Scheme         =       TREUTLER

    BS radius alpha        =              1
    Pruning alpha          =              1
    Radial Points          =             75
    Spherical Points       =            302
    Total Points           =          64496
    Total Blocks           =            557
    Max Points             =            254
    Max Functions          =             42

   => Loading Basis Set <=

    Name: (CC-PV(D+D)Z AUX)
    Role: JKFIT
    Keyword: DF_BASIS_SCF
    atoms 1   entry C          line   121 file /work/zw18965/.conda/envs/p4env/share/psi4/basis/cc-pvdz-jkfit.gbs 
    atoms 2-3 entry O          line   221 file /work/zw18965/.conda/envs/p4env/share/psi4/basis/cc-pvdz-jkfit.gbs 

   => Loading Basis Set <=

    Name: CC-PV(D+D)Z
    Role: ORBITAL
    Keyword: BASIS
    atoms 1   entry C          line   147 file /work/zw18965/.conda/envs/p4env/share/psi4/basis/cc-pv_dpd_z.gbs 
    atoms 2-3 entry O          line   207 file /work/zw18965/.conda/envs/p4env/share/psi4/basis/cc-pv_dpd_z.gbs 

  Reading orbitals from file 180, no projection.

  ==> Pre-Iterations <==

   -------------------------------------------------------
    Irrep   Nso     Nmo     Nalpha   Nbeta   Ndocc  Nsocc
   -------------------------------------------------------
     Ag        12      12       0       0       0       0
     B1g        2       2       0       0       0       0
     B2g        4       4       0       0       0       0
     B3g        4       4       0       0       0       0
     Au         1       1       0       0       0       0
     B1u        9       9       0       0       0       0
     B2u        5       5       0       0       0       0
     B3u        5       5       0       0       0       0
   -------------------------------------------------------
    Total      42      42      11      11      11       0
   -------------------------------------------------------

  ==> Integral Setup <==

  ==> DiskDFJK: Density-Fitted J/K Matrices <==

    J tasked:                  Yes
    K tasked:                  Yes
    wK tasked:                 Yes
    Omega:               3.000E-01
    OpenMP threads:             24
    Integrals threads:          24
    Memory [MiB]:           102807
    Algorithm:                Core
    Integral Cache:           NONE
    Schwarz Cutoff:          1E-12
    Fitting Condition:       1E-10

   => Auxiliary Basis Set <=

  Basis Set: (CC-PV(D+D)Z AUX)
    Blend: CC-PVDZ-JKFIT
    Number of shells: 72
    Number of basis function: 210
    Number of Cartesian functions: 243
    Spherical Harmonics?: true
    Max angular momentum: 3

  Cached 100.0% of DFT collocation blocks in 0.184 [GiB].

  Minimum eigenvalue in the overlap matrix is 1.7710733523E-02.
  Using Symmetric Orthogonalization.

  SCF Guess: Orbitals guess was supplied from a previous computation.

  ==> Iterations <==

                           Total Energy        Delta E     RMS |[F,P]|

   @DF-RKS iter   0:  -188.55334637744775   -1.88553e+02   1.38931e-04 
   @DF-RKS iter   1:  -188.55469366132053   -1.34728e-03   3.06000e-05 DIIS
   @DF-RKS iter   2:  -188.55469376835777   -1.07037e-07   1.51501e-05 DIIS
   @DF-RKS iter   3:  -188.55469379635866   -2.80009e-08   4.30430e-06 DIIS
   @DF-RKS iter   4:  -188.55469379835242   -1.99375e-09   7.72766e-07 DIIS
   @DF-RKS iter   5:  -188.55469379848191   -1.29489e-10   8.01032e-08 DIIS
   @DF-RKS iter   6:  -188.55469379848404   -2.13163e-12   1.01097e-08 DIIS
   @DF-RKS iter   7:  -188.55469379848418   -1.42109e-13   4.57142e-10 DIIS
  Energy and wave function converged.


  ==> Post-Iterations <==

    Orbital Energies [Eh]
    ---------------------

    Doubly Occupied:                                                      

       1B1u  -19.425297     1Ag   -19.425275     2Ag   -10.552031  
       3Ag    -1.287363     2B1u   -1.243796     4Ag    -0.673212  
       3B1u   -0.623627     1B2u   -0.622907     1B3u   -0.622907  
       1B3g   -0.464871     1B2g   -0.464871  

    Virtual:                                                              

       2B2u    0.138072     2B3u    0.138072     5Ag     0.178145  
       4B1u    0.428361     3B2u    0.509714     3B3u    0.509714  
       6Ag     0.641627     5B1u    0.858634     7Ag     0.937222  
       2B3g    0.983521     2B2g    0.983521     1B1g    1.134556  
       8Ag     1.134556     4B2u    1.202798     4B3u    1.202798  
       6B1u    1.211883     3B3g    1.406915     3B2g    1.406915  
       9Ag     1.688585     7B1u    2.124971     8B1u    2.635740  
       1Au     2.635743    10Ag     2.764781     2B1g    2.764784  
      11Ag     2.826051     5B2u    2.854584     5B3u    2.854584  
      12Ag     3.478398     4B3g    3.584898     4B2g    3.584898  
       9B1u    3.624279  

    Final Occupation by Irrep:
             Ag   B1g   B2g   B3g    Au   B1u   B2u   B3u 
    DOCC [     4,    0,    1,    1,    0,    3,    1,    1 ]

  @DF-RKS Final Energy:  -188.55469379848418

   => Energetics <=

    Nuclear Repulsion Energy =             58.1375252910600153
    One-Electron Energy =                -372.2951233113707303
    Two-Electron Energy =                 141.8961310899835837
    DFT Exchange-Correlation Energy =     -16.3850579220947239
    Empirical Dispersion Energy =           0.0000000000000000
    VV10 Nonlocal Energy =                  0.0918310539376661
    Total Energy =                       -188.5546937984842089

Computation Completed


Properties will be evaluated at   0.000000,   0.000000,   0.000000 [a0]

Properties computed using the SCF density matrix

  Nuclear Dipole Moment: [e a0]
     X:    -0.0000      Y:     0.0000      Z:     0.0000

  Electronic Dipole Moment: [e a0]
     X:     0.0000      Y:     0.0000      Z:     0.0000

  Dipole Moment: [e a0]
     X:    -0.0000      Y:     0.0000      Z:     0.0000     Total:     0.0000

  Dipole Moment: [D]
     X:    -0.0000      Y:     0.0000      Z:     0.0000     Total:     0.0000


*** tstop() called on bp1-compute00116.data.bp.acrc.priv at Tue Apr 27 18:10:41 2021
Module time:
	user time   =      40.85 seconds =       0.68 minutes
	system time =       1.27 seconds =       0.02 minutes
	total time  =          2 seconds =       0.03 minutes
Total time:
	user time   =     297.72 seconds =       4.96 minutes
	system time =      11.72 seconds =       0.20 minutes
	total time  =         13 seconds =       0.22 minutes

         ----------------------------------------------------------
                                   FINDIF
                     R. A. King and Jonathon Misiewicz
         ---------------------------------------------------------

  Computing gradient from energies.
    Using 3-point formula.
    Energy without displacement: -188.5546941280
    Check energies below for precision!
    Forces are for mass-weighted, symmetry-adapted cartesians (in au).

     Coord      Energy(-1)        Energy(+1)            Force
        0   -188.5546926346   -188.5546937985     -0.0001163914


-------------------------------------------------------------
  ## New Matrix (Symmetry 0) ##
  Irrep: 1 Size: 3 x 3

                 1                   2                   3

    1     0.00000000000000     0.00000000000000     0.00000000000000
    2     0.00000000000000     0.00000000000000    -0.00032915226202
    3     0.00000000000000     0.00000000000000     0.00032915226202




			-----------------------------------------
			 OPTKING 2.0: for geometry optimizations 
			  - R.A. King,  Bethel University        
			-----------------------------------------
	At level 1: Red. Int., RFO, no backsteps, dynamic trust

	Previous internal coordinate definitions found.
	---Fragment 1 Geometry and Gradient---
	 C          -0.0000000000       -0.0000000000        0.0000000000
	 O           0.0000000000        0.0000000000        2.2007920769
	 O           0.0000000000        0.0000000000       -2.2007920769
	             0.0000000000        0.0000000000        0.0000000000
	             0.0000000000        0.0000000000       -0.0003291523
	             0.0000000000        0.0000000000        0.0003291523

	---Fragment 1 Intrafragment Coordinates---
	 - Coordinate -           - BOHR/RAD -       - ANG/DEG -
	 R(1,2)           =         2.200792	       1.164609
	 R(1,3)           =         2.200792	       1.164609
	 L(2,1,3)         =         3.141593	     180.000000
	 l(2,1,3)         =         3.141593	     180.000000

	Current energy   :      -188.5546941280

	Energy change for the previous step:
		Projected    :        -0.0000363524
		Actual       :        -0.0000193831

	Performing BFGS update.
	Previous computed or guess Hessian on step 1.
	Steps to be used in Hessian update: 1
	Taking RFO optimization step.
	Going to follow RFO solution 1.
	Using RFO vector 1.
	Norm of target step-size    0.00040
	Projected energy change by RFO approximation:        -0.0000001845

	Back-transformation to cartesian coordinates...
	Successfully converged to displaced geometry.

	--- Internal Coordinate Step in ANG or DEG, aJ/ANG or AJ/DEG ---
	 ---------------------------------------------------------------------------
	   Coordinate                Previous        Force       Change         New 
	   ----------                --------       ------       ------       ------
	    1 R(1,2)          =      1.164609     0.002712     0.000148     1.164757
	    2 R(1,3)          =      1.164609     0.002712     0.000148     1.164757
	    3 L(2,1,3)        =    180.000000     0.000000     0.000000   180.000000
	    4 l(2,1,3)        =    180.000000    -0.000000     0.000000   180.000000
	 ---------------------------------------------------------------------------
	Successfully symmetrized geometry.

  ==> Convergence Check <==

  Measures of convergence in internal coordinates in au.
  Criteria marked as inactive (o), active & met (*), and active & unmet ( ).
  ---------------------------------------------------------------------------------------------
   Step     Total Energy     Delta E     MAX Force     RMS Force      MAX Disp      RMS Disp   
  ---------------------------------------------------------------------------------------------
    Convergence Criteria    1.00e-06 *    3.00e-04 *             o    1.20e-03 *             o
  ---------------------------------------------------------------------------------------------
      2    -188.55469413   -1.94e-05      3.29e-04      2.33e-04 o    2.80e-04 *    1.98e-04 o  ~
  ---------------------------------------------------------------------------------------------

	Writing optimization data to binary file.
	Structure for next step:
	Cartesian Geometry (in Angstrom)
	    C     0.0000000000   0.0000000000   0.0000000000
	    O     0.0000000000  -0.0000000000   1.1647573207
	    O     0.0000000000  -0.0000000000  -1.1647573207
			--------------------------
			 OPTKING Finished Execution 
			--------------------------

    Structure for next step:
    Molecular point group: d2h
    Full point group: D_inf_h

    Geometry (in Angstrom), charge = 0, multiplicity = 1:

    C            0.000000000000     0.000000000000     0.000000000000
    O           -0.000000000000     0.000000000000     1.164757325292
    O           -0.000000000000     0.000000000000    -1.164757325292

gradient() will perform gradient computation by finite difference of analytic energies.

         ----------------------------------------------------------
                                   FINDIF
                     R. A. King and Jonathon Misiewicz
         ---------------------------------------------------------

  Using finite-differences of energies to determine gradients.
    Generating geometries for use with 3-point formula.
    Displacement size will be 5.00e-03.
    Number of atoms is 3.
    Number of symmetric SALCs is 1.
    Translations projected? 1. Rotations projected? 1.
    Number of geometries (including reference) is 3.

  //>>>>>>>>>>>>>>>>>>>>>>>>>>>>>>>>>>>//
  //    Loading displacement 1 of 3    //
  //<<<<<<<<<<<<<<<<<<<<<<<<<<<<<<<<<<<//

*** tstart() called on bp1-compute00116.data.bp.acrc.priv
*** at Tue Apr 27 18:10:41 2021

   => Loading Basis Set <=

    Name: CC-PV(D+D)Z
    Role: ORBITAL
    Keyword: BASIS
    atoms 1   entry C          line   147 file /work/zw18965/.conda/envs/p4env/share/psi4/basis/cc-pv_dpd_z.gbs 
    atoms 2-3 entry O          line   207 file /work/zw18965/.conda/envs/p4env/share/psi4/basis/cc-pv_dpd_z.gbs 


         ---------------------------------------------------------
                                   SCF
               by Justin Turney, Rob Parrish, Andy Simmonett
                          and Daniel G. A. Smith
                              RKS Reference
                       24 Threads, 137329 MiB Core
         ---------------------------------------------------------

  ==> Geometry <==

    Molecular point group: d2h
    Full point group: D_inf_h

    Geometry (in Angstrom), charge = 0, multiplicity = 1:

       Center              X                  Y                   Z               Mass       
    ------------   -----------------  -----------------  -----------------  -----------------
         C           -0.000000000000     0.000000000000     0.000000000000    12.000000000000
         O            0.000000000000     0.000000000000     1.164757325292    15.994914619570
         O            0.000000000000     0.000000000000    -1.164757325292    15.994914619570

  Running in d2h symmetry.

  Rotational constants: A = ************  B =      0.38843  C =      0.38843 [cm^-1]
  Rotational constants: A = ************  B =  11644.86281  C =  11644.86281 [MHz]
  Nuclear repulsion =   58.153472397145535

  Charge       = 0
  Multiplicity = 1
  Electrons    = 22
  Nalpha       = 11
  Nbeta        = 11

  ==> Algorithm <==

  SCF Algorithm Type is DF.
  DIIS enabled.
  MOM disabled.
  Fractional occupation disabled.
  Guess Type is READ.
  Energy threshold   = 1.00e-08
  Density threshold  = 1.00e-08
  Integral threshold = 0.00e+00

  ==> Primary Basis <==

  Basis Set: CC-PV(D+D)Z
    Blend: CC-PV(D+D)Z
    Number of shells: 18
    Number of basis function: 42
    Number of Cartesian functions: 45
    Spherical Harmonics?: true
    Max angular momentum: 2

  ==> DFT Potential <==

   => Composite Functional: WB97M-V <= 

    wB97M-V Hyb-GGA Exchange-Correlation Functional

    N. Mardirossian and M. Head-Gordon, J. Chem. Phys. 144, 214110 (2016)

    Deriv               =              1
    GGA                 =           TRUE
    Meta                =           TRUE

    Exchange Hybrid     =           TRUE
    MP2 Hybrid          =          FALSE

   => Exchange-Correlation Functionals <=

    1.0000   wB97M-V exchange-correlation functional

   => Exact (HF) Exchange <=

    0.8500            HF,LR [omega = 0.3000]
    0.1500               HF 

   => VV10 Non-Local Parameters <=

    VV10 B              =     6.0000E+00
    VV10 C              =     1.0000E-02

   => Molecular Quadrature <=

    Radial Scheme          =       TREUTLER
    Pruning Scheme         =           FLAT
    Nuclear Scheme         =       TREUTLER

    BS radius alpha        =              1
    Pruning alpha          =              1
    Radial Points          =             75
    Spherical Points       =            302
    Total Points           =          64496
    Total Blocks           =            557
    Max Points             =            254
    Max Functions          =             42

   => Loading Basis Set <=

    Name: (CC-PV(D+D)Z AUX)
    Role: JKFIT
    Keyword: DF_BASIS_SCF
    atoms 1   entry C          line   121 file /work/zw18965/.conda/envs/p4env/share/psi4/basis/cc-pvdz-jkfit.gbs 
    atoms 2-3 entry O          line   221 file /work/zw18965/.conda/envs/p4env/share/psi4/basis/cc-pvdz-jkfit.gbs 

   => Loading Basis Set <=

    Name: CC-PV(D+D)Z
    Role: ORBITAL
    Keyword: BASIS
    atoms 1   entry C          line   147 file /work/zw18965/.conda/envs/p4env/share/psi4/basis/cc-pv_dpd_z.gbs 
    atoms 2-3 entry O          line   207 file /work/zw18965/.conda/envs/p4env/share/psi4/basis/cc-pv_dpd_z.gbs 

  Reading orbitals from file 180, no projection.

  ==> Pre-Iterations <==

   -------------------------------------------------------
    Irrep   Nso     Nmo     Nalpha   Nbeta   Ndocc  Nsocc
   -------------------------------------------------------
     Ag        12      12       0       0       0       0
     B1g        2       2       0       0       0       0
     B2g        4       4       0       0       0       0
     B3g        4       4       0       0       0       0
     Au         1       1       0       0       0       0
     B1u        9       9       0       0       0       0
     B2u        5       5       0       0       0       0
     B3u        5       5       0       0       0       0
   -------------------------------------------------------
    Total      42      42      11      11      11       0
   -------------------------------------------------------

  ==> Integral Setup <==

  ==> DiskDFJK: Density-Fitted J/K Matrices <==

    J tasked:                  Yes
    K tasked:                  Yes
    wK tasked:                 Yes
    Omega:               3.000E-01
    OpenMP threads:             24
    Integrals threads:          24
    Memory [MiB]:           102807
    Algorithm:                Core
    Integral Cache:           NONE
    Schwarz Cutoff:          1E-12
    Fitting Condition:       1E-10

   => Auxiliary Basis Set <=

  Basis Set: (CC-PV(D+D)Z AUX)
    Blend: CC-PVDZ-JKFIT
    Number of shells: 72
    Number of basis function: 210
    Number of Cartesian functions: 243
    Spherical Harmonics?: true
    Max angular momentum: 3

  Cached 100.0% of DFT collocation blocks in 0.184 [GiB].

  Minimum eigenvalue in the overlap matrix is 1.7708081499E-02.
  Using Symmetric Orthogonalization.

  SCF Guess: Orbitals guess was supplied from a previous computation.

  ==> Iterations <==

                           Total Energy        Delta E     RMS |[F,P]|

   @DF-RKS iter   0:  -188.55426705993264   -1.88554e+02   4.40655e-05 
   @DF-RKS iter   1:  -188.55469420666114   -4.27147e-04   9.69969e-06 DIIS
   @DF-RKS iter   2:  -188.55469421741725   -1.07561e-08   4.80116e-06 DIIS
   @DF-RKS iter   3:  -188.55469422022963   -2.81238e-09   1.36185e-06 DIIS
   @DF-RKS iter   4:  -188.55469422042907   -1.99435e-10   2.45089e-07 DIIS
   @DF-RKS iter   5:  -188.55469422044217   -1.31024e-11   2.53552e-08 DIIS
   @DF-RKS iter   6:  -188.55469422044231   -1.42109e-13   3.19733e-09 DIIS
  Energy and wave function converged.


  ==> Post-Iterations <==

    Orbital Energies [Eh]
    ---------------------

    Doubly Occupied:                                                      

       1B1u  -19.425222     1Ag   -19.425201     2Ag   -10.551909  
       3Ag    -1.287507     2B1u   -1.243940     4Ag    -0.673154  
       3B1u   -0.623646     1B2u   -0.623017     1B3u   -0.623017  
       1B2g   -0.464881     1B3g   -0.464881  

    Virtual:                                                              

       2B3u    0.138301     2B2u    0.138301     5Ag     0.178288  
       4B1u    0.428371     3B2u    0.509675     3B3u    0.509675  
       6Ag     0.641864     5B1u    0.858882     7Ag     0.937262  
       2B3g    0.983449     2B2g    0.983449     1B1g    1.134538  
       8Ag     1.134539     4B2u    1.202884     4B3u    1.202884  
       6B1u    1.212572     3B3g    1.407305     3B2g    1.407305  
       9Ag     1.688744     7B1u    2.124898     8B1u    2.635717  
       1Au     2.635720    10Ag     2.764957     2B1g    2.764960  
      11Ag     2.827307     5B2u    2.854957     5B3u    2.854957  
      12Ag     3.478518     4B2g    3.585539     4B3g    3.585539  
       9B1u    3.624991  

    Final Occupation by Irrep:
             Ag   B1g   B2g   B3g    Au   B1u   B2u   B3u 
    DOCC [     4,    0,    1,    1,    0,    3,    1,    1 ]

  @DF-RKS Final Energy:  -188.55469422044231

   => Energetics <=

    Nuclear Repulsion Energy =             58.1534723971455350
    One-Electron Energy =                -372.3262740491454110
    Two-Electron Energy =                 141.9118570562430364
    DFT Exchange-Correlation Energy =     -16.3855805413103184
    Empirical Dispersion Energy =           0.0000000000000000
    VV10 Nonlocal Energy =                  0.0918309166248252
    Total Energy =                       -188.5546942204423431

Computation Completed


Properties will be evaluated at   0.000000,   0.000000,   0.000000 [a0]

Properties computed using the SCF density matrix

  Nuclear Dipole Moment: [e a0]
     X:     0.0000      Y:    -0.0000      Z:     0.0000

  Electronic Dipole Moment: [e a0]
     X:     0.0000      Y:     0.0000      Z:     0.0000

  Dipole Moment: [e a0]
     X:     0.0000      Y:    -0.0000      Z:     0.0000     Total:     0.0000

  Dipole Moment: [D]
     X:     0.0000      Y:    -0.0000      Z:     0.0000     Total:     0.0000


*** tstop() called on bp1-compute00116.data.bp.acrc.priv at Tue Apr 27 18:10:42 2021
Module time:
	user time   =      37.89 seconds =       0.63 minutes
	system time =       1.31 seconds =       0.02 minutes
	total time  =          1 seconds =       0.02 minutes
Total time:
	user time   =     335.96 seconds =       5.60 minutes
	system time =      13.05 seconds =       0.22 minutes
	total time  =         14 seconds =       0.23 minutes

[...]
       1A2    -0.464881     4B2    -0.464881  

    Virtual:                                                              

       6A1     0.138297     2B1     0.138301     7A1     0.178292  
       5B2     0.428371     3B1     0.509675     8A1     0.509675  
       9A1     0.641864     6B2     0.858882    10A1     0.937262  
       2A2     0.983449     7B2     0.983450     4B1     1.134539  
      11A1     1.134539    12A1     1.202883     5B1     1.202884  
       8B2     1.212567     3A2     1.407304     9B2     1.407310  
      13A1     1.688745    10B2     2.124896    11B2     2.635717  
       4A2     2.635720    14A1     2.764956     6B1     2.764959  
      15A1     2.827216     7B1     2.854958    16A1     2.855046  
      17A1     3.478518    12B2     3.585537     5A2     3.585538  
      13B2     3.624990  

    Final Occupation by Irrep:
             A1    A2    B1    B2 
    DOCC [     5,    1,    1,    4 ]

  @DF-RKS Final Energy:  -188.55469401145621

   => Energetics <=

    Nuclear Repulsion Energy =             58.1534595016745470
    One-Electron Energy =                -372.3262493351447802
    Two-Electron Energy =                 141.9118448972889723
    DFT Exchange-Correlation Energy =     -16.3855799913438354
    Empirical Dispersion Energy =           0.0000000000000000
    VV10 Nonlocal Energy =                  0.0918309160688860
    Total Energy =                       -188.5546940114562062

Computation Completed


Properties will be evaluated at   0.000000,   0.000000,   0.000000 [a0]

Properties computed using the SCF density matrix

  Nuclear Dipole Moment: [e a0]
     X:     0.0000      Y:     0.0000      Z:     0.0000

  Electronic Dipole Moment: [e a0]
     X:     0.0000      Y:    -0.0009      Z:     0.0000

  Dipole Moment: [e a0]
     X:     0.0000      Y:    -0.0009      Z:     0.0000     Total:     0.0009

  Dipole Moment: [D]
     X:     0.0000      Y:    -0.0023      Z:     0.0000     Total:     0.0023


*** tstop() called on bp1-compute00116.data.bp.acrc.priv at Tue Apr 27 18:11:06 2021
Module time:
	user time   =      59.11 seconds =       0.99 minutes
	system time =       1.80 seconds =       0.03 minutes
	total time  =          2 seconds =       0.03 minutes
Total time:
	user time   =     887.80 seconds =      14.80 minutes
	system time =      30.83 seconds =       0.51 minutes
	total time  =         38 seconds =       0.63 minutes

  //>>>>>>>>>>>>>>>>>>>>>>>>>>>>>>>>>>>//
  //    Loading displacement 6 of 6    //
  //<<<<<<<<<<<<<<<<<<<<<<<<<<<<<<<<<<<//

*** tstart() called on bp1-compute00116.data.bp.acrc.priv
*** at Tue Apr 27 18:11:06 2021

   => Loading Basis Set <=

    Name: CC-PV(D+D)Z
    Role: ORBITAL
    Keyword: BASIS
    atoms 1   entry C          line   147 file /work/zw18965/.conda/envs/p4env/share/psi4/basis/cc-pv_dpd_z.gbs 
    atoms 2-3 entry O          line   207 file /work/zw18965/.conda/envs/p4env/share/psi4/basis/cc-pv_dpd_z.gbs 


         ---------------------------------------------------------
                                   SCF
               by Justin Turney, Rob Parrish, Andy Simmonett
                          and Daniel G. A. Smith
                              RKS Reference
                       24 Threads, 137329 MiB Core
         ---------------------------------------------------------

  ==> Geometry <==

    Molecular point group: c2v
    Full point group: C2v

    Geometry (in Angstrom), charge = 0, multiplicity = 1:

       Center              X                  Y                   Z               Mass       
    ------------   -----------------  -----------------  -----------------  -----------------
         C           -0.000651343880     0.000000000000     0.000000000000    12.000000000000
         O            0.000244331612     0.000000000000     1.164757325292    15.994914619570
         O            0.000244331612     0.000000000000    -1.164757325292    15.994914619570

  Running in c2v symmetry.

  Rotational constants: A = 2407987.46702  B =      0.38843  C =      0.38843 [cm^-1]
  Rotational constants: A = 72189648157.17372  B =  11644.86281  C =  11644.86094 [MHz]
  Nuclear repulsion =   58.153459501674547

  Charge       = 0
  Multiplicity = 1
  Electrons    = 22
  Nalpha       = 11
  Nbeta        = 11

  ==> Algorithm <==

  SCF Algorithm Type is DF.
  DIIS enabled.
  MOM disabled.
  Fractional occupation disabled.
  Guess Type is SAD.
  Energy threshold   = 1.00e-10
  Density threshold  = 1.00e-10
  Integral threshold = 0.00e+00

  ==> Primary Basis <==

  Basis Set: CC-PV(D+D)Z
    Blend: CC-PV(D+D)Z
    Number of shells: 18
    Number of basis function: 42
    Number of Cartesian functions: 45
    Spherical Harmonics?: true
    Max angular momentum: 2

  ==> DFT Potential <==

   => Composite Functional: WB97M-V <= 

    wB97M-V Hyb-GGA Exchange-Correlation Functional

    N. Mardirossian and M. Head-Gordon, J. Chem. Phys. 144, 214110 (2016)

    Deriv               =              1
    GGA                 =           TRUE
    Meta                =           TRUE

    Exchange Hybrid     =           TRUE
    MP2 Hybrid          =          FALSE

   => Exchange-Correlation Functionals <=

    1.0000   wB97M-V exchange-correlation functional

   => Exact (HF) Exchange <=

    0.8500            HF,LR [omega = 0.3000]
    0.1500               HF 

   => VV10 Non-Local Parameters <=

    VV10 B              =     6.0000E+00
    VV10 C              =     1.0000E-02

   => Molecular Quadrature <=

    Radial Scheme          =       TREUTLER
    Pruning Scheme         =           FLAT
    Nuclear Scheme         =       TREUTLER

    BS radius alpha        =              1
    Pruning alpha          =              1
    Radial Points          =             75
    Spherical Points       =            302
    Total Points           =          64496
    Total Blocks           =            559
    Max Points             =            256
    Max Functions          =             42

   => Loading Basis Set <=

    Name: (CC-PV(D+D)Z AUX)
    Role: JKFIT
    Keyword: DF_BASIS_SCF
    atoms 1   entry C          line   121 file /work/zw18965/.conda/envs/p4env/share/psi4/basis/cc-pvdz-jkfit.gbs 
    atoms 2-3 entry O          line   221 file /work/zw18965/.conda/envs/p4env/share/psi4/basis/cc-pvdz-jkfit.gbs 

  ==> Pre-Iterations <==

   -------------------------------------------------------
    Irrep   Nso     Nmo     Nalpha   Nbeta   Ndocc  Nsocc
   -------------------------------------------------------
     A1        17      17       0       0       0       0
     A2         5       5       0       0       0       0
     B1         7       7       0       0       0       0
     B2        13      13       0       0       0       0
   -------------------------------------------------------
    Total      42      42      11      11      11       0
   -------------------------------------------------------

  ==> Integral Setup <==

  ==> DiskDFJK: Density-Fitted J/K Matrices <==

    J tasked:                  Yes
    K tasked:                  Yes
    wK tasked:                 Yes
    Omega:               3.000E-01
    OpenMP threads:             24
    Integrals threads:          24
    Memory [MiB]:           102807
    Algorithm:                Core
    Integral Cache:           NONE
    Schwarz Cutoff:          1E-12
    Fitting Condition:       1E-10

   => Auxiliary Basis Set <=

  Basis Set: (CC-PV(D+D)Z AUX)
    Blend: CC-PVDZ-JKFIT
    Number of shells: 72
    Number of basis function: 210
    Number of Cartesian functions: 243
    Spherical Harmonics?: true
    Max angular momentum: 3

  Cached 100.0% of DFT collocation blocks in 0.185 [GiB].

  Minimum eigenvalue in the overlap matrix is 1.7708112779E-02.
  Using Symmetric Orthogonalization.

  SCF Guess: Superposition of Atomic Densities via on-the-fly atomic UHF.

  ==> Iterations <==

                           Total Energy        Delta E     RMS |[F,P]|

   @DF-RKS iter SAD:  -187.91198619015472   -1.87912e+02   0.00000e+00 
   @DF-RKS iter   1:  -188.45071278903833   -5.38727e-01   2.36448e-02 DIIS
   @DF-RKS iter   2:  -188.41524769275611    3.54651e-02   2.78801e-02 DIIS
   @DF-RKS iter   3:  -188.55456378771294   -1.39316e-01   7.12723e-04 DIIS
   @DF-RKS iter   4:  -188.55468450801396   -1.20720e-04   2.01471e-04 DIIS
   @DF-RKS iter   5:  -188.55469386406833   -9.35605e-06   1.97919e-05 DIIS
   @DF-RKS iter   6:  -188.55469400462010   -1.40552e-07   3.34470e-06 DIIS
   @DF-RKS iter   7:  -188.55469401130699   -6.68689e-09   6.14750e-07 DIIS
   @DF-RKS iter   8:  -188.55469401150583   -1.98838e-10   5.17037e-08 DIIS
   @DF-RKS iter   9:  -188.55469401150717   -1.33582e-12   4.29367e-09 DIIS
   @DF-RKS iter  10:  -188.55469401150705    1.13687e-13   3.41899e-10 DIIS
   @DF-RKS iter  11:  -188.55469401150705    0.00000e+00   3.85605e-11 DIIS
  Energy and wave function converged.


  ==> Post-Iterations <==

    Orbital Energies [Eh]
    ---------------------

    Doubly Occupied:                                                      

       1B2   -19.425222     1A1   -19.425201     2A1   -10.551909  
       3A1    -1.287507     2B2    -1.243940     4A1    -0.673154  
       3B2    -0.623646     5A1    -0.623017     1B1    -0.623017  
       1A2    -0.464881     4B2    -0.464881  

    Virtual:                                                              

       6A1     0.138297     2B1     0.138301     7A1     0.178292  
       5B2     0.428371     3B1     0.509675     8A1     0.509675  
       9A1     0.641864     6B2     0.858882    10A1     0.937262  
       2A2     0.983449     7B2     0.983450     4B1     1.134539  
      11A1     1.134539    12A1     1.202883     5B1     1.202884  
       8B2     1.212567     3A2     1.407304     9B2     1.407310  
      13A1     1.688745    10B2     2.124896    11B2     2.635717  
       4A2     2.635720    14A1     2.764956     6B1     2.764959  
      15A1     2.827216     7B1     2.854958    16A1     2.855046  
      17A1     3.478518    12B2     3.585537     5A2     3.585538  
      13B2     3.624990  

    Final Occupation by Irrep:
             A1    A2    B1    B2 
    DOCC [     5,    1,    1,    4 ]

  @DF-RKS Final Energy:  -188.55469401150705

   => Energetics <=

    Nuclear Repulsion Energy =             58.1534595016745470
    One-Electron Energy =                -372.3262493351560352
    Two-Electron Energy =                 141.9118448972501483
    DFT Exchange-Correlation Energy =     -16.3855799913446099
    Empirical Dispersion Energy =           0.0000000000000000
    VV10 Nonlocal Energy =                  0.0918309160688867
    Total Energy =                       -188.5546940115070527

Computation Completed


Properties will be evaluated at   0.000000,   0.000000,   0.000000 [a0]

Properties computed using the SCF density matrix

  Nuclear Dipole Moment: [e a0]
     X:     0.0000      Y:     0.0000      Z:     0.0000

  Electronic Dipole Moment: [e a0]
     X:    -0.0009      Y:     0.0000      Z:     0.0000

  Dipole Moment: [e a0]
     X:    -0.0009      Y:     0.0000      Z:     0.0000     Total:     0.0009

  Dipole Moment: [D]
     X:    -0.0023      Y:     0.0000      Z:     0.0000     Total:     0.0023


*** tstop() called on bp1-compute00116.data.bp.acrc.priv at Tue Apr 27 18:11:09 2021
Module time:
	user time   =      59.03 seconds =       0.98 minutes
	system time =       1.77 seconds =       0.03 minutes
	total time  =          3 seconds =       0.05 minutes
Total time:
	user time   =     946.97 seconds =      15.78 minutes
	system time =      32.60 seconds =       0.54 minutes
	total time  =         41 seconds =       0.68 minutes

         ----------------------------------------------------------
                                   FINDIF
                     R. A. King and Jonathon Misiewicz
         ---------------------------------------------------------

  Computing second-derivative from energies using projected, 
  symmetry-adapted, cartesian coordinates.

  6 energies passed in, including the reference geometry.
    Using 3-point formula.
    Energy without displacement: -188.5546942204
    Check energies below for precision!
    0: -1 :      -188.5546933057
    0: 1  :      -188.5546933142
    1: -1 :      -188.5546914035
    2: -1 :      -188.5546940115
    3: -1 :      -188.5546940115

-------------------------------------------------------------


  ==> Harmonic Vibrational Analysis <==

  non-mass-weighted Hessian:       Symmetric? True   Hermitian? True   Lin Dep Dim?  5 (0)
  projection of translations (True) and rotations (True) removed 5 degrees of freedom (5)
  total projector:                 Symmetric? True   Hermitian? True   Lin Dep Dim?  5 (5)
  mass-weighted Hessian:           Symmetric? True   Hermitian? True   Lin Dep Dim?  5 (0)
  pre-proj  low-frequency mode:    0.0000i [cm^-1]
  pre-proj  low-frequency mode:    0.0000i [cm^-1]
  pre-proj  low-frequency mode:    0.0000i [cm^-1]
  pre-proj  low-frequency mode:    0.0000  [cm^-1]
  pre-proj  low-frequency mode:    0.0000  [cm^-1]
  pre-proj  all modes:['0.0000i' '0.0000i' '0.0000i' '0.0000' '0.0000' '664.5815' '664.6623'
 '1387.3565' '2440.2529']
  projected mass-weighted Hessian: Symmetric? True   Hermitian? True   Lin Dep Dim?  5 (5)
  post-proj low-frequency mode:    0.0000i [cm^-1] (TR)
  post-proj low-frequency mode:    0.0000i [cm^-1] (TR)
  post-proj low-frequency mode:    0.0000i [cm^-1] (TR)
  post-proj low-frequency mode:    0.0000  [cm^-1] (TR)
  post-proj low-frequency mode:    0.0000  [cm^-1] (TR)
  post-proj  all modes:['0.0000i' '0.0000i' '0.0000i' '0.0000' '0.0000' '664.5815' '664.6623'
 '1387.3565' '2440.2529']

  Vibration                       6                   7                   8           
  Freq [cm^-1]                 664.5815            664.6623           1387.3565       
  Irrep                          B3u                 B2u                  Ag          
  Reduced mass [u]             12.8774             12.8774             15.9949        
  Force const [mDyne/A]         3.3510              3.3518             18.1388        
  Turning point v=0 [a0]        0.1186              0.1186              0.0737        
  RMS dev v=0 [a0 u^1/2]        0.3010              0.3010              0.2083        
  Char temp [K]                956.1848            956.3011           1996.0971       
  ----------------------------------------------------------------------------------
      1   C                0.88  0.00  0.00    0.00  0.88  0.00   -0.00 -0.00 -0.00   
      2   O               -0.33 -0.00  0.00   -0.00 -0.33  0.00    0.00 -0.00  0.71   
      3   O               -0.33  0.00  0.00    0.00 -0.33  0.00   -0.00  0.00 -0.71   

  Vibration                       9           
  Freq [cm^-1]                2440.2529       
  Irrep                          B1u          
  Reduced mass [u]             12.8774        
  Force const [mDyne/A]        45.1801        
  Turning point v=0 [a0]        0.0619        
  RMS dev v=0 [a0 u^1/2]        0.1571        
  Char temp [K]               3510.9807       
  ----------------------------------------------------------------------------------
      1   C               -0.00  0.00  0.88   
      2   O               -0.00  0.00 -0.33   
      3   O                0.00 -0.00 -0.33   

  ==> Thermochemistry Components <==

  Entropy, S
    Electronic S            0.000 [cal/(mol K)]        0.000 [J/(mol K)]       0.00000000 [mEh/K] (multiplicity = 1)
    Translational S        37.270 [cal/(mol K)]      155.938 [J/(mol K)]       0.05939371 [mEh/K] (mol. weight = 43.9898 [u], P = 101325.00 [Pa])
    Rotational S           13.088 [cal/(mol K)]       54.761 [J/(mol K)]       0.02085755 [mEh/K] (symmetry no. = 2)
    Vibrational S           0.721 [cal/(mol K)]        3.016 [J/(mol K)]       0.00114884 [mEh/K]
  Total S                  51.079 [cal/(mol K)]      213.716 [J/(mol K)]       0.08140010 [mEh/K]
  Correction S              0.000 [cal/(mol K)]        0.000 [J/(mol K)]       0.00000000 [mEh/K]

  Constant volume heat capacity, Cv
    Electronic Cv           0.000 [cal/(mol K)]        0.000 [J/(mol K)]       0.00000000 [mEh/K]
    Translational Cv        2.981 [cal/(mol K)]       12.472 [J/(mol K)]       0.00475022 [mEh/K]
    Rotational Cv           1.987 [cal/(mol K)]        8.314 [J/(mol K)]       0.00316681 [mEh/K]
    Vibrational Cv          1.909 [cal/(mol K)]        7.989 [J/(mol K)]       0.00304298 [mEh/K]
  Total Cv                  6.878 [cal/(mol K)]       28.775 [J/(mol K)]       0.01096001 [mEh/K]
  Correction Cv             0.000 [cal/(mol K)]        0.000 [J/(mol K)]       0.00000000 [mEh/K]

  Constant pressure heat capacity, Cp
    Electronic Cp           0.000 [cal/(mol K)]        0.000 [J/(mol K)]       0.00000000 [mEh/K]
    Translational Cp        4.968 [cal/(mol K)]       20.786 [J/(mol K)]       0.00791703 [mEh/K]
    Rotational Cp           1.987 [cal/(mol K)]        8.314 [J/(mol K)]       0.00316681 [mEh/K]
    Vibrational Cp          1.909 [cal/(mol K)]        7.989 [J/(mol K)]       0.00304298 [mEh/K]
  Total Cp                  8.865 [cal/(mol K)]       37.090 [J/(mol K)]       0.01412682 [mEh/K]
  Correction Cp             0.000 [cal/(mol K)]        0.000 [J/(mol K)]       0.00000000 [mEh/K]

  ==> Thermochemistry Energy Analysis <==

  Raw electronic energy, E0
  Total E0, Electronic energy at well bottom at 0 [K]                 -188.55469422 [Eh]

  Zero-point energy, ZPE_vib = Sum_i nu_i / 2
    Electronic ZPE          0.000 [kcal/mol]        0.000 [kJ/mol]       0.00000000 [Eh]
    Translational ZPE       0.000 [kcal/mol]        0.000 [kJ/mol]       0.00000000 [Eh]
    Rotational ZPE          0.000 [kcal/mol]        0.000 [kJ/mol]       0.00000000 [Eh]
    Vibrational ZPE         7.372 [kcal/mol]       30.845 [kJ/mol]       0.01174818 [Eh]        2578.427 [cm^-1]
  Correction ZPE            7.372 [kcal/mol]       30.845 [kJ/mol]       0.01174818 [Eh]        2578.427 [cm^-1]
  Total ZPE, Electronic energy at 0 [K]                               -188.54294604 [Eh]

  Thermal Energy, E (includes ZPE)
    Electronic E            0.000 [kcal/mol]        0.000 [kJ/mol]       0.00000000 [Eh]
    Translational E         0.889 [kcal/mol]        3.718 [kJ/mol]       0.00141628 [Eh]
    Rotational E            0.592 [kcal/mol]        2.479 [kJ/mol]       0.00094418 [Eh]
    Vibrational E           7.537 [kcal/mol]       31.536 [kJ/mol]       0.01201152 [Eh]
  Correction E              9.019 [kcal/mol]       37.734 [kJ/mol]       0.01437198 [Eh]
  Total E, Electronic energy at  298.15 [K]                           -188.54032224 [Eh]

  Enthalpy, H_trans = E_trans + k_B * T
    Electronic H            0.000 [kcal/mol]        0.000 [kJ/mol]       0.00000000 [Eh]
    Translational H         1.481 [kcal/mol]        6.197 [kJ/mol]       0.00236046 [Eh]
    Rotational H            0.592 [kcal/mol]        2.479 [kJ/mol]       0.00094418 [Eh]
    Vibrational H           7.537 [kcal/mol]       31.536 [kJ/mol]       0.01201152 [Eh]
  Correction H              9.611 [kcal/mol]       40.213 [kJ/mol]       0.01531616 [Eh]
  Total H, Enthalpy at  298.15 [K]                                    -188.53937806 [Eh]

  Gibbs free energy, G = H - T * S
    Electronic G            0.000 [kcal/mol]        0.000 [kJ/mol]       0.00000000 [Eh]
    Translational G        -9.631 [kcal/mol]      -40.296 [kJ/mol]      -0.01534777 [Eh]
    Rotational G           -3.310 [kcal/mol]      -13.848 [kJ/mol]      -0.00527449 [Eh]
    Vibrational G           7.322 [kcal/mol]       30.637 [kJ/mol]       0.01166899 [Eh]
  Correction G             -5.618 [kcal/mol]      -23.507 [kJ/mol]      -0.00895328 [Eh]
  Total G, Free enthalpy at  298.15 [K]                               -188.56364750 [Eh]

    Psi4 stopped on: Tuesday, 27 April 2021 06:11PM
    Psi4 wall time for execution: 0:00:41.68

*** Psi4 exiting successfully. Buy a developer a beer!
