
    -----------------------------------------------------------------------
          Psi4: An Open-Source Ab Initio Electronic Structure Package
                               Psi4 1.3.2 release

                         Git: Rev {HEAD} ecbda83 


    R. M. Parrish, L. A. Burns, D. G. A. Smith, A. C. Simmonett,
    A. E. DePrince III, E. G. Hohenstein, U. Bozkaya, A. Yu. Sokolov,
    R. Di Remigio, R. M. Richard, J. F. Gonthier, A. M. James,
    H. R. McAlexander, A. Kumar, M. Saitow, X. Wang, B. P. Pritchard,
    P. Verma, H. F. Schaefer III, K. Patkowski, R. A. King, E. F. Valeev,
    F. A. Evangelista, J. M. Turney, T. D. Crawford, and C. D. Sherrill,
    J. Chem. Theory Comput. 13(7) pp 3185--3197 (2017).
    (doi: 10.1021/acs.jctc.7b00174)


                         Additional Contributions by
    P. Kraus, H. Kruse, M. H. Lechner, M. C. Schieber, R. A. Shaw,
    A. Alenaizan, R. Galvelis, Z. L. Glick, S. Lehtola, and J. P. Misiewicz

    -----------------------------------------------------------------------


    Psi4 started on: Tuesday, 27 April 2021 06:10PM

    Process ID: 39466
    Host:       bp1-compute00100.data.bp.acrc.priv
    PSIDATADIR: /work/zw18965/.conda/envs/p4env/share/psi4
    Memory:     500.0 MiB
    Threads:    24
    
  ==> Input File <==

--------------------------------------------------------------------------
memory 144 GB

molecule {
0 1
C 0.0000000000 0.0000000000 0.0000000000
S 0.0000000000 0.0000000000 1.5415329200
}

set dynamic_level 1
set basis cc-pV(D+d)Z
 
optimize("wB97M-V")
frequencies("wB97M-V")
--------------------------------------------------------------------------

  Memory set to 134.110 GiB by Python driver.
gradient() will perform gradient computation by finite difference of analytic energies.

         ----------------------------------------------------------
                                   FINDIF
                     R. A. King and Jonathon Misiewicz
         ---------------------------------------------------------

  Using finite-differences of energies to determine gradients.
    Generating geometries for use with 3-point formula.
    Displacement size will be 5.00e-03.
    Number of atoms is 2.
    Number of symmetric SALCs is 1.
    Translations projected? 1. Rotations projected? 1.
    Number of geometries (including reference) is 3.

  //>>>>>>>>>>>>>>>>>>>>>>>>>>>>>>>>>>>//
  //    Loading displacement 1 of 3    //
  //<<<<<<<<<<<<<<<<<<<<<<<<<<<<<<<<<<<//

*** tstart() called on bp1-compute00100.data.bp.acrc.priv
*** at Tue Apr 27 18:10:55 2021

   => Loading Basis Set <=

    Name: CC-PV(D+D)Z
    Role: ORBITAL
    Keyword: BASIS
    atoms 1 entry C          line   147 file /work/zw18965/.conda/envs/p4env/share/psi4/basis/cc-pv_dpd_z.gbs 
    atoms 2 entry S          line   613 file /work/zw18965/.conda/envs/p4env/share/psi4/basis/cc-pv_dpd_z.gbs 


         ---------------------------------------------------------
                                   SCF
               by Justin Turney, Rob Parrish, Andy Simmonett
                          and Daniel G. A. Smith
                              RKS Reference
                       24 Threads, 137329 MiB Core
         ---------------------------------------------------------

  ==> Geometry <==

    Molecular point group: c2v
    Full point group: C_inf_v

    Geometry (in Angstrom), charge = 0, multiplicity = 1:

       Center              X                  Y                   Z               Mass       
    ------------   -----------------  -----------------  -----------------  -----------------
         C            0.000000000000     0.000000000000    -1.120847822711    12.000000000000
         S            0.000000000000     0.000000000000     0.420685097289    31.972071174400

  Running in c2v symmetry.

  Rotational constants: A = ************  B =      0.81305  C =      0.81305 [cm^-1]
  Rotational constants: A = ************  B =  24374.54386  C =  24374.54386 [MHz]
  Nuclear repulsion =   32.954866915407813

  Charge       = 0
  Multiplicity = 1
  Electrons    = 22
  Nalpha       = 11
  Nbeta        = 11

  ==> Algorithm <==

  SCF Algorithm Type is DF.
  DIIS enabled.
  MOM disabled.
  Fractional occupation disabled.
  Guess Type is SAD.
  Energy threshold   = 1.00e-08
  Density threshold  = 1.00e-08
  Integral threshold = 0.00e+00

  ==> Primary Basis <==

  Basis Set: CC-PV(D+D)Z
    Blend: CC-PV(D+D)Z
    Number of shells: 15
    Number of basis function: 37
    Number of Cartesian functions: 40
    Spherical Harmonics?: true
    Max angular momentum: 2

  ==> DFT Potential <==

   => Composite Functional: WB97M-V <= 

    wB97M-V Hyb-GGA Exchange-Correlation Functional

    N. Mardirossian and M. Head-Gordon, J. Chem. Phys. 144, 214110 (2016)

    Deriv               =              1
    GGA                 =           TRUE
    Meta                =           TRUE

    Exchange Hybrid     =           TRUE
    MP2 Hybrid          =          FALSE

   => Exchange-Correlation Functionals <=

    1.0000   wB97M-V exchange-correlation functional

   => Exact (HF) Exchange <=

    0.8500            HF,LR [omega = 0.3000]
    0.1500               HF 

   => VV10 Non-Local Parameters <=

    VV10 B              =     6.0000E+00
    VV10 C              =     1.0000E-02

   => Molecular Quadrature <=

    Radial Scheme          =       TREUTLER
    Pruning Scheme         =           FLAT
    Nuclear Scheme         =       TREUTLER

    BS radius alpha        =              1
    Pruning alpha          =              1
    Radial Points          =             75
    Spherical Points       =            302
    Total Points           =          42258
    Total Blocks           =            379
    Max Points             =            256
    Max Functions          =             37

   => Loading Basis Set <=

    Name: (CC-PV(D+D)Z AUX)
    Role: JKFIT
    Keyword: DF_BASIS_SCF
    atoms 1 entry C          line   121 file /work/zw18965/.conda/envs/p4env/share/psi4/basis/cc-pvdz-jkfit.gbs 
    atoms 2 entry S          line   593 file /work/zw18965/.conda/envs/p4env/share/psi4/basis/cc-pvdz-jkfit.gbs 

  ==> Pre-Iterations <==

   -------------------------------------------------------
    Irrep   Nso     Nmo     Nalpha   Nbeta   Ndocc  Nsocc
   -------------------------------------------------------
     A1        18      18       0       0       0       0
     A2         3       3       0       0       0       0
     B1         8       8       0       0       0       0
     B2         8       8       0       0       0       0
   -------------------------------------------------------
    Total      37      37      11      11      11       0
   -------------------------------------------------------

  ==> Integral Setup <==

  ==> DiskDFJK: Density-Fitted J/K Matrices <==

    J tasked:                  Yes
    K tasked:                  Yes
    wK tasked:                 Yes
    Omega:               3.000E-01
    OpenMP threads:             24
    Integrals threads:          24
    Memory [MiB]:           102884
    Algorithm:                Core
    Integral Cache:           NONE
    Schwarz Cutoff:          1E-12
    Fitting Condition:       1E-10

   => Auxiliary Basis Set <=

  Basis Set: (CC-PV(D+D)Z AUX)
    Blend: CC-PVDZ-JKFIT
    Number of shells: 60
    Number of basis function: 182
    Number of Cartesian functions: 211
    Spherical Harmonics?: true
    Max angular momentum: 3

  Cached 100.0% of DFT collocation blocks in 0.110 [GiB].

  Minimum eigenvalue in the overlap matrix is 1.0152315874E-02.
  Using Symmetric Orthogonalization.

  SCF Guess: Superposition of Atomic Densities via on-the-fly atomic UHF.

  ==> Iterations <==

                           Total Energy        Delta E     RMS |[F,P]|

   @DF-RKS iter SAD:  -435.64227540851692   -4.35642e+02   0.00000e+00 
   @DF-RKS iter   1:  -436.16601520362337   -5.23740e-01   9.64264e-03 DIIS
   @DF-RKS iter   2:  -436.15908176123293    6.93344e-03   1.15472e-02 DIIS
   @DF-RKS iter   3:  -436.19363802982986   -3.45563e-02   8.21198e-04 DIIS
   @DF-RKS iter   4:  -436.19385869447422   -2.20665e-04   2.71632e-04 DIIS
   @DF-RKS iter   5:  -436.19388672970905   -2.80352e-05   6.78364e-05 DIIS
   @DF-RKS iter   6:  -436.19388856875463   -1.83905e-06   2.35689e-05 DIIS
   @DF-RKS iter   7:  -436.19388883676373   -2.68009e-07   3.04150e-06 DIIS
   @DF-RKS iter   8:  -436.19388884531082   -8.54709e-09   3.66276e-07 DIIS
   @DF-RKS iter   9:  -436.19388884541587   -1.05047e-10   5.96901e-08 DIIS
   @DF-RKS iter  10:  -436.19388884541843   -2.55795e-12   8.37391e-09 DIIS
  Energy and wave function converged.


  ==> Post-Iterations <==

    Orbital Energies [Eh]
    ---------------------

    Doubly Occupied:                                                      

       1A1   -89.240762     2A1   -10.454031     3A1    -8.166588  
       4A1    -6.072477     1B2    -6.072343     1B1    -6.072343  
       5A1    -0.953167     6A1    -0.625494     2B2    -0.444425  
       2B1    -0.444425     7A1    -0.407523  

    Virtual:                                                              

       3B2     0.009978     3B1     0.009978     8A1     0.197205  
       9A1     0.458811     4B2     0.526003     4B1     0.526003  
      10A1     0.565223     1A2     0.590336    11A1     0.590337  
      12A1     0.621692     5B2     0.629668     5B1     0.629668  
       6B2     0.670129     6B1     0.670129    13A1     0.957770  
      14A1     1.138194    15A1     1.265290     2A2     1.265292  
       7B1     1.537797     7B2     1.537797    16A1     1.923048  
      17A1     4.490271     3A2     4.490280     8B2     4.591242  
       8B1     4.591242    18A1     4.717159  

    Final Occupation by Irrep:
             A1    A2    B1    B2 
    DOCC [     7,    0,    2,    2 ]

  @DF-RKS Final Energy:  -436.19388884541843

   => Energetics <=

    Nuclear Repulsion Energy =             32.9548669154078127
    One-Electron Energy =                -665.6334997478544437
    Two-Electron Energy =                 219.9593632866494488
    DFT Exchange-Correlation Energy =     -23.5667515040912576
    Empirical Dispersion Energy =           0.0000000000000000
    VV10 Nonlocal Energy =                  0.0921322044700291
    Total Energy =                       -436.1938888454183711

Computation Completed


Properties will be evaluated at   0.000000,   0.000000,   0.000000 [a0]

Properties computed using the SCF density matrix

  Nuclear Dipole Moment: [e a0]
     X:     0.0000      Y:     0.0000      Z:     0.0111

  Electronic Dipole Moment: [e a0]
     X:     0.0000      Y:     0.0000      Z:     0.6828

  Dipole Moment: [e a0]
     X:     0.0000      Y:     0.0000      Z:     0.6939     Total:     0.6939

  Dipole Moment: [D]
     X:     0.0000      Y:     0.0000      Z:     1.7637     Total:     1.7637


*** tstop() called on bp1-compute00100.data.bp.acrc.priv at Tue Apr 27 18:10:58 2021
Module time:
	user time   =      45.97 seconds =       0.77 minutes
	system time =       1.93 seconds =       0.03 minutes
	total time  =          3 seconds =       0.05 minutes
Total time:
	user time   =      45.97 seconds =       0.77 minutes
	system time =       1.93 seconds =       0.03 minutes
	total time  =          3 seconds =       0.05 minutes

  //>>>>>>>>>>>>>>>>>>>>>>>>>>>>>>>>>>>//
  //    Loading displacement 2 of 3    //
  //<<<<<<<<<<<<<<<<<<<<<<<<<<<<<<<<<<<//

*** tstart() called on bp1-compute00100.data.bp.acrc.priv
*** at Tue Apr 27 18:10:58 2021

   => Loading Basis Set <=

    Name: CC-PV(D+D)Z
    Role: ORBITAL
    Keyword: BASIS
    atoms 1 entry C          line   147 file /work/zw18965/.conda/envs/p4env/share/psi4/basis/cc-pv_dpd_z.gbs 
    atoms 2 entry S          line   613 file /work/zw18965/.conda/envs/p4env/share/psi4/basis/cc-pv_dpd_z.gbs 


         ---------------------------------------------------------
                                   SCF
               by Justin Turney, Rob Parrish, Andy Simmonett
                          and Daniel G. A. Smith
                              RKS Reference
                       24 Threads, 137329 MiB Core
         ---------------------------------------------------------

  ==> Geometry <==

    Molecular point group: c2v
    Full point group: C_inf_v

    Geometry (in Angstrom), charge = 0, multiplicity = 1:

       Center              X                  Y                   Z               Mass       
    ------------   -----------------  -----------------  -----------------  -----------------
         C            0.000000000000     0.000000000000    -1.121499117253    12.000000000000
         S            0.000000000000     0.000000000000     0.420929546091    31.972071174400

  Running in c2v symmetry.

  Rotational constants: A = ************  B =      0.81210  C =      0.81210 [cm^-1]
  Rotational constants: A = ************  B =  24346.24174  C =  24346.24174 [MHz]
  Nuclear repulsion =   32.935728848677002

  Charge       = 0
  Multiplicity = 1
  Electrons    = 22
  Nalpha       = 11
  Nbeta        = 11

  ==> Algorithm <==

  SCF Algorithm Type is DF.
  DIIS enabled.
  MOM disabled.
  Fractional occupation disabled.
  Guess Type is SAD.
  Energy threshold   = 1.00e-08
  Density threshold  = 1.00e-08
  Integral threshold = 0.00e+00

  ==> Primary Basis <==

  Basis Set: CC-PV(D+D)Z
    Blend: CC-PV(D+D)Z
    Number of shells: 15
    Number of basis function: 37
    Number of Cartesian functions: 40
    Spherical Harmonics?: true
    Max angular momentum: 2

  ==> DFT Potential <==

   => Composite Functional: WB97M-V <= 

    wB97M-V Hyb-GGA Exchange-Correlation Functional

    N. Mardirossian and M. Head-Gordon, J. Chem. Phys. 144, 214110 (2016)

    Deriv               =              1
    GGA                 =           TRUE
    Meta                =           TRUE

    Exchange Hybrid     =           TRUE
    MP2 Hybrid          =          FALSE

   => Exchange-Correlation Functionals <=

    1.0000   wB97M-V exchange-correlation functional

   => Exact (HF) Exchange <=

    0.8500            HF,LR [omega = 0.3000]
    0.1500               HF 

   => VV10 Non-Local Parameters <=

    VV10 B              =     6.0000E+00
    VV10 C              =     1.0000E-02

   => Molecular Quadrature <=

    Radial Scheme          =       TREUTLER
    Pruning Scheme         =           FLAT
    Nuclear Scheme         =       TREUTLER

    BS radius alpha        =              1
    Pruning alpha          =              1
    Radial Points          =             75
    Spherical Points       =            302
    Total Points           =          42258
    Total Blocks           =            380
    Max Points             =            256
    Max Functions          =             37

   => Loading Basis Set <=

    Name: (CC-PV(D+D)Z AUX)
    Role: JKFIT
    Keyword: DF_BASIS_SCF
    atoms 1 entry C          line   121 file /work/zw18965/.conda/envs/p4env/share/psi4/basis/cc-pvdz-jkfit.gbs 
    atoms 2 entry S          line   593 file /work/zw18965/.conda/envs/p4env/share/psi4/basis/cc-pvdz-jkfit.gbs 

  ==> Pre-Iterations <==

   -------------------------------------------------------
    Irrep   Nso     Nmo     Nalpha   Nbeta   Ndocc  Nsocc
   -------------------------------------------------------
     A1        18      18       0       0       0       0
     A2         3       3       0       0       0       0
     B1         8       8       0       0       0       0
     B2         8       8       0       0       0       0
   -------------------------------------------------------
    Total      37      37      11      11      11       0
   -------------------------------------------------------

  ==> Integral Setup <==

  ==> DiskDFJK: Density-Fitted J/K Matrices <==

    J tasked:                  Yes
    K tasked:                  Yes
    wK tasked:                 Yes
    Omega:               3.000E-01
    OpenMP threads:             24
    Integrals threads:          24
    Memory [MiB]:           102884
    Algorithm:                Core
    Integral Cache:           NONE
    Schwarz Cutoff:          1E-12
    Fitting Condition:       1E-10

   => Auxiliary Basis Set <=

  Basis Set: (CC-PV(D+D)Z AUX)
    Blend: CC-PVDZ-JKFIT
    Number of shells: 60
    Number of basis function: 182
    Number of Cartesian functions: 211
    Spherical Harmonics?: true
    Max angular momentum: 3

  Cached 100.0% of DFT collocation blocks in 0.110 [GiB].

  Minimum eigenvalue in the overlap matrix is 1.0174922410E-02.
  Using Symmetric Orthogonalization.

  SCF Guess: Superposition of Atomic Densities via on-the-fly atomic UHF.

  ==> Iterations <==

                           Total Energy        Delta E     RMS |[F,P]|

   @DF-RKS iter SAD:  -435.64093067228964   -4.35641e+02   0.00000e+00 
   @DF-RKS iter   1:  -436.16618929155857   -5.25259e-01   9.60557e-03 DIIS
   @DF-RKS iter   2:  -436.15932260075903    6.86669e-03   1.15034e-02 DIIS
   @DF-RKS iter   3:  -436.19362400054558   -3.43014e-02   8.23078e-04 DIIS
   @DF-RKS iter   4:  -436.19384558413856   -2.21584e-04   2.71670e-04 DIIS
   @DF-RKS iter   5:  -436.19387364626812   -2.80621e-05   6.78414e-05 DIIS
   @DF-RKS iter   6:  -436.19387548800933   -1.84174e-06   2.35759e-05 DIIS
   @DF-RKS iter   7:  -436.19387575669077   -2.68681e-07   3.04674e-06 DIIS
   @DF-RKS iter   8:  -436.19387576526913   -8.57835e-09   3.66517e-07 DIIS
   @DF-RKS iter   9:  -436.19387576537412   -1.04990e-10   5.97377e-08 DIIS
   @DF-RKS iter  10:  -436.19387576537622   -2.10321e-12   8.37865e-09 DIIS
  Energy and wave function converged.


  ==> Post-Iterations <==

    Orbital Energies [Eh]
    ---------------------

    Doubly Occupied:                                                      

       1A1   -89.240823     2A1   -10.454296     3A1    -8.166597  
       4A1    -6.072490     1B2    -6.072356     1B1    -6.072356  
       5A1    -0.952912     6A1    -0.625547     2B1    -0.444280  
       2B2    -0.444280     7A1    -0.407611  

    Virtual:                                                              

       3B1     0.009825     3B2     0.009825     8A1     0.197039  
       9A1     0.458917     4B1     0.526124     4B2     0.526124  
      10A1     0.565191     1A2     0.590418    11A1     0.590419  
      12A1     0.621403     5B1     0.629475     5B2     0.629475  
       6B2     0.669995     6B1     0.669995    13A1     0.957486  
      14A1     1.137278    15A1     1.265140     2A2     1.265143  
       7B1     1.537205     7B2     1.537205    16A1     1.922570  
      17A1     4.490265     3A2     4.490274     8B2     4.591157  
       8B1     4.591157    18A1     4.717091  

    Final Occupation by Irrep:
             A1    A2    B1    B2 
    DOCC [     7,    0,    2,    2 ]

  @DF-RKS Final Energy:  -436.19387576537622

   => Energetics <=

    Nuclear Repulsion Energy =             32.9357288486770017
    One-Electron Energy =                -665.5955348829940021
    Two-Electron Energy =                 219.9400711141059617
    DFT Exchange-Correlation Energy =     -23.5662732924021370
    Empirical Dispersion Energy =           0.0000000000000000
    VV10 Nonlocal Energy =                  0.0921324472369378
    Total Energy =                       -436.1938757653761058

Computation Completed


Properties will be evaluated at   0.000000,   0.000000,   0.000000 [a0]

Properties computed using the SCF density matrix

  Nuclear Dipole Moment: [e a0]
     X:     0.0000      Y:     0.0000      Z:     0.0111

  Electronic Dipole Moment: [e a0]
     X:     0.0000      Y:     0.0000      Z:     0.6813

  Dipole Moment: [e a0]
     X:     0.0000      Y:     0.0000      Z:     0.6924     Total:     0.6924

  Dipole Moment: [D]
     X:     0.0000      Y:     0.0000      Z:     1.7598     Total:     1.7598


*** tstop() called on bp1-compute00100.data.bp.acrc.priv at Tue Apr 27 18:11:00 2021
Module time:
	user time   =      47.65 seconds =       0.79 minutes
	system time =       1.73 seconds =       0.03 minutes
	total time  =          2 seconds =       0.03 minutes
Total time:
	user time   =      93.75 seconds =       1.56 minutes
	system time =       3.67 seconds =       0.06 minutes
	total time  =          5 seconds =       0.08 minutes

  //>>>>>>>>>>>>>>>>>>>>>>>>>>>>>>>>>>>//
  //    Loading displacement 3 of 3    //
  //<<<<<<<<<<<<<<<<<<<<<<<<<<<<<<<<<<<//

*** tstart() called on bp1-compute00100.data.bp.acrc.priv
*** at Tue Apr 27 18:11:00 2021

   => Loading Basis Set <=

    Name: CC-PV(D+D)Z
    Role: ORBITAL
    Keyword: BASIS
    atoms 1 entry C          line   147 file /work/zw18965/.conda/envs/p4env/share/psi4/basis/cc-pv_dpd_z.gbs 
    atoms 2 entry S          line   613 file /work/zw18965/.conda/envs/p4env/share/psi4/basis/cc-pv_dpd_z.gbs 


         ---------------------------------------------------------
                                   SCF
               by Justin Turney, Rob Parrish, Andy Simmonett
                          and Daniel G. A. Smith
                              RKS Reference
                       24 Threads, 137329 MiB Core
         ---------------------------------------------------------

  ==> Geometry <==

    Molecular point group: c2v
    Full point group: C_inf_v

    Geometry (in Angstrom), charge = 0, multiplicity = 1:

       Center              X                  Y                   Z               Mass       
    ------------   -----------------  -----------------  -----------------  -----------------
         C            0.000000000000     0.000000000000    -1.120196528169    12.000000000000
         S            0.000000000000     0.000000000000     0.420440648487    31.972071174400

  Running in c2v symmetry.

  Rotational constants: A = ************  B =      0.81399  C =      0.81399 [cm^-1]
  Rotational constants: A = ************  B =  24402.89535  C =  24402.89535 [MHz]
  Nuclear repulsion =   32.974027236302241

  Charge       = 0
  Multiplicity = 1
  Electrons    = 22
  Nalpha       = 11
  Nbeta        = 11

  ==> Algorithm <==

  SCF Algorithm Type is DF.
  DIIS enabled.
  MOM disabled.
  Fractional occupation disabled.
  Guess Type is SAD.
  Energy threshold   = 1.00e-08
  Density threshold  = 1.00e-08
  Integral threshold = 0.00e+00

  ==> Primary Basis <==

  Basis Set: CC-PV(D+D)Z
    Blend: CC-PV(D+D)Z
    Number of shells: 15
    Number of basis function: 37
    Number of Cartesian functions: 40
    Spherical Harmonics?: true
    Max angular momentum: 2

  ==> DFT Potential <==

   => Composite Functional: WB97M-V <= 

    wB97M-V Hyb-GGA Exchange-Correlation Functional

    N. Mardirossian and M. Head-Gordon, J. Chem. Phys. 144, 214110 (2016)

    Deriv               =              1
    GGA                 =           TRUE
    Meta                =           TRUE

    Exchange Hybrid     =           TRUE
    MP2 Hybrid          =          FALSE

   => Exchange-Correlation Functionals <=

    1.0000   wB97M-V exchange-correlation functional

   => Exact (HF) Exchange <=

    0.8500            HF,LR [omega = 0.3000]
    0.1500               HF 

   => VV10 Non-Local Parameters <=

    VV10 B              =     6.0000E+00
    VV10 C              =     1.0000E-02

   => Molecular Quadrature <=

    Radial Scheme          =       TREUTLER
    Pruning Scheme         =           FLAT
    Nuclear Scheme         =       TREUTLER

    BS radius alpha        =              1
    Pruning alpha          =              1
    Radial Points          =             75
    Spherical Points       =            302
    Total Points           =          42258
    Total Blocks           =            379
    Max Points             =            256
    Max Functions          =             37

   => Loading Basis Set <=

    Name: (CC-PV(D+D)Z AUX)
    Role: JKFIT
    Keyword: DF_BASIS_SCF
    atoms 1 entry C          line   121 file /work/zw18965/.conda/envs/p4env/share/psi4/basis/cc-pvdz-jkfit.gbs 
    atoms 2 entry S          line   593 file /work/zw18965/.conda/envs/p4env/share/psi4/basis/cc-pvdz-jkfit.gbs 

  ==> Pre-Iterations <==

   -------------------------------------------------------
    Irrep   Nso     Nmo     Nalpha   Nbeta   Ndocc  Nsocc
   -------------------------------------------------------
     A1        18      18       0       0       0       0
     A2         3       3       0       0       0       0
     B1         8       8       0       0       0       0
     B2         8       8       0       0       0       0
   -------------------------------------------------------
    Total      37      37      11      11      11       0
   -------------------------------------------------------

  ==> Integral Setup <==

  ==> DiskDFJK: Density-Fitted J/K Matrices <==

    J tasked:                  Yes
    K tasked:                  Yes
    wK tasked:                 Yes
    Omega:               3.000E-01
    OpenMP threads:             24
    Integrals threads:          24
    Memory [MiB]:           102884
    Algorithm:                Core
    Integral Cache:           NONE
    Schwarz Cutoff:          1E-12
    Fitting Condition:       1E-10

   => Auxiliary Basis Set <=

  Basis Set: (CC-PV(D+D)Z AUX)
    Blend: CC-PVDZ-JKFIT
    Number of shells: 60
    Number of basis function: 182
    Number of Cartesian functions: 211
    Spherical Harmonics?: true
    Max angular momentum: 3

  Cached 100.0% of DFT collocation blocks in 0.110 [GiB].

  Minimum eigenvalue in the overlap matrix is 1.0129749977E-02.
  Using Symmetric Orthogonalization.

  SCF Guess: Superposition of Atomic Densities via on-the-fly atomic UHF.

  ==> Iterations <==

                           Total Energy        Delta E     RMS |[F,P]|

   @DF-RKS iter SAD:  -435.64362336403508   -4.35644e+02   0.00000e+00 
   @DF-RKS iter   1:  -436.16583895522643   -5.22216e-01   9.67971e-03 DIIS
   @DF-RKS iter   2:  -436.15883936510153    6.99959e-03   1.15908e-02 DIIS
   @DF-RKS iter   3:  -436.19365034994837   -3.48110e-02   8.19367e-04 DIIS
   @DF-RKS iter   4:  -436.19387011795652   -2.19768e-04   2.71591e-04 DIIS
   @DF-RKS iter   5:  -436.19389812546592   -2.80075e-05   6.78307e-05 DIIS
   @DF-RKS iter   6:  -436.19389996177642   -1.83631e-06   2.35618e-05 DIIS
   @DF-RKS iter   7:  -436.19390022911347   -2.67337e-07   3.03628e-06 DIIS
   @DF-RKS iter   8:  -436.19390023762918   -8.51571e-09   3.66041e-07 DIIS
   @DF-RKS iter   9:  -436.19390023773428   -1.05103e-10   5.96423e-08 DIIS
   @DF-RKS iter  10:  -436.19390023773599   -1.70530e-12   8.36905e-09 DIIS
  Energy and wave function converged.


  ==> Post-Iterations <==

    Orbital Energies [Eh]
    ---------------------

    Doubly Occupied:                                                      

       1A1   -89.240701     2A1   -10.453767     3A1    -8.166578  
       4A1    -6.072465     1B1    -6.072330     1B2    -6.072330  
       5A1    -0.953422     6A1    -0.625441     2B1    -0.444571  
       2B2    -0.444571     7A1    -0.407435  

    Virtual:                                                              

       3B1     0.010130     3B2     0.010130     8A1     0.197372  
       9A1     0.458704     4B1     0.525883     4B2     0.525883  
      10A1     0.565254     1A2     0.590255    11A1     0.590256  
      12A1     0.621981     5B1     0.629859     5B2     0.629859  
       6B1     0.670264     6B2     0.670264    13A1     0.958053  
      14A1     1.139114    15A1     1.265439     2A2     1.265442  
       7B2     1.538389     7B1     1.538389    16A1     1.923527  
      17A1     4.490277     3A2     4.490286     8B1     4.591328  
       8B2     4.591328    18A1     4.717227  

    Final Occupation by Irrep:
             A1    A2    B1    B2 
    DOCC [     7,    0,    2,    2 ]

  @DF-RKS Final Energy:  -436.19390023773599

   => Energetics <=

    Nuclear Repulsion Energy =             32.9740272363022413
    One-Electron Energy =                -665.6715062908921254
    Two-Electron Energy =                 219.9786774125507236
    DFT Exchange-Correlation Energy =     -23.5672305582199648
    Empirical Dispersion Energy =           0.0000000000000000
    VV10 Nonlocal Energy =                  0.0921319625230598
    Total Energy =                       -436.1939002377360453

Computation Completed


Properties will be evaluated at   0.000000,   0.000000,   0.000000 [a0]

Properties computed using the SCF density matrix

  Nuclear Dipole Moment: [e a0]
     X:     0.0000      Y:     0.0000      Z:     0.0111

  Electronic Dipole Moment: [e a0]
     X:     0.0000      Y:     0.0000      Z:     0.6844

  Dipole Moment: [e a0]
     X:     0.0000      Y:     0.0000      Z:     0.6954     Total:     0.6954

  Dipole Moment: [D]
     X:     0.0000      Y:     0.0000      Z:     1.7676     Total:     1.7676


*** tstop() called on bp1-compute00100.data.bp.acrc.priv at Tue Apr 27 18:11:02 2021
Module time:
	user time   =      46.20 seconds =       0.77 minutes
	system time =       1.84 seconds =       0.03 minutes
	total time  =          2 seconds =       0.03 minutes
Total time:
	user time   =     140.09 seconds =       2.33 minutes
	system time =       5.52 seconds =       0.09 minutes
	total time  =          7 seconds =       0.12 minutes

         ----------------------------------------------------------
                                   FINDIF
                     R. A. King and Jonathon Misiewicz
         ---------------------------------------------------------

  Computing gradient from energies.
    Using 3-point formula.
    Energy without displacement: -436.1938888454
    Check energies below for precision!
    Forces are for mass-weighted, symmetry-adapted cartesians (in au).

     Coord      Energy(-1)        Energy(+1)            Force
        0   -436.1938757654   -436.1939002377     -0.0024472360


-------------------------------------------------------------
  ## New Matrix (Symmetry 0) ##
  Irrep: 1 Size: 2 x 3

                 1                   2                   3

    1     0.00000000000000     0.00000000000000    -0.00722875317471
    2     0.00000000000000     0.00000000000000     0.00722875317471




			-----------------------------------------
			 OPTKING 2.0: for geometry optimizations 
			  - R.A. King,  Bethel University        
			-----------------------------------------
	At level 1: Red. Int., RFO, no backsteps, dynamic trust

	Internal coordinates to be generated automatically.
	Detected frag 1 with atoms:  1 2
	---Fragment 1 Bond Connectivity---
	 1 : 2
	 2 : 1

	---Fragment 1 Geometry and Gradient---
	 C           0.0000000000        0.0000000000       -2.1180954132
	 S           0.0000000000        0.0000000000        0.7949796189
	             0.0000000000        0.0000000000       -0.0072287532
	             0.0000000000        0.0000000000        0.0072287532

	Previous optimization step data not found.  Starting new optimization.

	---Fragment 1 Intrafragment Coordinates---
	 - Coordinate -           - BOHR/RAD -       - ANG/DEG -
	 R(1,2)           =         2.913075	       1.541533

	Current energy   :      -436.1938888454

	Generating empirical Hessian (Schlegel '84) for each fragment.
	Taking RFO optimization step.
	Going to follow RFO solution 1.
	Using RFO vector 1.
	Norm of target step-size    0.01122
	Projected energy change by RFO approximation:        -0.0000181582

	Back-transformation to cartesian coordinates...
	Successfully converged to displaced geometry.

	--- Internal Coordinate Step in ANG or DEG, aJ/ANG or AJ/DEG ---
	 ---------------------------------------------------------------------------
	   Coordinate                Previous        Force       Change         New 
	   ----------                --------       ------       ------       ------
	    1 R(1,2)          =      1.541533    -0.059556    -0.005938     1.535595
	 ---------------------------------------------------------------------------
	Successfully symmetrized geometry.

  ==> Convergence Check <==

  Measures of convergence in internal coordinates in au.
  Criteria marked as inactive (o), active & met (*), and active & unmet ( ).
  --------------------------------------------------------------------------------------------- ~
   Step     Total Energy     Delta E     MAX Force     RMS Force      MAX Disp      RMS Disp    ~
  --------------------------------------------------------------------------------------------- ~
    Convergence Criteria    1.00e-06 *    3.00e-04 *             o    1.20e-03 *             o  ~
  --------------------------------------------------------------------------------------------- ~
      1    -436.19388885   -4.36e+02      7.23e-03      7.23e-03 o    1.12e-02      1.12e-02 o  ~
  ---------------------------------------------------------------------------------------------

	Writing optimization data to binary file.
	Structure for next step:
	Cartesian Geometry (in Angstrom)
	    C     0.0000000000   0.0000000000  -1.1178790082
	    S     0.0000000000   0.0000000000   0.4177162855
			--------------------------
			 OPTKING Finished Execution 
			--------------------------

    Structure for next step:
    Molecular point group: c2v
    Full point group: C_inf_v

    Geometry (in Angstrom), charge = 0, multiplicity = 1:

    C            0.000000000000     0.000000000000    -1.116530581929
    S            0.000000000000     0.000000000000     0.419064717767

gradient() will perform gradient computation by finite difference of analytic energies.

         ----------------------------------------------------------
                                   FINDIF
                     R. A. King and Jonathon Misiewicz
         ---------------------------------------------------------

  Using finite-differences of energies to determine gradients.
    Generating geometries for use with 3-point formula.
    Displacement size will be 5.00e-03.
    Number of atoms is 2.
    Number of symmetric SALCs is 1.
    Translations projected? 1. Rotations projected? 1.
    Number of geometries (including reference) is 3.

  //>>>>>>>>>>>>>>>>>>>>>>>>>>>>>>>>>>>//
  //    Loading displacement 1 of 3    //
  //<<<<<<<<<<<<<<<<<<<<<<<<<<<<<<<<<<<//

*** tstart() called on bp1-compute00100.data.bp.acrc.priv
*** at Tue Apr 27 18:11:02 2021

   => Loading Basis Set <=

    Name: CC-PV(D+D)Z
    Role: ORBITAL
    Keyword: BASIS
    atoms 1 entry C          line   147 file /work/zw18965/.conda/envs/p4env/share/psi4/basis/cc-pv_dpd_z.gbs 
    atoms 2 entry S          line   613 file /work/zw18965/.conda/envs/p4env/share/psi4/basis/cc-pv_dpd_z.gbs 


         ---------------------------------------------------------
                                   SCF
               by Justin Turney, Rob Parrish, Andy Simmonett
                          and Daniel G. A. Smith
                              RKS Reference
                       24 Threads, 137329 MiB Core
         ---------------------------------------------------------

  ==> Geometry <==

    Molecular point group: c2v
    Full point group: C_inf_v

    Geometry (in Angstrom), charge = 0, multiplicity = 1:

       Center              X                  Y                   Z               Mass       
    ------------   -----------------  -----------------  -----------------  -----------------
         C            0.000000000000     0.000000000000    -1.116530581929    12.000000000000
         S            0.000000000000     0.000000000000     0.419064717767    31.972071174400

  Running in c2v symmetry.

  Rotational constants: A = ************  B =      0.81935  C =      0.81935 [cm^-1]
  Rotational constants: A = ************  B =  24563.40428  C =  24563.40428 [MHz]
  Nuclear repulsion =   33.082292082019912

  Charge       = 0
  Multiplicity = 1
  Electrons    = 22
  Nalpha       = 11
  Nbeta        = 11

  ==> Algorithm <==

  SCF Algorithm Type is DF.
  DIIS enabled.
  MOM disabled.
  Fractional occupation disabled.
  Guess Type is READ.
  Energy threshold   = 1.00e-08
  Density threshold  = 1.00e-08
  Integral threshold = 0.00e+00

  ==> Primary Basis <==

  Basis Set: CC-PV(D+D)Z
    Blend: CC-PV(D+D)Z
    Number of shells: 15
    Number of basis function: 37
    Number of Cartesian functions: 40
    Spherical Harmonics?: true
    Max angular momentum: 2

  ==> DFT Potential <==

   => Composite Functional: WB97M-V <= 

    wB97M-V Hyb-GGA Exchange-Correlation Functional

    N. Mardirossian and M. Head-Gordon, J. Chem. Phys. 144, 214110 (2016)

    Deriv               =              1
    GGA                 =           TRUE
    Meta                =           TRUE

    Exchange Hybrid     =           TRUE
    MP2 Hybrid          =          FALSE

   => Exchange-Correlation Functionals <=

    1.0000   wB97M-V exchange-correlation functional

   => Exact (HF) Exchange <=

    0.8500            HF,LR [omega = 0.3000]
    0.1500               HF 

   => VV10 Non-Local Parameters <=

    VV10 B              =     6.0000E+00
    VV10 C              =     1.0000E-02

   => Molecular Quadrature <=

    Radial Scheme          =       TREUTLER
    Pruning Scheme         =           FLAT
    Nuclear Scheme         =       TREUTLER

    BS radius alpha        =              1
    Pruning alpha          =              1
    Radial Points          =             75
    Spherical Points       =            302
    Total Points           =          42258
    Total Blocks           =            379
    Max Points             =            256
    Max Functions          =             37

   => Loading Basis Set <=

    Name: (CC-PV(D+D)Z AUX)
    Role: JKFIT
    Keyword: DF_BASIS_SCF
    atoms 1 entry C          line   121 file /work/zw18965/.conda/envs/p4env/share/psi4/basis/cc-pvdz-jkfit.gbs 
    atoms 2 entry S          line   593 file /work/zw18965/.conda/envs/p4env/share/psi4/basis/cc-pvdz-jkfit.gbs 

   => Loading Basis Set <=

    Name: CC-PV(D+D)Z
    Role: ORBITAL
    Keyword: BASIS
    atoms 1 entry C          line   147 file /work/zw18965/.conda/envs/p4env/share/psi4/basis/cc-pv_dpd_z.gbs 
    atoms 2 entry S          line   613 file /work/zw18965/.conda/envs/p4env/share/psi4/basis/cc-pv_dpd_z.gbs 

  Reading orbitals from file 180, no projection.

  ==> Pre-Iterations <==

   -------------------------------------------------------
    Irrep   Nso     Nmo     Nalpha   Nbeta   Ndocc  Nsocc
   -------------------------------------------------------
     A1        18      18       0       0       0       0
     A2         3       3       0       0       0       0
     B1         8       8       0       0       0       0
     B2         8       8       0       0       0       0
   -------------------------------------------------------
    Total      37      37      11      11      11       0
   -------------------------------------------------------

  ==> Integral Setup <==

  ==> DiskDFJK: Density-Fitted J/K Matrices <==

    J tasked:                  Yes
    K tasked:                  Yes
    wK tasked:                 Yes
    Omega:               3.000E-01
    OpenMP threads:             24
    Integrals threads:          24
    Memory [MiB]:           102884
    Algorithm:                Core
    Integral Cache:           NONE
    Schwarz Cutoff:          1E-12
    Fitting Condition:       1E-10

   => Auxiliary Basis Set <=

  Basis Set: (CC-PV(D+D)Z AUX)
    Blend: CC-PVDZ-JKFIT
    Number of shells: 60
    Number of basis function: 182
    Number of Cartesian functions: 211
    Spherical Harmonics?: true
    Max angular momentum: 3

  Cached 100.0% of DFT collocation blocks in 0.110 [GiB].

  Minimum eigenvalue in the overlap matrix is 1.0003488545E-02.
  Using Symmetric Orthogonalization.

  SCF Guess: Orbitals guess was supplied from a previous computation.

  ==> Iterations <==

                           Total Energy        Delta E     RMS |[F,P]|

   @DF-RKS iter   0:  -436.19887971655356   -4.36199e+02   8.39309e-04 
   @DF-RKS iter   1:  -436.19392712451742    4.95259e-03   1.37215e-04 DIIS
   @DF-RKS iter   2:  -436.19392940178699   -2.27727e-06   1.11613e-04 DIIS
   @DF-RKS iter   3:  -436.19393218126720   -2.77948e-06   3.56829e-05 DIIS
   @DF-RKS iter   4:  -436.19393249038740   -3.09120e-07   2.82336e-06 DIIS
   @DF-RKS iter   5:  -436.19393249393545   -3.54805e-09   4.97936e-07 DIIS
   @DF-RKS iter   6:  -436.19393249413048   -1.95030e-10   8.24067e-08 DIIS
   @DF-RKS iter   7:  -436.19393249413673   -6.25278e-12   3.29840e-08 DIIS
   @DF-RKS iter   8:  -436.19393249413719   -4.54747e-13   5.68187e-09 DIIS
  Energy and wave function converged.


  ==> Post-Iterations <==

    Orbital Energies [Eh]
    ---------------------

    Doubly Occupied:                                                      

       1A1   -89.240352     2A1   -10.452274     3A1    -8.166523  
       4A1    -6.072392     1B2    -6.072252     1B1    -6.072252  
       5A1    -0.954861     6A1    -0.625143     2B1    -0.445392  
       2B2    -0.445392     7A1    -0.406934  

    Virtual:                                                              

       3B2     0.010987     3B1     0.010987     8A1     0.198299  
       9A1     0.458107     4B2     0.525204     4B1     0.525204  
      10A1     0.565429     1A2     0.589795    11A1     0.589796  
      12A1     0.623618     5B2     0.630922     5B1     0.630922  
       6B2     0.671053     6B1     0.671053    13A1     0.959634  
      14A1     1.144346    15A1     1.266285     2A2     1.266288  
       7B1     1.541733     7B2     1.541733    16A1     1.926222  
      17A1     4.490314     3A2     4.490322     8B2     4.591799  
       8B1     4.591799    18A1     4.717619  

    Final Occupation by Irrep:
             A1    A2    B1    B2 
    DOCC [     7,    0,    2,    2 ]

  @DF-RKS Final Energy:  -436.19393249413719

   => Energetics <=

    Nuclear Repulsion Energy =             33.0822920820199116
    One-Electron Energy =                -665.8862154456124927
    Two-Electron Energy =                 220.0878030943419219
    DFT Exchange-Correlation Energy =     -23.5699428406562461
    Empirical Dispersion Energy =           0.0000000000000000
    VV10 Nonlocal Energy =                  0.0921306157697004
    Total Energy =                       -436.1939324941373002

Computation Completed


Properties will be evaluated at   0.000000,   0.000000,   0.000000 [a0]

Properties computed using the SCF density matrix

  Nuclear Dipole Moment: [e a0]
     X:     0.0000      Y:     0.0000      Z:     0.0111

  Electronic Dipole Moment: [e a0]
     X:     0.0000      Y:     0.0000      Z:     0.6930

  Dipole Moment: [e a0]
     X:     0.0000      Y:     0.0000      Z:     0.7041     Total:     0.7041

  Dipole Moment: [D]
     X:     0.0000      Y:     0.0000      Z:     1.7896     Total:     1.7896


*** tstop() called on bp1-compute00100.data.bp.acrc.priv at Tue Apr 27 18:11:03 2021
Module time:
	user time   =      33.91 seconds =       0.57 minutes
	system time =       1.07 seconds =       0.02 minutes
	total time  =          1 seconds =       0.02 minutes
Total time:
	user time   =     174.36 seconds =       2.91 minutes
	system time =       6.61 seconds =       0.11 minutes
	total time  =          8 seconds =       0.13 minutes

  //>>>>>>>>>>>>>>>>>>>>>>>>>>>>>>>>>>>//
  //    Loading displacement 2 of 3    //
  //<<<<<<<<<<<<<<<<<<<<<<<<<<<<<<<<<<<//

*** tstart() called on bp1-compute00100.data.bp.acrc.priv
*** at Tue Apr 27 18:11:03 2021

   => Loading Basis Set <=

    Name: CC-PV(D+D)Z
    Role: ORBITAL
    Keyword: BASIS
    atoms 1 entry C          line   147 file /work/zw18965/.conda/envs/p4env/share/psi4/basis/cc-pv_dpd_z.gbs 
    atoms 2 entry S          line   613 file /work/zw18965/.conda/envs/p4env/share/psi4/basis/cc-pv_dpd_z.gbs 


         ---------------------------------------------------------
                                   SCF
               by Justin Turney, Rob Parrish, Andy Simmonett
                          and Daniel G. A. Smith
                              RKS Reference
                       24 Threads, 137329 MiB Core
         ---------------------------------------------------------

  ==> Geometry <==

    Molecular point group: c2v
    Full point group: C_inf_v

    Geometry (in Angstrom), charge = 0, multiplicity = 1:

       Center              X                  Y                   Z               Mass       
    ------------   -----------------  -----------------  -----------------  -----------------
         C            0.000000000000     0.000000000000    -1.117181876470    12.000000000000
         S            0.000000000000     0.000000000000     0.419309166570    31.972071174400

  Running in c2v symmetry.

  Rotational constants: A = ************  B =      0.81839  C =      0.81839 [cm^-1]
  Rotational constants: A = ************  B =  24534.77269  C =  24534.77269 [MHz]
  Nuclear repulsion =   33.063005771783565

  Charge       = 0
  Multiplicity = 1
  Electrons    = 22
  Nalpha       = 11
  Nbeta        = 11

  ==> Algorithm <==

  SCF Algorithm Type is DF.
  DIIS enabled.
  MOM disabled.
  Fractional occupation disabled.
  Guess Type is READ.
  Energy threshold   = 1.00e-08
  Density threshold  = 1.00e-08
  Integral threshold = 0.00e+00

  ==> Primary Basis <==

  Basis Set: CC-PV(D+D)Z
    Blend: CC-PV(D+D)Z
    Number of shells: 15
    Number of basis function: 37
    Number of Cartesian functions: 40
    Spherical Harmonics?: true
    Max angular momentum: 2

  ==> DFT Potential <==

   => Composite Functional: WB97M-V <= 

    wB97M-V Hyb-GGA Exchange-Correlation Functional

    N. Mardirossian and M. Head-Gordon, J. Chem. Phys. 144, 214110 (2016)

    Deriv               =              1
    GGA                 =           TRUE
    Meta                =           TRUE

    Exchange Hybrid     =           TRUE
    MP2 Hybrid          =          FALSE

   => Exchange-Correlation Functionals <=

    1.0000   wB97M-V exchange-correlation functional

   => Exact (HF) Exchange <=

    0.8500            HF,LR [omega = 0.3000]
    0.1500               HF 

   => VV10 Non-Local Parameters <=

    VV10 B              =     6.0000E+00
    VV10 C              =     1.0000E-02

   => Molecular Quadrature <=

    Radial Scheme          =       TREUTLER
    Pruning Scheme         =           FLAT
    Nuclear Scheme         =       TREUTLER

    BS radius alpha        =              1
    Pruning alpha          =              1
    Radial Points          =             75
    Spherical Points       =            302
    Total Points           =          42258
    Total Blocks           =            379
    Max Points             =            256
    Max Functions          =             37

   => Loading Basis Set <=

    Name: (CC-PV(D+D)Z AUX)
    Role: JKFIT
    Keyword: DF_BASIS_SCF
    atoms 1 entry C          line   121 file /work/zw18965/.conda/envs/p4env/share/psi4/basis/cc-pvdz-jkfit.gbs 
    atoms 2 entry S          line   593 file /work/zw18965/.conda/envs/p4env/share/psi4/basis/cc-pvdz-jkfit.gbs 

   => Loading Basis Set <=

    Name: CC-PV(D+D)Z
    Role: ORBITAL
    Keyword: BASIS
    atoms 1 entry C          line   147 file /work/zw18965/.conda/envs/p4env/share/psi4/basis/cc-pv_dpd_z.gbs 
    atoms 2 entry S          line   613 file /work/zw18965/.conda/envs/p4env/share/psi4/basis/cc-pv_dpd_z.gbs 

  Reading orbitals from file 180, no projection.

  ==> Pre-Iterations <==

   -------------------------------------------------------
    Irrep   Nso     Nmo     Nalpha   Nbeta   Ndocc  Nsocc
   -------------------------------------------------------
     A1        18      18       0       0       0       0
     A2         3       3       0       0       0       0
     B1         8       8       0       0       0       0
     B2         8       8       0       0       0       0
   -------------------------------------------------------
    Total      37      37      11      11      11       0
   -------------------------------------------------------

  ==> Integral Setup <==

  ==> DiskDFJK: Density-Fitted J/K Matrices <==

    J tasked:                  Yes
    K tasked:                  Yes
    wK tasked:                 Yes
    Omega:               3.000E-01
    OpenMP threads:             24
    Integrals threads:          24
    Memory [MiB]:           102884
    Algorithm:                Core
    Integral Cache:           NONE
    Schwarz Cutoff:          1E-12
    Fitting Condition:       1E-10

   => Auxiliary Basis Set <=

  Basis Set: (CC-PV(D+D)Z AUX)
    Blend: CC-PVDZ-JKFIT
    Number of shells: 60
    Number of basis function: 182
    Number of Cartesian functions: 211
    Spherical Harmonics?: true
    Max angular momentum: 3

  Cached 100.0% of DFT collocation blocks in 0.110 [GiB].

  Minimum eigenvalue in the overlap matrix is 1.0025826776E-02.
  Using Symmetric Orthogonalization.

  SCF Guess: Orbitals guess was supplied from a previous computation.

  ==> Iterations <==

                           Total Energy        Delta E     RMS |[F,P]|

   @DF-RKS iter   0:  -436.19318552127459   -4.36193e+02   1.27252e-04 
   @DF-RKS iter   1:  -436.19393062929663   -7.45108e-04   2.07253e-05 DIIS
   @DF-RKS iter   2:  -436.19393068085270   -5.15561e-08   1.69097e-05 DIIS
   @DF-RKS iter   3:  -436.19393074469815   -6.38454e-08   5.39693e-06 DIIS
   @DF-RKS iter   4:  -436.19393075177248   -7.07433e-09   4.26947e-07 DIIS
   @DF-RKS iter   5:  -436.19393075185394   -8.14566e-11   7.54931e-08 DIIS
   @DF-RKS iter   6:  -436.19393075185866   -4.71800e-12   1.25280e-08 DIIS
   @DF-RKS iter   7:  -436.19393075185889   -2.27374e-13   5.02963e-09 DIIS
  Energy and wave function converged.


  ==> Post-Iterations <==

    Orbital Energies [Eh]
    ---------------------

    Doubly Occupied:                                                      

       1A1   -89.240414     2A1   -10.452540     3A1    -8.166533  
       4A1    -6.072405     1B1    -6.072266     1B2    -6.072266  
       5A1    -0.954605     6A1    -0.625196     2B2    -0.445246  
       2B1    -0.445246     7A1    -0.407024  

    Virtual:                                                              

       3B1     0.010835     3B2     0.010835     8A1     0.198135  
       9A1     0.458213     4B1     0.525324     4B2     0.525324  
      10A1     0.565398     1A2     0.589877    11A1     0.589877  
      12A1     0.623326     5B1     0.630735     5B2     0.630735  
       6B1     0.670909     6B2     0.670909    13A1     0.959355  
      14A1     1.143409    15A1     1.266134     2A2     1.266137  
       7B2     1.541138     7B1     1.541138    16A1     1.925743  
      17A1     4.490307     3A2     4.490315     8B2     4.591717  
       8B1     4.591717    18A1     4.717549  

    Final Occupation by Irrep:
             A1    A2    B1    B2 
    DOCC [     7,    0,    2,    2 ]

  @DF-RKS Final Energy:  -436.19393075185889

   => Energetics <=

    Nuclear Repulsion Energy =             33.0630057717835655
    One-Electron Energy =                -665.8479727296519286
    Two-Electron Energy =                 220.0683643667035199
    DFT Exchange-Correlation Energy =     -23.5694590139211719
    Empirical Dispersion Energy =           0.0000000000000000
    VV10 Nonlocal Energy =                  0.0921308532271966
    Total Energy =                       -436.1939307518588294

Computation Completed


Properties will be evaluated at   0.000000,   0.000000,   0.000000 [a0]

Properties computed using the SCF density matrix

  Nuclear Dipole Moment: [e a0]
     X:     0.0000      Y:     0.0000      Z:     0.0111

  Electronic Dipole Moment: [e a0]
     X:     0.0000      Y:     0.0000      Z:     0.6915

  Dipole Moment: [e a0]
     X:     0.0000      Y:     0.0000      Z:     0.7026     Total:     0.7026

  Dipole Moment: [D]
     X:     0.0000      Y:     0.0000      Z:     1.7857     Total:     1.7857


*** tstop() called on bp1-compute00100.data.bp.acrc.priv at Tue Apr 27 18:11:05 2021
Module time:
	user time   =      33.37 seconds =       0.56 minutes
	system time =       1.18 seconds =       0.02 minutes
	total time  =          2 seconds =       0.03 minutes
Total time:
	user time   =     207.87 seconds =       3.46 minutes
	system time =       7.80 seconds =       0.13 minutes
	total time  =         10 seconds =       0.17 minutes

  //>>>>>>>>>>>>>>>>>>>>>>>>>>>>>>>>>>>//
  //    Loading displacement 3 of 3    //
  //<<<<<<<<<<<<<<<<<<<<<<<<<<<<<<<<<<<//

*** tstart() called on bp1-compute00100.data.bp.acrc.priv
*** at Tue Apr 27 18:11:05 2021

   => Loading Basis Set <=

    Name: CC-PV(D+D)Z
    Role: ORBITAL
    Keyword: BASIS
    atoms 1 entry C          line   147 file /work/zw18965/.conda/envs/p4env/share/psi4/basis/cc-pv_dpd_z.gbs 
    atoms 2 entry S          line   613 file /work/zw18965/.conda/envs/p4env/share/psi4/basis/cc-pv_dpd_z.gbs 


         ---------------------------------------------------------
                                   SCF
               by Justin Turney, Rob Parrish, Andy Simmonett
                          and Daniel G. A. Smith
                              RKS Reference
                       24 Threads, 137329 MiB Core
         ---------------------------------------------------------

  ==> Geometry <==

    Molecular point group: c2v
    Full point group: C_inf_v

    Geometry (in Angstrom), charge = 0, multiplicity = 1:

       Center              X                  Y                   Z               Mass       
    ------------   -----------------  -----------------  -----------------  -----------------
         C            0.000000000000     0.000000000000    -1.115879287387    12.000000000000
         S            0.000000000000     0.000000000000     0.418820268965    31.972071174400

  Running in c2v symmetry.

  Rotational constants: A = ************  B =      0.82030  C =      0.82030 [cm^-1]
  Rotational constants: A = ************  B =  24592.08602  C =  24592.08602 [MHz]
  Nuclear repulsion =   33.101600905567025

  Charge       = 0
  Multiplicity = 1
  Electrons    = 22
  Nalpha       = 11
  Nbeta        = 11

  ==> Algorithm <==

  SCF Algorithm Type is DF.
  DIIS enabled.
  MOM disabled.
  Fractional occupation disabled.
  Guess Type is READ.
  Energy threshold   = 1.00e-08
  Density threshold  = 1.00e-08
  Integral threshold = 0.00e+00

  ==> Primary Basis <==

  Basis Set: CC-PV(D+D)Z
    Blend: CC-PV(D+D)Z
    Number of shells: 15
    Number of basis function: 37
    Number of Cartesian functions: 40
    Spherical Harmonics?: true
    Max angular momentum: 2

  ==> DFT Potential <==

   => Composite Functional: WB97M-V <= 

    wB97M-V Hyb-GGA Exchange-Correlation Functional

    N. Mardirossian and M. Head-Gordon, J. Chem. Phys. 144, 214110 (2016)

    Deriv               =              1
    GGA                 =           TRUE
    Meta                =           TRUE

    Exchange Hybrid     =           TRUE
    MP2 Hybrid          =          FALSE

   => Exchange-Correlation Functionals <=

    1.0000   wB97M-V exchange-correlation functional

   => Exact (HF) Exchange <=

    0.8500            HF,LR [omega = 0.3000]
    0.1500               HF 

   => VV10 Non-Local Parameters <=

    VV10 B              =     6.0000E+00
    VV10 C              =     1.0000E-02

   => Molecular Quadrature <=

    Radial Scheme          =       TREUTLER
    Pruning Scheme         =           FLAT
    Nuclear Scheme         =       TREUTLER

    BS radius alpha        =              1
    Pruning alpha          =              1
    Radial Points          =             75
    Spherical Points       =            302
    Total Points           =          42258
    Total Blocks           =            379
    Max Points             =            256
    Max Functions          =             37

   => Loading Basis Set <=

    Name: (CC-PV(D+D)Z AUX)
    Role: JKFIT
    Keyword: DF_BASIS_SCF
    atoms 1 entry C          line   121 file /work/zw18965/.conda/envs/p4env/share/psi4/basis/cc-pvdz-jkfit.gbs 
    atoms 2 entry S          line   593 file /work/zw18965/.conda/envs/p4env/share/psi4/basis/cc-pvdz-jkfit.gbs 

   => Loading Basis Set <=

    Name: CC-PV(D+D)Z
    Role: ORBITAL
    Keyword: BASIS
    atoms 1 entry C          line   147 file /work/zw18965/.conda/envs/p4env/share/psi4/basis/cc-pv_dpd_z.gbs 
    atoms 2 entry S          line   613 file /work/zw18965/.conda/envs/p4env/share/psi4/basis/cc-pv_dpd_z.gbs 

  Reading orbitals from file 180, no projection.

  ==> Pre-Iterations <==

   -------------------------------------------------------
    Irrep   Nso     Nmo     Nalpha   Nbeta   Ndocc  Nsocc
   -------------------------------------------------------
     A1        18      18       0       0       0       0
     A2         3       3       0       0       0       0
     B1         8       8       0       0       0       0
     B2         8       8       0       0       0       0
   -------------------------------------------------------
    Total      37      37      11      11      11       0
   -------------------------------------------------------

  ==> Integral Setup <==

  ==> DiskDFJK: Density-Fitted J/K Matrices <==

    J tasked:                  Yes
    K tasked:                  Yes
    wK tasked:                 Yes
    Omega:               3.000E-01
    OpenMP threads:             24
    Integrals threads:          24
    Memory [MiB]:           102884
    Algorithm:                Core
    Integral Cache:           NONE
    Schwarz Cutoff:          1E-12
    Fitting Condition:       1E-10

   => Auxiliary Basis Set <=

  Basis Set: (CC-PV(D+D)Z AUX)
    Blend: CC-PVDZ-JKFIT
    Number of shells: 60
    Number of basis function: 182
    Number of Cartesian functions: 211
    Spherical Harmonics?: true
    Max angular momentum: 3

  Cached 100.0% of DFT collocation blocks in 0.110 [GiB].

  Minimum eigenvalue in the overlap matrix is 9.9811905713E-03.
  Using Symmetric Orthogonalization.

  SCF Guess: Orbitals guess was supplied from a previous computation.

  ==> Iterations <==

                           Total Energy        Delta E     RMS |[F,P]|

   @DF-RKS iter   0:  -436.19467854081284   -4.36195e+02   1.27564e-04 
   @DF-RKS iter   1:  -436.19393237282333    7.46168e-04   2.07094e-05 DIIS
   @DF-RKS iter   2:  -436.19393242457926   -5.17559e-08   1.68669e-05 DIIS
   @DF-RKS iter   3:  -436.19393248808512   -6.35059e-08   5.37663e-06 DIIS
   @DF-RKS iter   4:  -436.19393249510046   -7.01533e-09   4.26593e-07 DIIS
   @DF-RKS iter   5:  -436.19393249518225   -8.17977e-11   7.54050e-08 DIIS
   @DF-RKS iter   6:  -436.19393249518629   -4.03588e-12   1.25012e-08 DIIS
   @DF-RKS iter   7:  -436.19393249518674   -4.54747e-13   5.00002e-09 DIIS
  Energy and wave function converged.


  ==> Post-Iterations <==

    Orbital Energies [Eh]
    ---------------------

    Doubly Occupied:                                                      

       1A1   -89.240289     2A1   -10.452009     3A1    -8.166513  
       4A1    -6.072379     1B2    -6.072238     1B1    -6.072238  
       5A1    -0.955117     6A1    -0.625090     2B2    -0.445538  
       2B1    -0.445538     7A1    -0.406845  

    Virtual:                                                              

       3B1     0.011140     3B2     0.011140     8A1     0.198462  
       9A1     0.458002     4B2     0.525083     4B1     0.525083  
      10A1     0.565460     1A2     0.589713    11A1     0.589714  
      12A1     0.623910     5B1     0.631107     5B2     0.631107  
       6B1     0.671198     6B2     0.671198    13A1     0.959912  
      14A1     1.145286    15A1     1.266436     2A2     1.266439  
       7B1     1.542329     7B2     1.542329    16A1     1.926701  
      17A1     4.490320     3A2     4.490329     8B2     4.591882  
       8B1     4.591882    18A1     4.717690  

    Final Occupation by Irrep:
             A1    A2    B1    B2 
    DOCC [     7,    0,    2,    2 ]

  @DF-RKS Final Energy:  -436.19393249518674

   => Energetics <=

    Nuclear Repulsion Energy =             33.1016009055670253
    One-Electron Energy =                -665.9244995256663060
    Two-Electron Energy =                 220.1072632479613844
    DFT Exchange-Correlation Energy =     -23.5704275021530023
    Empirical Dispersion Energy =           0.0000000000000000
    VV10 Nonlocal Energy =                  0.0921303791041617
    Total Energy =                       -436.1939324951867434

Computation Completed


Properties will be evaluated at   0.000000,   0.000000,   0.000000 [a0]

Properties computed using the SCF density matrix

  Nuclear Dipole Moment: [e a0]
     X:     0.0000      Y:     0.0000      Z:     0.0111

  Electronic Dipole Moment: [e a0]
     X:     0.0000      Y:     0.0000      Z:     0.6946

  Dipole Moment: [e a0]
     X:     0.0000      Y:     0.0000      Z:     0.7056     Total:     0.7056

  Dipole Moment: [D]
     X:     0.0000      Y:     0.0000      Z:     1.7935     Total:     1.7935


*** tstop() called on bp1-compute00100.data.bp.acrc.priv at Tue Apr 27 18:11:06 2021
Module time:
	user time   =      32.57 seconds =       0.54 minutes
	system time =       0.98 seconds =       0.02 minutes
	total time  =          1 seconds =       0.02 minutes
Total time:
	user time   =     240.57 seconds =       4.01 minutes
	system time =       8.79 seconds =       0.15 minutes
	total time  =         11 seconds =       0.18 minutes

         ----------------------------------------------------------
                                   FINDIF
                     R. A. King and Jonathon Misiewicz
         ---------------------------------------------------------

  Computing gradient from energies.
    Using 3-point formula.
    Energy without displacement: -436.1939324941
    Check energies below for precision!
    Forces are for mass-weighted, symmetry-adapted cartesians (in au).

     Coord      Energy(-1)        Energy(+1)            Force
        0   -436.1939307519   -436.1939324952     -0.0001743328


-------------------------------------------------------------
  ## New Matrix (Symmetry 0) ##
  Irrep: 1 Size: 2 x 3

                 1                   2                   3

    1     0.00000000000000     0.00000000000000    -0.00051495184368
    2     0.00000000000000     0.00000000000000     0.00051495184368




			-----------------------------------------
			 OPTKING 2.0: for geometry optimizations 
			  - R.A. King,  Bethel University        
			-----------------------------------------
	At level 1: Red. Int., RFO, no backsteps, dynamic trust

	Previous internal coordinate definitions found.
	---Fragment 1 Geometry and Gradient---
	 C           0.0000000000        0.0000000000       -2.1099370105
	 S           0.0000000000        0.0000000000        0.7919175454
	             0.0000000000        0.0000000000       -0.0005149518
	             0.0000000000        0.0000000000        0.0005149518

	---Fragment 1 Intrafragment Coordinates---
	 - Coordinate -           - BOHR/RAD -       - ANG/DEG -
	 R(1,2)           =         2.901855	       1.535595

	Current energy   :      -436.1939324941

	Energy change for the previous step:
		Projected    :        -0.0000181582
		Actual       :        -0.0000436487
	Energy ratio indicates good step: Trust radius increased to 1.000e+00.


	Performing BFGS update.
	Previous computed or guess Hessian on step 1.
	Steps to be used in Hessian update: 1
	Taking RFO optimization step.
	Going to follow RFO solution 1.
	Using RFO vector 1.
	Norm of target step-size    0.00086
	Projected energy change by RFO approximation:        -0.0000000728

	Back-transformation to cartesian coordinates...
	Successfully converged to displaced geometry.

	--- Internal Coordinate Step in ANG or DEG, aJ/ANG or AJ/DEG ---
	 ---------------------------------------------------------------------------
	   Coordinate                Previous        Force       Change         New 
	   ----------                --------       ------       ------       ------
	    1 R(1,2)          =      1.535595    -0.004243    -0.000455     1.535140
	 ---------------------------------------------------------------------------
	Successfully symmetrized geometry.

  ==> Convergence Check <==

  Measures of convergence in internal coordinates in au.
  Criteria marked as inactive (o), active & met (*), and active & unmet ( ).
  ---------------------------------------------------------------------------------------------
   Step     Total Energy     Delta E     MAX Force     RMS Force      MAX Disp      RMS Disp   
  ---------------------------------------------------------------------------------------------
    Convergence Criteria    1.00e-06 *    3.00e-04 *             o    1.20e-03 *             o
  ---------------------------------------------------------------------------------------------
      2    -436.19393249   -4.36e-05      5.15e-04      5.15e-04 o    8.61e-04 *    8.61e-04 o  ~
  ---------------------------------------------------------------------------------------------

	Writing optimization data to binary file.
	Structure for next step:
	Cartesian Geometry (in Angstrom)
	    C     0.0000000000   0.0000000000  -1.1163028685
	    S     0.0000000000   0.0000000000   0.4188370071
			--------------------------
			 OPTKING Finished Execution 
			--------------------------

    Structure for next step:
    Molecular point group: c2v
    Full point group: C_inf_v

    Geometry (in Angstrom), charge = 0, multiplicity = 1:

    C            0.000000000000     0.000000000000    -1.116199447696
    S            0.000000000000     0.000000000000     0.418940433958

gradient() will perform gradient computation by finite difference of analytic energies.

         ----------------------------------------------------------
                                   FINDIF
                     R. A. King and Jonathon Misiewicz
         ---------------------------------------------------------

  Using finite-differences of energies to determine gradients.
    Generating geometries for use with 3-point formula.
    Displacement size will be 5.00e-03.
    Number of atoms is 2.
    Number of symmetric SALCs is 1.
    Translations projected? 1. Rotations projected? 1.
    Number of geometries (including reference) is 3.

  //>>>>>>>>>>>>>>>>>>>>>>>>>>>>>>>>>>>//
  //    Loading displacement 1 of 3    //
  //<<<<<<<<<<<<<<<<<<<<<<<<<<<<<<<<<<<//

*** tstart() called on bp1-compute00100.data.bp.acrc.priv
*** at Tue Apr 27 18:11:06 2021

   => Loading Basis Set <=

    Name: CC-PV(D+D)Z
    Role: ORBITAL
    Keyword: BASIS
    atoms 1 entry C          line   147 file /work/zw18965/.conda/envs/p4env/share/psi4/basis/cc-pv_dpd_z.gbs 
    atoms 2 entry S          line   613 file /work/zw18965/.conda/envs/p4env/share/psi4/basis/cc-pv_dpd_z.gbs 


         ---------------------------------------------------------
                                   SCF
               by Justin Turney, Rob Parrish, Andy Simmonett
                          and Daniel G. A. Smith
                              RKS Reference
                       24 Threads, 137329 MiB Core
         ---------------------------------------------------------

  ==> Geometry <==

    Molecular point group: c2v
    Full point group: C_inf_v

    Geometry (in Angstrom), charge = 0, multiplicity = 1:

       Center              X                  Y                   Z               Mass       
    ------------   -----------------  -----------------  -----------------  -----------------
         C            0.000000000000     0.000000000000    -1.116199447696    12.000000000000
         S            0.000000000000     0.000000000000     0.418940433958    31.972071174400

  Running in c2v symmetry.

  Rotational constants: A = ************  B =      0.81983  C =      0.81983 [cm^-1]
  Rotational constants: A = ************  B =  24577.98051  C =  24577.98051 [MHz]
  Nuclear repulsion =   33.092106349027084

  Charge       = 0
  Multiplicity = 1
  Electrons    = 22
  Nalpha       = 11
  Nbeta        = 11

  ==> Algorithm <==

  SCF Algorithm Type is DF.
  DIIS enabled.
  MOM disabled.
  Fractional occupation disabled.
  Guess Type is READ.
  Energy threshold   = 1.00e-08
  Density threshold  = 1.00e-08
  Integral threshold = 0.00e+00

  ==> Primary Basis <==

  Basis Set: CC-PV(D+D)Z
    Blend: CC-PV(D+D)Z
    Number of shells: 15
    Number of basis function: 37
    Number of Cartesian functions: 40
    Spherical Harmonics?: true
    Max angular momentum: 2

  ==> DFT Potential <==

   => Composite Functional: WB97M-V <= 

    wB97M-V Hyb-GGA Exchange-Correlation Functional

    N. Mardirossian and M. Head-Gordon, J. Chem. Phys. 144, 214110 (2016)

    Deriv               =              1
    GGA                 =           TRUE
    Meta                =           TRUE

    Exchange Hybrid     =           TRUE
    MP2 Hybrid          =          FALSE

   => Exchange-Correlation Functionals <=

    1.0000   wB97M-V exchange-correlation functional

   => Exact (HF) Exchange <=

    0.8500            HF,LR [omega = 0.3000]
    0.1500               HF 

   => VV10 Non-Local Parameters <=

    VV10 B              =     6.0000E+00
    VV10 C              =     1.0000E-02

   => Molecular Quadrature <=

    Radial Scheme          =       TREUTLER
    Pruning Scheme         =           FLAT
    Nuclear Scheme         =       TREUTLER

    BS radius alpha        =              1
    Pruning alpha          =              1
    Radial Points          =             75
    Spherical Points       =            302
    Total Points           =          42258
    Total Blocks           =            379
    Max Points             =            256
    Max Functions          =             37

   => Loading Basis Set <=

    Name: (CC-PV(D+D)Z AUX)
    Role: JKFIT
    Keyword: DF_BASIS_SCF
    atoms 1 entry C          line   121 file /work/zw18965/.conda/envs/p4env/share/psi4/basis/cc-pvdz-jkfit.gbs 
    atoms 2 entry S          line   593 file /work/zw18965/.conda/envs/p4env/share/psi4/basis/cc-pvdz-jkfit.gbs 

   => Loading Basis Set <=

    Name: CC-PV(D+D)Z
    Role: ORBITAL
    Keyword: BASIS
    atoms 1 entry C          line   147 file /work/zw18965/.conda/envs/p4env/share/psi4/basis/cc-pv_dpd_z.gbs 
    atoms 2 entry S          line   613 file /work/zw18965/.conda/envs/p4env/share/psi4/basis/cc-pv_dpd_z.gbs 

  Reading orbitals from file 180, no projection.

  ==> Pre-Iterations <==

   -------------------------------------------------------
    Irrep   Nso     Nmo     Nalpha   Nbeta   Ndocc  Nsocc
   -------------------------------------------------------
     A1        18      18       0       0       0       0
     A2         3       3       0       0       0       0
     B1         8       8       0       0       0       0
     B2         8       8       0       0       0       0
   -------------------------------------------------------
    Total      37      37      11      11      11       0
   -------------------------------------------------------

  ==> Integral Setup <==

  ==> DiskDFJK: Density-Fitted J/K Matrices <==

    J tasked:                  Yes
    K tasked:                  Yes
    wK tasked:                 Yes
    Omega:               3.000E-01
    OpenMP threads:             24
    Integrals threads:          24
    Memory [MiB]:           102884
    Algorithm:                Core
    Integral Cache:           NONE
    Schwarz Cutoff:          1E-12
    Fitting Condition:       1E-10

   => Auxiliary Basis Set <=

  Basis Set: (CC-PV(D+D)Z AUX)
    Blend: CC-PVDZ-JKFIT
    Number of shells: 60
    Number of basis function: 182
    Number of Cartesian functions: 211
    Spherical Harmonics?: true
    Max angular momentum: 3

  Cached 100.0% of DFT collocation blocks in 0.110 [GiB].

  Minimum eigenvalue in the overlap matrix is 9.9921466774E-03.
  Using Symmetric Orthogonalization.

  SCF Guess: Orbitals guess was supplied from a previous computation.

  ==> Iterations <==

                           Total Energy        Delta E     RMS |[F,P]|

   @DF-RKS iter   0:  -436.19431191869290   -4.36194e+02   6.48175e-05 
   @DF-RKS iter   1:  -436.19393268117557    3.79238e-04   1.05313e-05 DIIS
   @DF-RKS iter   2:  -436.19393269454076   -1.33652e-08   8.58134e-06 DIIS
   @DF-RKS iter   3:  -436.19393271098011   -1.64393e-08   2.73615e-06 DIIS
   @DF-RKS iter   4:  -436.19393271279733   -1.81723e-09   2.16936e-07 DIIS
   @DF-RKS iter   5:  -436.19393271281854   -2.12026e-11   3.83488e-08 DIIS
   @DF-RKS iter   6:  -436.19393271281990   -1.36424e-12   6.36003e-09 DIIS
  Energy and wave function converged.


  ==> Post-Iterations <==

    Orbital Energies [Eh]
    ---------------------

    Doubly Occupied:                                                      

       1A1   -89.240320     2A1   -10.452139     3A1    -8.166518  
       4A1    -6.072385     1B1    -6.072245     1B2    -6.072245  
       5A1    -0.954991     6A1    -0.625116     2B2    -0.445466  
       2B1    -0.445466     7A1    -0.406889  

    Virtual:                                                              

       3B1     0.011065     3B2     0.011065     8A1     0.198382  
       9A1     0.458053     4B1     0.525142     4B2     0.525142  
      10A1     0.565445     1A2     0.589753    11A1     0.589754  
      12A1     0.623766     5B1     0.631016     5B2     0.631016  
       6B1     0.671127     6B2     0.671127    13A1     0.959776  
      14A1     1.144824    15A1     1.266362     2A2     1.266364  
       7B2     1.542036     7B1     1.542036    16A1     1.926466  
      17A1     4.490317     3A2     4.490325     8B2     4.591841  
       8B1     4.591841    18A1     4.717655  

    Final Occupation by Irrep:
             A1    A2    B1    B2 
    DOCC [     7,    0,    2,    2 ]

  @DF-RKS Final Energy:  -436.19393271281990

   => Energetics <=

    Nuclear Repulsion Energy =             33.0921063490270839
    One-Electron Energy =                -665.9056748671100650
    Two-Electron Energy =                 220.0976944811324074
    DFT Exchange-Correlation Energy =     -23.5701891712854774
    Empirical Dispersion Energy =           0.0000000000000000
    VV10 Nonlocal Energy =                  0.0921304954161655
    Total Energy =                       -436.1939327128199579

Computation Completed


Properties will be evaluated at   0.000000,   0.000000,   0.000000 [a0]

Properties computed using the SCF density matrix

  Nuclear Dipole Moment: [e a0]
     X:     0.0000      Y:     0.0000      Z:     0.0111

  Electronic Dipole Moment: [e a0]
     X:     0.0000      Y:     0.0000      Z:     0.6938

  Dipole Moment: [e a0]
     X:     0.0000      Y:     0.0000      Z:     0.7049     Total:     0.7049

  Dipole Moment: [D]
     X:     0.0000      Y:     0.0000      Z:     1.7916     Total:     1.7916


*** tstop() called on bp1-compute00100.data.bp.acrc.priv at Tue Apr 27 18:11:07 2021
Module time:
	user time   =      30.00 seconds =       0.50 minutes
	system time =       1.03 seconds =       0.02 minutes
	total time  =          1 seconds =       0.02 minutes
Total time:
	user time   =     270.87 seconds =       4.51 minutes
	system time =       9.83 seconds =       0.16 minutes
	total time  =         12 seconds =       0.20 minutes

  //>>>>>>>>>>>>>>>>>>>>>>>>>>>>>>>>>>>//
  //    Loading displacement 2 of 3    //
  //<<<<<<<<<<<<<<<<<<<<<<<<<<<<<<<<<<<//

*** tstart() called on bp1-compute00100.data.bp.acrc.priv
*** at Tue Apr 27 18:11:07 2021

   => Loading Basis Set <=

    Name: CC-PV(D+D)Z
    Role: ORBITAL
    Keyword: BASIS
    atoms 1 entry C          line   147 file /work/zw18965/.conda/envs/p4env/share/psi4/basis/cc-pv_dpd_z.gbs 
    atoms 2 entry S          line   613 file /work/zw18965/.conda/envs/p4env/share/psi4/basis/cc-pv_dpd_z.gbs 


         ---------------------------------------------------------
                                   SCF
               by Justin Turney, Rob Parrish, Andy Simmonett
                          and Daniel G. A. Smith
                              RKS Reference
                       24 Threads, 137329 MiB Core
         ---------------------------------------------------------

  ==> Geometry <==

    Molecular point group: c2v
    Full point group: C_inf_v

    Geometry (in Angstrom), charge = 0, multiplicity = 1:

       Center              X                  Y                   Z               Mass       
    ------------   -----------------  -----------------  -----------------  -----------------
         C            0.000000000000     0.000000000000    -1.116850742237    12.000000000000
         S            0.000000000000     0.000000000000     0.419184882760    31.972071174400

  Running in c2v symmetry.

  Rotational constants: A = ************  B =      0.81888  C =      0.81888 [cm^-1]
  Rotational constants: A = ************  B =  24549.32344  C =  24549.32344 [MHz]
  Nuclear repulsion =   33.072808597390740

  Charge       = 0
  Multiplicity = 1
  Electrons    = 22
  Nalpha       = 11
  Nbeta        = 11

  ==> Algorithm <==

  SCF Algorithm Type is DF.
  DIIS enabled.
  MOM disabled.
  Fractional occupation disabled.
  Guess Type is READ.
  Energy threshold   = 1.00e-08
  Density threshold  = 1.00e-08
  Integral threshold = 0.00e+00

  ==> Primary Basis <==

  Basis Set: CC-PV(D+D)Z
    Blend: CC-PV(D+D)Z
    Number of shells: 15
    Number of basis function: 37
    Number of Cartesian functions: 40
    Spherical Harmonics?: true
    Max angular momentum: 2

  ==> DFT Potential <==

   => Composite Functional: WB97M-V <= 

    wB97M-V Hyb-GGA Exchange-Correlation Functional

    N. Mardirossian and M. Head-Gordon, J. Chem. Phys. 144, 214110 (2016)

    Deriv               =              1
    GGA                 =           TRUE
    Meta                =           TRUE

    Exchange Hybrid     =           TRUE
    MP2 Hybrid          =          FALSE

   => Exchange-Correlation Functionals <=

    1.0000   wB97M-V exchange-correlation functional

   => Exact (HF) Exchange <=

    0.8500            HF,LR [omega = 0.3000]
    0.1500               HF 

   => VV10 Non-Local Parameters <=

    VV10 B              =     6.0000E+00
    VV10 C              =     1.0000E-02

   => Molecular Quadrature <=

    Radial Scheme          =       TREUTLER
    Pruning Scheme         =           FLAT
    Nuclear Scheme         =       TREUTLER

    BS radius alpha        =              1
    Pruning alpha          =              1
    Radial Points          =             75
    Spherical Points       =            302
    Total Points           =          42258
    Total Blocks           =            378
    Max Points             =            256
    Max Functions          =             37

   => Loading Basis Set <=

    Name: (CC-PV(D+D)Z AUX)
    Role: JKFIT
    Keyword: DF_BASIS_SCF
    atoms 1 entry C          line   121 file /work/zw18965/.conda/envs/p4env/share/psi4/basis/cc-pvdz-jkfit.gbs 
    atoms 2 entry S          line   593 file /work/zw18965/.conda/envs/p4env/share/psi4/basis/cc-pvdz-jkfit.gbs 

   => Loading Basis Set <=

    Name: CC-PV(D+D)Z
    Role: ORBITAL
    Keyword: BASIS
    atoms 1 entry C          line   147 file /work/zw18965/.conda/envs/p4env/share/psi4/basis/cc-pv_dpd_z.gbs 
    atoms 2 entry S          line   613 file /work/zw18965/.conda/envs/p4env/share/psi4/basis/cc-pv_dpd_z.gbs 

  Reading orbitals from file 180, no projection.

  ==> Pre-Iterations <==

   -------------------------------------------------------
    Irrep   Nso     Nmo     Nalpha   Nbeta   Ndocc  Nsocc
   -------------------------------------------------------
     A1        18      18       0       0       0       0
     A2         3       3       0       0       0       0
     B1         8       8       0       0       0       0
     B2         8       8       0       0       0       0
   -------------------------------------------------------
[...]

  ==> Iterations <==

                           Total Energy        Delta E     RMS |[F,P]|

   @DF-RKS iter SAD:  -435.65057316052918   -4.35651e+02   0.00000e+00 
   @DF-RKS iter   1:  -436.16489576412482   -5.14323e-01   9.87072e-03 DIIS
   @DF-RKS iter   2:  -436.15756343016312    7.33233e-03   1.18133e-02 DIIS
   @DF-RKS iter   3:  -436.19368644022865   -3.61230e-02   8.10592e-04 DIIS
   @DF-RKS iter   4:  -436.19390190016549   -2.15460e-04   2.71353e-04 DIIS
   @DF-RKS iter   5:  -436.19392976031361   -2.78601e-05   6.77976e-05 DIIS
   @DF-RKS iter   6:  -436.19393158248840   -1.82217e-06   2.35239e-05 DIIS
   @DF-RKS iter   7:  -436.19393184637897   -2.63891e-07   3.00972e-06 DIIS
   @DF-RKS iter   8:  -436.19393185473803   -8.35905e-09   3.64926e-07 DIIS
   @DF-RKS iter   9:  -436.19393185484239   -1.04365e-10   5.93951e-08 DIIS
   @DF-RKS iter  10:  -436.19393185484461   -2.21689e-12   8.34403e-09 DIIS
   @DF-RKS iter  11:  -436.19393185484449    1.13687e-13   4.37210e-10 DIIS
   @DF-RKS iter  12:  -436.19393185484478   -2.84217e-13   7.21267e-11 DIIS
  Energy and wave function converged.


  ==> Post-Iterations <==

    Orbital Energies [Eh]
    ---------------------

    Doubly Occupied:                                                      

       1A1   -89.240383     2A1   -10.452405     3A1    -8.166528  
       4A1    -6.072398     1B1    -6.072259     1B2    -6.072259  
       5A1    -0.954735     6A1    -0.625169     2B2    -0.445320  
       2B1    -0.445320     7A1    -0.406979  

    Virtual:                                                              

       3B1     0.010912     3B2     0.010912     8A1     0.198219  
       9A1     0.458159     4B2     0.525263     4B1     0.525263  
      10A1     0.565414     1A2     0.589835    11A1     0.589836  
      12A1     0.623474     5B2     0.630830     5B1     0.630830  
       6B1     0.670982     6B2     0.670982    13A1     0.959497  
      14A1     1.143885    15A1     1.266211     2A2     1.266213  
       7B2     1.541440     7B1     1.541440    16A1     1.925986  
      17A1     4.490310     3A2     4.490319     8B1     4.591759  
       8B2     4.591759    18A1     4.717584  

    Final Occupation by Irrep:
             A1    A2    B1    B2 
    DOCC [     7,    0,    2,    2 ]

  @DF-RKS Final Energy:  -436.19393185484478

   => Energetics <=

    Nuclear Repulsion Energy =             33.0728085973907397
    One-Electron Energy =                -665.8674108288822708
    Two-Electron Energy =                 220.0782445288057545
    DFT Exchange-Correlation Energy =     -23.5697048845301680
    Empirical Dispersion Energy =           0.0000000000000000
    VV10 Nonlocal Energy =                  0.0921307323712562
    Total Energy =                       -436.1939318548447773

Computation Completed


Properties will be evaluated at   0.000000,   0.000000,   0.000000 [a0]

Properties computed using the SCF density matrix

  Nuclear Dipole Moment: [e a0]
     X:     0.0000      Y:     0.0000      Z:     0.0111

  Electronic Dipole Moment: [e a0]
     X:     0.0000      Y:     0.0000      Z:     0.6923

  Dipole Moment: [e a0]
     X:     0.0000      Y:     0.0000      Z:     0.7033     Total:     0.7033

  Dipole Moment: [D]
     X:     0.0000      Y:     0.0000      Z:     1.7877     Total:     1.7877


*** tstop() called on bp1-compute00100.data.bp.acrc.priv at Tue Apr 27 18:11:20 2021
Module time:
	user time   =      48.02 seconds =       0.80 minutes
	system time =       1.56 seconds =       0.03 minutes
	total time  =          2 seconds =       0.03 minutes
Total time:
	user time   =     570.96 seconds =       9.52 minutes
	system time =      19.77 seconds =       0.33 minutes
	total time  =         25 seconds =       0.42 minutes

  //>>>>>>>>>>>>>>>>>>>>>>>>>>>>>>>>>>>//
  //    Loading displacement 3 of 3    //
  //<<<<<<<<<<<<<<<<<<<<<<<<<<<<<<<<<<<//

*** tstart() called on bp1-compute00100.data.bp.acrc.priv
*** at Tue Apr 27 18:11:20 2021

   => Loading Basis Set <=

    Name: CC-PV(D+D)Z
    Role: ORBITAL
    Keyword: BASIS
    atoms 1 entry C          line   147 file /work/zw18965/.conda/envs/p4env/share/psi4/basis/cc-pv_dpd_z.gbs 
    atoms 2 entry S          line   613 file /work/zw18965/.conda/envs/p4env/share/psi4/basis/cc-pv_dpd_z.gbs 


         ---------------------------------------------------------
                                   SCF
               by Justin Turney, Rob Parrish, Andy Simmonett
                          and Daniel G. A. Smith
                              RKS Reference
                       24 Threads, 137329 MiB Core
         ---------------------------------------------------------

  ==> Geometry <==

    Molecular point group: c2v
    Full point group: C_inf_v

    Geometry (in Angstrom), charge = 0, multiplicity = 1:

       Center              X                  Y                   Z               Mass       
    ------------   -----------------  -----------------  -----------------  -----------------
         C            0.000000000000     0.000000000000    -1.115548153154    12.000000000000
         S            0.000000000000     0.000000000000     0.418695985156    31.972071174400

  Running in c2v symmetry.

  Rotational constants: A = ************  B =      0.82079  C =      0.82079 [cm^-1]
  Rotational constants: A = ************  B =  24606.68779  C =  24606.68779 [MHz]
  Nuclear repulsion =   33.111426634016688

  Charge       = 0
  Multiplicity = 1
  Electrons    = 22
  Nalpha       = 11
  Nbeta        = 11

  ==> Algorithm <==

  SCF Algorithm Type is DF.
  DIIS enabled.
  MOM disabled.
  Fractional occupation disabled.
  Guess Type is SAD.
  Energy threshold   = 1.00e-10
  Density threshold  = 1.00e-10
  Integral threshold = 0.00e+00

  ==> Primary Basis <==

  Basis Set: CC-PV(D+D)Z
    Blend: CC-PV(D+D)Z
    Number of shells: 15
    Number of basis function: 37
    Number of Cartesian functions: 40
    Spherical Harmonics?: true
    Max angular momentum: 2

  ==> DFT Potential <==

   => Composite Functional: WB97M-V <= 

    wB97M-V Hyb-GGA Exchange-Correlation Functional

    N. Mardirossian and M. Head-Gordon, J. Chem. Phys. 144, 214110 (2016)

    Deriv               =              1
    GGA                 =           TRUE
    Meta                =           TRUE

    Exchange Hybrid     =           TRUE
    MP2 Hybrid          =          FALSE

   => Exchange-Correlation Functionals <=

    1.0000   wB97M-V exchange-correlation functional

   => Exact (HF) Exchange <=

    0.8500            HF,LR [omega = 0.3000]
    0.1500               HF 

   => VV10 Non-Local Parameters <=

    VV10 B              =     6.0000E+00
    VV10 C              =     1.0000E-02

   => Molecular Quadrature <=

    Radial Scheme          =       TREUTLER
    Pruning Scheme         =           FLAT
    Nuclear Scheme         =       TREUTLER

    BS radius alpha        =              1
    Pruning alpha          =              1
    Radial Points          =             75
    Spherical Points       =            302
    Total Points           =          42258
    Total Blocks           =            379
    Max Points             =            256
    Max Functions          =             37

   => Loading Basis Set <=

    Name: (CC-PV(D+D)Z AUX)
    Role: JKFIT
    Keyword: DF_BASIS_SCF
    atoms 1 entry C          line   121 file /work/zw18965/.conda/envs/p4env/share/psi4/basis/cc-pvdz-jkfit.gbs 
    atoms 2 entry S          line   593 file /work/zw18965/.conda/envs/p4env/share/psi4/basis/cc-pvdz-jkfit.gbs 

  ==> Pre-Iterations <==

   -------------------------------------------------------
    Irrep   Nso     Nmo     Nalpha   Nbeta   Ndocc  Nsocc
   -------------------------------------------------------
     A1        18      18       0       0       0       0
     A2         3       3       0       0       0       0
     B1         8       8       0       0       0       0
     B2         8       8       0       0       0       0
   -------------------------------------------------------
    Total      37      37      11      11      11       0
   -------------------------------------------------------

  ==> Integral Setup <==

  ==> DiskDFJK: Density-Fitted J/K Matrices <==

    J tasked:                  Yes
    K tasked:                  Yes
    wK tasked:                 Yes
    Omega:               3.000E-01
    OpenMP threads:             24
    Integrals threads:          24
    Memory [MiB]:           102884
    Algorithm:                Core
    Integral Cache:           NONE
    Schwarz Cutoff:          1E-12
    Fitting Condition:       1E-10

   => Auxiliary Basis Set <=

  Basis Set: (CC-PV(D+D)Z AUX)
    Blend: CC-PVDZ-JKFIT
    Number of shells: 60
    Number of basis function: 182
    Number of Cartesian functions: 211
    Spherical Harmonics?: true
    Max angular momentum: 3

  Cached 100.0% of DFT collocation blocks in 0.110 [GiB].

  Minimum eigenvalue in the overlap matrix is 9.9698691492E-03.
  Using Symmetric Orthogonalization.

  SCF Guess: Superposition of Atomic Densities via on-the-fly atomic UHF.

  ==> Iterations <==

                           Total Energy        Delta E     RMS |[F,P]|

   @DF-RKS iter SAD:  -435.65328719255280   -4.35653e+02   0.00000e+00 
   @DF-RKS iter   1:  -436.16451089537929   -5.11224e-01   9.94538e-03 DIIS
   @DF-RKS iter   2:  -436.15705196618865    7.45893e-03   1.18994e-02 DIIS
   @DF-RKS iter   3:  -436.19368803013452   -3.66361e-02   8.07436e-04 DIIS
   @DF-RKS iter   4:  -436.19390193608166   -2.13906e-04   2.71252e-04 DIIS
   @DF-RKS iter   5:  -436.19392973756658   -2.78015e-05   6.77837e-05 DIIS
   @DF-RKS iter   6:  -436.19393155426616   -1.81670e-06   2.35086e-05 DIIS
   @DF-RKS iter   7:  -436.19393181681704   -2.62551e-07   2.99953e-06 DIIS
   @DF-RKS iter   8:  -436.19393182511612   -8.29908e-09   3.64535e-07 DIIS
   @DF-RKS iter   9:  -436.19393182522026   -1.04137e-10   5.92978e-08 DIIS
   @DF-RKS iter  10:  -436.19393182522259   -2.33058e-12   8.33426e-09 DIIS
   @DF-RKS iter  11:  -436.19393182522265   -5.68434e-14   4.37195e-10 DIIS
   @DF-RKS iter  12:  -436.19393182522248    1.70530e-13   7.19785e-11 DIIS
  Energy and wave function converged.


  ==> Post-Iterations <==

    Orbital Energies [Eh]
    ---------------------

    Doubly Occupied:                                                      

       1A1   -89.240257     2A1   -10.451873     3A1    -8.166508  
       4A1    -6.072372     1B2    -6.072231     1B1    -6.072231  
       5A1    -0.955247     6A1    -0.625063     2B2    -0.445613  
       2B1    -0.445613     7A1    -0.406799  

    Virtual:                                                              

       3B2     0.011217     3B1     0.011217     8A1     0.198545  
       9A1     0.457948     4B2     0.525022     4B1     0.525022  
      10A1     0.565476     1A2     0.589672    11A1     0.589672  
      12A1     0.624059     5B2     0.631201     5B1     0.631201  
       6B2     0.671273     6B1     0.671273    13A1     0.960053  
      14A1     1.145765    15A1     1.266513     2A2     1.266515  
       7B1     1.542632     7B2     1.542632    16A1     1.926945  
      17A1     4.490324     3A2     4.490332     8B2     4.591923  
       8B1     4.591923    18A1     4.717726  

    Final Occupation by Irrep:
             A1    A2    B1    B2 
    DOCC [     7,    0,    2,    2 ]

  @DF-RKS Final Energy:  -436.19393182522248

   => Energetics <=

    Nuclear Repulsion Energy =             33.1114266340166878
    One-Electron Energy =                -665.9439804241231968
    Two-Electron Energy =                 220.1171659761734816
    DFT Exchange-Correlation Energy =     -23.5706742704536403
    Empirical Dispersion Energy =           0.0000000000000000
    VV10 Nonlocal Energy =                  0.0921302591642517
    Total Energy =                       -436.1939318252224211

Computation Completed


Properties will be evaluated at   0.000000,   0.000000,   0.000000 [a0]

Properties computed using the SCF density matrix

  Nuclear Dipole Moment: [e a0]
     X:     0.0000      Y:     0.0000      Z:     0.0110

  Electronic Dipole Moment: [e a0]
     X:     0.0000      Y:     0.0000      Z:     0.6954

  Dipole Moment: [e a0]
     X:     0.0000      Y:     0.0000      Z:     0.7064     Total:     0.7064

  Dipole Moment: [D]
     X:     0.0000      Y:     0.0000      Z:     1.7955     Total:     1.7955


*** tstop() called on bp1-compute00100.data.bp.acrc.priv at Tue Apr 27 18:11:22 2021
Module time:
	user time   =      48.45 seconds =       0.81 minutes
	system time =       1.52 seconds =       0.03 minutes
	total time  =          2 seconds =       0.03 minutes
Total time:
	user time   =     619.54 seconds =      10.33 minutes
	system time =      21.30 seconds =       0.35 minutes
	total time  =         27 seconds =       0.45 minutes

         ----------------------------------------------------------
                                   FINDIF
                     R. A. King and Jonathon Misiewicz
         ---------------------------------------------------------

  Computing second-derivative from energies using projected, 
  symmetry-adapted, cartesian coordinates.

  3 energies passed in, including the reference geometry.
    Using 3-point formula.
    Energy without displacement: -436.1939327128
    Check energies below for precision!
    0: -1 :      -436.1939318548
    0: 1  :      -436.1939318252

-------------------------------------------------------------


  ==> Harmonic Vibrational Analysis <==

  non-mass-weighted Hessian:       Symmetric? True   Hermitian? True   Lin Dep Dim?  5 (0)
  projection of translations (True) and rotations (True) removed 5 degrees of freedom (5)
  total projector:                 Symmetric? True   Hermitian? True   Lin Dep Dim?  5 (5)
  mass-weighted Hessian:           Symmetric? True   Hermitian? True   Lin Dep Dim?  5 (0)
  pre-proj  low-frequency mode:    0.0000  [cm^-1]
  pre-proj  low-frequency mode:    0.0000  [cm^-1]
  pre-proj  low-frequency mode:    0.0000  [cm^-1]
  pre-proj  low-frequency mode:    0.0000  [cm^-1]
  pre-proj  low-frequency mode:    0.0000  [cm^-1]
  pre-proj  all modes:['0.0000' '0.0000' '0.0000' '0.0000' '0.0000' '1358.3235']
  projected mass-weighted Hessian: Symmetric? True   Hermitian? True   Lin Dep Dim?  5 (5)
  post-proj low-frequency mode:    0.0000  [cm^-1] (TR)
  post-proj low-frequency mode:    0.0000  [cm^-1] (TR)
  post-proj low-frequency mode:    0.0000  [cm^-1] (TR)
  post-proj low-frequency mode:    0.0000  [cm^-1] (TR)
  post-proj low-frequency mode:    0.0000  [cm^-1] (TR)
  post-proj  all modes:['0.0000' '0.0000' '0.0000' '0.0000' '0.0000' '1358.3235']

  Vibration                       6           
  Freq [cm^-1]                1358.3235       
  Irrep                           A1          
  Reduced mass [u]             14.4661        
  Force const [mDyne/A]        15.7256        
  Turning point v=0 [a0]        0.0783        
  RMS dev v=0 [a0 u^1/2]        0.2105        
  Char temp [K]               1954.3250       
  ----------------------------------------------------------------------------------
      1   C                0.00  0.00  0.94   
      2   S                0.00  0.00 -0.35   

  ==> Thermochemistry Components <==

  Entropy, S
    Electronic S            0.000 [cal/(mol K)]        0.000 [J/(mol K)]       0.00000000 [mEh/K] (multiplicity = 1)
    Translational S        37.269 [cal/(mol K)]      155.933 [J/(mol K)]       0.05939180 [mEh/K] (mol. weight = 43.9721 [u], P = 101325.00 [Pa])
    Rotational S           12.981 [cal/(mol K)]       54.314 [J/(mol K)]       0.02068705 [mEh/K] (symmetry no. = 1)
    Vibrational S           0.021 [cal/(mol K)]        0.090 [J/(mol K)]       0.00003410 [mEh/K]
  Total S                  50.272 [cal/(mol K)]      210.337 [J/(mol K)]       0.08011295 [mEh/K]
  Correction S              0.000 [cal/(mol K)]        0.000 [J/(mol K)]       0.00000000 [mEh/K]

  Constant volume heat capacity, Cv
    Electronic Cv           0.000 [cal/(mol K)]        0.000 [J/(mol K)]       0.00000000 [mEh/K]
    Translational Cv        2.981 [cal/(mol K)]       12.472 [J/(mol K)]       0.00475022 [mEh/K]
    Rotational Cv           1.987 [cal/(mol K)]        8.314 [J/(mol K)]       0.00316681 [mEh/K]
    Vibrational Cv          0.122 [cal/(mol K)]        0.510 [J/(mol K)]       0.00019420 [mEh/K]
  Total Cv                  5.090 [cal/(mol K)]       21.296 [J/(mol K)]       0.00811123 [mEh/K]
  Correction Cv             0.000 [cal/(mol K)]        0.000 [J/(mol K)]       0.00000000 [mEh/K]

  Constant pressure heat capacity, Cp
    Electronic Cp           0.000 [cal/(mol K)]        0.000 [J/(mol K)]       0.00000000 [mEh/K]
    Translational Cp        4.968 [cal/(mol K)]       20.786 [J/(mol K)]       0.00791703 [mEh/K]
    Rotational Cp           1.987 [cal/(mol K)]        8.314 [J/(mol K)]       0.00316681 [mEh/K]
    Vibrational Cp          0.122 [cal/(mol K)]        0.510 [J/(mol K)]       0.00019420 [mEh/K]
  Total Cp                  7.077 [cal/(mol K)]       29.610 [J/(mol K)]       0.01127804 [mEh/K]
  Correction Cp             0.000 [cal/(mol K)]        0.000 [J/(mol K)]       0.00000000 [mEh/K]

  ==> Thermochemistry Energy Analysis <==

  Raw electronic energy, E0
  Total E0, Electronic energy at well bottom at 0 [K]                 -436.19393271 [Eh]

  Zero-point energy, ZPE_vib = Sum_i nu_i / 2
    Electronic ZPE          0.000 [kcal/mol]        0.000 [kJ/mol]       0.00000000 [Eh]
    Translational ZPE       0.000 [kcal/mol]        0.000 [kJ/mol]       0.00000000 [Eh]
    Rotational ZPE          0.000 [kcal/mol]        0.000 [kJ/mol]       0.00000000 [Eh]
    Vibrational ZPE         1.942 [kcal/mol]        8.125 [kJ/mol]       0.00309449 [Eh]         679.162 [cm^-1]
  Correction ZPE            1.942 [kcal/mol]        8.125 [kJ/mol]       0.00309449 [Eh]         679.162 [cm^-1]
  Total ZPE, Electronic energy at 0 [K]                               -436.19083822 [Eh]

  Thermal Energy, E (includes ZPE)
    Electronic E            0.000 [kcal/mol]        0.000 [kJ/mol]       0.00000000 [Eh]
    Translational E         0.889 [kcal/mol]        3.718 [kJ/mol]       0.00141628 [Eh]
    Rotational E            0.592 [kcal/mol]        2.479 [kJ/mol]       0.00094418 [Eh]
    Vibrational E           1.947 [kcal/mol]        8.148 [kJ/mol]       0.00310331 [Eh]
  Correction E              3.429 [kcal/mol]       14.345 [kJ/mol]       0.00546377 [Eh]
  Total E, Electronic energy at  298.15 [K]                           -436.18846894 [Eh]

  Enthalpy, H_trans = E_trans + k_B * T
    Electronic H            0.000 [kcal/mol]        0.000 [kJ/mol]       0.00000000 [Eh]
    Translational H         1.481 [kcal/mol]        6.197 [kJ/mol]       0.00236046 [Eh]
    Rotational H            0.592 [kcal/mol]        2.479 [kJ/mol]       0.00094418 [Eh]
    Vibrational H           1.947 [kcal/mol]        8.148 [kJ/mol]       0.00310331 [Eh]
  Correction H              4.021 [kcal/mol]       16.824 [kJ/mol]       0.00640796 [Eh]
  Total H, Enthalpy at  298.15 [K]                                    -436.18752476 [Eh]

  Gibbs free energy, G = H - T * S
    Electronic G            0.000 [kcal/mol]        0.000 [kJ/mol]       0.00000000 [Eh]
    Translational G        -9.631 [kcal/mol]      -40.294 [kJ/mol]      -0.01534720 [Eh]
    Rotational G           -3.278 [kcal/mol]      -13.715 [kJ/mol]      -0.00522366 [Eh]
    Vibrational G           1.941 [kcal/mol]        8.121 [kJ/mol]       0.00309314 [Eh]
  Correction G            -10.967 [kcal/mol]      -45.888 [kJ/mol]      -0.01747772 [Eh]
  Total G, Free enthalpy at  298.15 [K]                               -436.21141043 [Eh]

    Psi4 stopped on: Tuesday, 27 April 2021 06:11PM
    Psi4 wall time for execution: 0:00:27.38

*** Psi4 exiting successfully. Buy a developer a beer!
