
    -----------------------------------------------------------------------
          Psi4: An Open-Source Ab Initio Electronic Structure Package
                               Psi4 1.3.2 release

                         Git: Rev {HEAD} ecbda83 


    R. M. Parrish, L. A. Burns, D. G. A. Smith, A. C. Simmonett,
    A. E. DePrince III, E. G. Hohenstein, U. Bozkaya, A. Yu. Sokolov,
    R. Di Remigio, R. M. Richard, J. F. Gonthier, A. M. James,
    H. R. McAlexander, A. Kumar, M. Saitow, X. Wang, B. P. Pritchard,
    P. Verma, H. F. Schaefer III, K. Patkowski, R. A. King, E. F. Valeev,
    F. A. Evangelista, J. M. Turney, T. D. Crawford, and C. D. Sherrill,
    J. Chem. Theory Comput. 13(7) pp 3185--3197 (2017).
    (doi: 10.1021/acs.jctc.7b00174)


                         Additional Contributions by
    P. Kraus, H. Kruse, M. H. Lechner, M. C. Schieber, R. A. Shaw,
    A. Alenaizan, R. Galvelis, Z. L. Glick, S. Lehtola, and J. P. Misiewicz

    -----------------------------------------------------------------------


    Psi4 started on: Tuesday, 27 April 2021 06:11PM

    Process ID: 185801
    Host:       bp1-compute00140.data.bp.acrc.priv
    PSIDATADIR: /work/zw18965/.conda/envs/p4env/share/psi4
    Memory:     500.0 MiB
    Threads:    24
    
  ==> Input File <==

--------------------------------------------------------------------------
memory 144 GB

molecule {
0 1
O 0.0000000000 0.0000000000 0.0000000000
H 0.0000000000 0.0000000000 0.9579000000
H 0.9289588892 0.0000000000 -0.2336831018
}

set dynamic_level 1
set basis cc-pV(D+d)Z
 
optimize("wB97M-V")
frequencies("wB97M-V")
--------------------------------------------------------------------------

  Memory set to 134.110 GiB by Python driver.
gradient() will perform gradient computation by finite difference of analytic energies.

         ----------------------------------------------------------
                                   FINDIF
                     R. A. King and Jonathon Misiewicz
         ---------------------------------------------------------

  Using finite-differences of energies to determine gradients.
    Generating geometries for use with 3-point formula.
    Displacement size will be 5.00e-03.
    Number of atoms is 3.
    Number of symmetric SALCs is 2.
    Translations projected? 1. Rotations projected? 1.
    Number of geometries (including reference) is 5.

  //>>>>>>>>>>>>>>>>>>>>>>>>>>>>>>>>>>>//
  //    Loading displacement 1 of 5    //
  //<<<<<<<<<<<<<<<<<<<<<<<<<<<<<<<<<<<//

*** tstart() called on bp1-compute00140.data.bp.acrc.priv
*** at Tue Apr 27 18:11:17 2021

   => Loading Basis Set <=

    Name: CC-PV(D+D)Z
    Role: ORBITAL
    Keyword: BASIS
    atoms 1   entry O          line   207 file /work/zw18965/.conda/envs/p4env/share/psi4/basis/cc-pv_dpd_z.gbs 
    atoms 2-3 entry H          line    31 file /work/zw18965/.conda/envs/p4env/share/psi4/basis/cc-pv_dpd_z.gbs 


         ---------------------------------------------------------
                                   SCF
               by Justin Turney, Rob Parrish, Andy Simmonett
                          and Daniel G. A. Smith
                              RKS Reference
                       24 Threads, 137329 MiB Core
         ---------------------------------------------------------

  ==> Geometry <==

    Molecular point group: c2v
    Full point group: C2v

    Geometry (in Angstrom), charge = 0, multiplicity = 1:

       Center              X                  Y                   Z               Mass       
    ------------   -----------------  -----------------  -----------------  -----------------
         O            0.000000000000     0.000000000000    -0.065912414824    15.994914619570
         H           -0.000000000000     0.755452663361     0.523038927279     1.007825032230
         H            0.000000000000    -0.755452663361     0.523038927279     1.007825032230

  Running in c2v symmetry.

  Rotational constants: A =     27.14988  B =     14.65436  C =      9.51731 [cm^-1]
  Rotational constants: A = 813932.95770  B = 439326.65046  C = 285321.92187 [MHz]
  Nuclear repulsion =    9.189193889971767

  Charge       = 0
  Multiplicity = 1
  Electrons    = 10
  Nalpha       = 5
  Nbeta        = 5

  ==> Algorithm <==

  SCF Algorithm Type is DF.
  DIIS enabled.
  MOM disabled.
  Fractional occupation disabled.
  Guess Type is SAD.
  Energy threshold   = 1.00e-08
  Density threshold  = 1.00e-08
  Integral threshold = 0.00e+00

  ==> Primary Basis <==

  Basis Set: CC-PV(D+D)Z
    Blend: CC-PV(D+D)Z
    Number of shells: 12
    Number of basis function: 24
    Number of Cartesian functions: 25
    Spherical Harmonics?: true
    Max angular momentum: 2

  ==> DFT Potential <==

   => Composite Functional: WB97M-V <= 

    wB97M-V Hyb-GGA Exchange-Correlation Functional

    N. Mardirossian and M. Head-Gordon, J. Chem. Phys. 144, 214110 (2016)

    Deriv               =              1
    GGA                 =           TRUE
    Meta                =           TRUE

    Exchange Hybrid     =           TRUE
    MP2 Hybrid          =          FALSE

   => Exchange-Correlation Functionals <=

    1.0000   wB97M-V exchange-correlation functional

   => Exact (HF) Exchange <=

    0.8500            HF,LR [omega = 0.3000]
    0.1500               HF 

   => VV10 Non-Local Parameters <=

    VV10 B              =     6.0000E+00
    VV10 C              =     1.0000E-02

   => Molecular Quadrature <=

    Radial Scheme          =       TREUTLER
    Pruning Scheme         =           FLAT
    Nuclear Scheme         =       TREUTLER

    BS radius alpha        =              1
    Pruning alpha          =              1
    Radial Points          =             75
    Spherical Points       =            302
    Total Points           =          66409
    Total Blocks           =            570
    Max Points             =            256
    Max Functions          =             24

   => Loading Basis Set <=

    Name: (CC-PV(D+D)Z AUX)
    Role: JKFIT
    Keyword: DF_BASIS_SCF
    atoms 1   entry O          line   221 file /work/zw18965/.conda/envs/p4env/share/psi4/basis/cc-pvdz-jkfit.gbs 
    atoms 2-3 entry H          line    51 file /work/zw18965/.conda/envs/p4env/share/psi4/basis/cc-pvdz-jkfit.gbs 

  ==> Pre-Iterations <==

   -------------------------------------------------------
    Irrep   Nso     Nmo     Nalpha   Nbeta   Ndocc  Nsocc
   -------------------------------------------------------
     A1        11      11       0       0       0       0
     A2         2       2       0       0       0       0
     B1         4       4       0       0       0       0
     B2         7       7       0       0       0       0
   -------------------------------------------------------
    Total      24      24       5       5       5       0
   -------------------------------------------------------

  ==> Integral Setup <==

  ==> DiskDFJK: Density-Fitted J/K Matrices <==

    J tasked:                  Yes
    K tasked:                  Yes
    wK tasked:                 Yes
    Omega:               3.000E-01
    OpenMP threads:             24
    Integrals threads:          24
    Memory [MiB]:           102882
    Algorithm:                Core
    Integral Cache:           NONE
    Schwarz Cutoff:          1E-12
    Fitting Condition:       1E-10

   => Auxiliary Basis Set <=

  Basis Set: (CC-PV(D+D)Z AUX)
    Blend: CC-PVDZ-JKFIT
    Number of shells: 42
    Number of basis function: 116
    Number of Cartesian functions: 131
    Spherical Harmonics?: true
    Max angular momentum: 3

  Cached 100.0% of DFT collocation blocks in 0.111 [GiB].

  Minimum eigenvalue in the overlap matrix is 3.4172954180E-02.
  Using Symmetric Orthogonalization.

  SCF Guess: Superposition of Atomic Densities via on-the-fly atomic UHF.

  ==> Iterations <==

                           Total Energy        Delta E     RMS |[F,P]|

   @DF-RKS iter SAD:   -75.97745580371897   -7.59775e+01   0.00000e+00 
   @DF-RKS iter   1:   -76.27931213659463   -3.01856e-01   3.87741e-02 DIIS
   @DF-RKS iter   2:   -76.29928382825371   -1.99717e-02   3.72270e-02 DIIS
   @DF-RKS iter   3:   -76.38919878165223   -8.99150e-02   1.10219e-03 DIIS
   @DF-RKS iter   4:   -76.38934410773656   -1.45326e-04   3.19371e-04 DIIS
   @DF-RKS iter   5:   -76.38935599661167   -1.18889e-05   4.37848e-05 DIIS
   @DF-RKS iter   6:   -76.38935640332240   -4.06711e-07   7.84891e-06 DIIS
   @DF-RKS iter   7:   -76.38935642949841   -2.61760e-08   1.48827e-06 DIIS
   @DF-RKS iter   8:   -76.38935643031309   -8.14680e-10   1.24068e-07 DIIS
   @DF-RKS iter   9:   -76.38935643031652   -3.43903e-12   1.24295e-08 DIIS
   @DF-RKS iter  10:   -76.38935643031651    1.42109e-14   6.12823e-10 DIIS
  Energy and wave function converged.


  ==> Post-Iterations <==

    Orbital Energies [Eh]
    ---------------------

    Doubly Occupied:                                                      

       1A1   -19.325126     2A1    -1.118823     1B2    -0.616231  
       3A1    -0.472227     1B1    -0.395405  

    Virtual:                                                              

       4A1     0.132678     2B2     0.204590     3B2     0.657071  
       5A1     0.712076     6A1     1.016710     2B1     1.041406  
       4B2     1.101555     7A1     1.301167     1A2     1.336741  
       3B1     1.526378     8A1     1.692125     5B2     1.772583  
       6B2     2.224202     9A1     2.262421     4B1     3.035092  
       2A2     3.077120    10A1     3.244201    11A1     3.569381  
       7B2     3.842260  

    Final Occupation by Irrep:
             A1    A2    B1    B2 
    DOCC [     3,    0,    1,    1 ]

  @DF-RKS Final Energy:   -76.38935643031651

   => Energetics <=

    Nuclear Repulsion Energy =              9.1891938899717669
    One-Electron Energy =                -123.1461521571092987
    Two-Electron Energy =                  44.2028977984848694
    DFT Exchange-Correlation Energy =      -6.6779645540028048
    Empirical Dispersion Energy =           0.0000000000000000
    VV10 Nonlocal Energy =                  0.0426685923389694
    Total Energy =                        -76.3893564303164965

Computation Completed


Properties will be evaluated at   0.000000,   0.000000,   0.000000 [a0]

Properties computed using the SCF density matrix

  Nuclear Dipole Moment: [e a0]
     X:     0.0000      Y:     0.0000      Z:     0.9803

  Electronic Dipole Moment: [e a0]
     X:     0.0000      Y:     0.0000      Z:    -0.2252

  Dipole Moment: [e a0]
     X:     0.0000      Y:     0.0000      Z:     0.7551     Total:     0.7551

  Dipole Moment: [D]
     X:     0.0000      Y:     0.0000      Z:     1.9193     Total:     1.9193


*** tstop() called on bp1-compute00140.data.bp.acrc.priv at Tue Apr 27 18:11:20 2021
Module time:
	user time   =      57.64 seconds =       0.96 minutes
	system time =       2.08 seconds =       0.03 minutes
	total time  =          3 seconds =       0.05 minutes
Total time:
	user time   =      57.64 seconds =       0.96 minutes
	system time =       2.08 seconds =       0.03 minutes
	total time  =          3 seconds =       0.05 minutes

  //>>>>>>>>>>>>>>>>>>>>>>>>>>>>>>>>>>>//
  //    Loading displacement 2 of 5    //
  //<<<<<<<<<<<<<<<<<<<<<<<<<<<<<<<<<<<//

*** tstart() called on bp1-compute00140.data.bp.acrc.priv
*** at Tue Apr 27 18:11:20 2021

   => Loading Basis Set <=

    Name: CC-PV(D+D)Z
    Role: ORBITAL
    Keyword: BASIS
    atoms 1   entry O          line   207 file /work/zw18965/.conda/envs/p4env/share/psi4/basis/cc-pv_dpd_z.gbs 
    atoms 2-3 entry H          line    31 file /work/zw18965/.conda/envs/p4env/share/psi4/basis/cc-pv_dpd_z.gbs 


         ---------------------------------------------------------
                                   SCF
               by Justin Turney, Rob Parrish, Andy Simmonett
                          and Daniel G. A. Smith
                              RKS Reference
                       24 Threads, 137329 MiB Core
         ---------------------------------------------------------

  ==> Geometry <==

    Molecular point group: c2v
    Full point group: C2v

    Geometry (in Angstrom), charge = 0, multiplicity = 1:

       Center              X                  Y                   Z               Mass       
    ------------   -----------------  -----------------  -----------------  -----------------
         O            0.000000000000     0.000000000000    -0.066133736565    15.994914619570
         H           -0.000000000000     0.755452663361     0.524795195598     1.007825032230
         H            0.000000000000    -0.755452663361     0.524795195598     1.007825032230

  Running in c2v symmetry.

  Rotational constants: A =     26.96847  B =     14.65436  C =      9.49492 [cm^-1]
  Rotational constants: A = 808494.29234  B = 439326.65046  C = 284650.68760 [MHz]
  Nuclear repulsion =    9.177976870071999

  Charge       = 0
  Multiplicity = 1
  Electrons    = 10
  Nalpha       = 5
  Nbeta        = 5

  ==> Algorithm <==

  SCF Algorithm Type is DF.
  DIIS enabled.
  MOM disabled.
  Fractional occupation disabled.
  Guess Type is SAD.
  Energy threshold   = 1.00e-08
  Density threshold  = 1.00e-08
  Integral threshold = 0.00e+00

  ==> Primary Basis <==

  Basis Set: CC-PV(D+D)Z
    Blend: CC-PV(D+D)Z
    Number of shells: 12
    Number of basis function: 24
    Number of Cartesian functions: 25
    Spherical Harmonics?: true
    Max angular momentum: 2

  ==> DFT Potential <==

   => Composite Functional: WB97M-V <= 

    wB97M-V Hyb-GGA Exchange-Correlation Functional

    N. Mardirossian and M. Head-Gordon, J. Chem. Phys. 144, 214110 (2016)

    Deriv               =              1
    GGA                 =           TRUE
    Meta                =           TRUE

    Exchange Hybrid     =           TRUE
    MP2 Hybrid          =          FALSE

   => Exchange-Correlation Functionals <=

    1.0000   wB97M-V exchange-correlation functional

   => Exact (HF) Exchange <=

    0.8500            HF,LR [omega = 0.3000]
    0.1500               HF 

   => VV10 Non-Local Parameters <=

    VV10 B              =     6.0000E+00
    VV10 C              =     1.0000E-02

   => Molecular Quadrature <=

    Radial Scheme          =       TREUTLER
    Pruning Scheme         =           FLAT
    Nuclear Scheme         =       TREUTLER

    BS radius alpha        =              1
    Pruning alpha          =              1
    Radial Points          =             75
    Spherical Points       =            302
    Total Points           =          66409
    Total Blocks           =            569
    Max Points             =            256
    Max Functions          =             24

   => Loading Basis Set <=

    Name: (CC-PV(D+D)Z AUX)
    Role: JKFIT
    Keyword: DF_BASIS_SCF
    atoms 1   entry O          line   221 file /work/zw18965/.conda/envs/p4env/share/psi4/basis/cc-pvdz-jkfit.gbs 
    atoms 2-3 entry H          line    51 file /work/zw18965/.conda/envs/p4env/share/psi4/basis/cc-pvdz-jkfit.gbs 

  ==> Pre-Iterations <==

   -------------------------------------------------------
    Irrep   Nso     Nmo     Nalpha   Nbeta   Ndocc  Nsocc
   -------------------------------------------------------
     A1        11      11       0       0       0       0
     A2         2       2       0       0       0       0
     B1         4       4       0       0       0       0
     B2         7       7       0       0       0       0
   -------------------------------------------------------
    Total      24      24       5       5       5       0
   -------------------------------------------------------

  ==> Integral Setup <==

  ==> DiskDFJK: Density-Fitted J/K Matrices <==

    J tasked:                  Yes
    K tasked:                  Yes
    wK tasked:                 Yes
    Omega:               3.000E-01
    OpenMP threads:             24
    Integrals threads:          24
    Memory [MiB]:           102882
    Algorithm:                Core
    Integral Cache:           NONE
    Schwarz Cutoff:          1E-12
    Fitting Condition:       1E-10

   => Auxiliary Basis Set <=

  Basis Set: (CC-PV(D+D)Z AUX)
    Blend: CC-PVDZ-JKFIT
    Number of shells: 42
    Number of basis function: 116
    Number of Cartesian functions: 131
    Spherical Harmonics?: true
    Max angular momentum: 3

  Cached 100.0% of DFT collocation blocks in 0.111 [GiB].

  Minimum eigenvalue in the overlap matrix is 3.4233128769E-02.
  Using Symmetric Orthogonalization.

  SCF Guess: Superposition of Atomic Densities via on-the-fly atomic UHF.

  ==> Iterations <==

                           Total Energy        Delta E     RMS |[F,P]|

   @DF-RKS iter SAD:   -75.97638020151709   -7.59764e+01   0.00000e+00 
   @DF-RKS iter   1:   -76.27931346124849   -3.02933e-01   3.87607e-02 DIIS
   @DF-RKS iter   2:   -76.29908463216917   -1.97712e-02   3.72666e-02 DIIS
   @DF-RKS iter   3:   -76.38924326401387   -9.01586e-02   1.10528e-03 DIIS
   @DF-RKS iter   4:   -76.38938898986183   -1.45726e-04   3.20787e-04 DIIS
   @DF-RKS iter   5:   -76.38940096018501   -1.19703e-05   4.38514e-05 DIIS
   @DF-RKS iter   6:   -76.38940136535626   -4.05171e-07   7.82242e-06 DIIS
   @DF-RKS iter   7:   -76.38940139133625   -2.59800e-08   1.49430e-06 DIIS
   @DF-RKS iter   8:   -76.38940139215835   -8.22098e-10   1.24935e-07 DIIS
   @DF-RKS iter   9:   -76.38940139216174   -3.39639e-12   1.25437e-08 DIIS
   @DF-RKS iter  10:   -76.38940139216182   -7.10543e-14   6.12727e-10 DIIS
  Energy and wave function converged.


  ==> Post-Iterations <==

    Orbital Energies [Eh]
    ---------------------

    Doubly Occupied:                                                      

       1A1   -19.325413     2A1    -1.118444     1B2    -0.615423  
       3A1    -0.472491     1B1    -0.395369  

    Virtual:                                                              

       4A1     0.132417     2B2     0.204394     3B2     0.655698  
       5A1     0.711697     6A1     1.016929     2B1     1.041325  
       4B2     1.101709     7A1     1.299737     1A2     1.337009  
       3B1     1.525182     8A1     1.691929     5B2     1.772327  
       6B2     2.221101     9A1     2.259830     4B1     3.034942  
       2A2     3.075277    10A1     3.243240    11A1     3.566858  
       7B2     3.841943  

    Final Occupation by Irrep:
             A1    A2    B1    B2 
    DOCC [     3,    0,    1,    1 ]

  @DF-RKS Final Energy:   -76.38940139216182

   => Energetics <=

    Nuclear Repulsion Energy =              9.1779768700719995
    One-Electron Energy =                -123.1256977447588383
    Two-Electron Energy =                  44.1926877358654906
    DFT Exchange-Correlation Energy =      -6.6770357314278348
    Empirical Dispersion Energy =           0.0000000000000000
    VV10 Nonlocal Energy =                  0.0426674780873739
    Total Energy =                        -76.3894013921618154

Computation Completed


Properties will be evaluated at   0.000000,   0.000000,   0.000000 [a0]

Properties computed using the SCF density matrix

  Nuclear Dipole Moment: [e a0]
     X:     0.0000      Y:     0.0000      Z:     0.9836

  Electronic Dipole Moment: [e a0]
     X:     0.0000      Y:     0.0000      Z:    -0.2273

  Dipole Moment: [e a0]
     X:     0.0000      Y:     0.0000      Z:     0.7563     Total:     0.7563

  Dipole Moment: [D]
     X:     0.0000      Y:     0.0000      Z:     1.9224     Total:     1.9224


*** tstop() called on bp1-compute00140.data.bp.acrc.priv at Tue Apr 27 18:11:22 2021
Module time:
	user time   =      57.50 seconds =       0.96 minutes
	system time =       1.75 seconds =       0.03 minutes
	total time  =          2 seconds =       0.03 minutes
Total time:
	user time   =     115.30 seconds =       1.92 minutes
	system time =       3.84 seconds =       0.06 minutes
	total time  =          5 seconds =       0.08 minutes

  //>>>>>>>>>>>>>>>>>>>>>>>>>>>>>>>>>>>//
  //    Loading displacement 3 of 5    //
  //<<<<<<<<<<<<<<<<<<<<<<<<<<<<<<<<<<<//

*** tstart() called on bp1-compute00140.data.bp.acrc.priv
*** at Tue Apr 27 18:11:22 2021

   => Loading Basis Set <=

    Name: CC-PV(D+D)Z
    Role: ORBITAL
    Keyword: BASIS
    atoms 1   entry O          line   207 file /work/zw18965/.conda/envs/p4env/share/psi4/basis/cc-pv_dpd_z.gbs 
    atoms 2-3 entry H          line    31 file /work/zw18965/.conda/envs/p4env/share/psi4/basis/cc-pv_dpd_z.gbs 


         ---------------------------------------------------------
                                   SCF
               by Justin Turney, Rob Parrish, Andy Simmonett
                          and Daniel G. A. Smith
                              RKS Reference
                       24 Threads, 137329 MiB Core
         ---------------------------------------------------------

  ==> Geometry <==

    Molecular point group: c2v
    Full point group: C2v

    Geometry (in Angstrom), charge = 0, multiplicity = 1:

       Center              X                  Y                   Z               Mass       
    ------------   -----------------  -----------------  -----------------  -----------------
         O            0.000000000000     0.000000000000    -0.065691093083    15.994914619570
         H           -0.000000000000     0.755452663361     0.521282658961     1.007825032230
         H            0.000000000000    -0.755452663361     0.521282658961     1.007825032230

  Running in c2v symmetry.

  Rotational constants: A =     27.33313  B =     14.65436  C =      9.53974 [cm^-1]
  Rotational constants: A = 819426.68630  B = 439326.65046  C = 285994.06324 [MHz]
  Nuclear repulsion =    9.200415960578663

  Charge       = 0
  Multiplicity = 1
  Electrons    = 10
  Nalpha       = 5
  Nbeta        = 5

  ==> Algorithm <==

  SCF Algorithm Type is DF.
  DIIS enabled.
  MOM disabled.
  Fractional occupation disabled.
  Guess Type is SAD.
  Energy threshold   = 1.00e-08
  Density threshold  = 1.00e-08
  Integral threshold = 0.00e+00

  ==> Primary Basis <==

  Basis Set: CC-PV(D+D)Z
    Blend: CC-PV(D+D)Z
    Number of shells: 12
    Number of basis function: 24
    Number of Cartesian functions: 25
    Spherical Harmonics?: true
    Max angular momentum: 2

  ==> DFT Potential <==

   => Composite Functional: WB97M-V <= 

    wB97M-V Hyb-GGA Exchange-Correlation Functional

    N. Mardirossian and M. Head-Gordon, J. Chem. Phys. 144, 214110 (2016)

    Deriv               =              1
    GGA                 =           TRUE
    Meta                =           TRUE

    Exchange Hybrid     =           TRUE
    MP2 Hybrid          =          FALSE

   => Exchange-Correlation Functionals <=

    1.0000   wB97M-V exchange-correlation functional

   => Exact (HF) Exchange <=

    0.8500            HF,LR [omega = 0.3000]
    0.1500               HF 

   => VV10 Non-Local Parameters <=

    VV10 B              =     6.0000E+00
    VV10 C              =     1.0000E-02

   => Molecular Quadrature <=

    Radial Scheme          =       TREUTLER
    Pruning Scheme         =           FLAT
    Nuclear Scheme         =       TREUTLER

    BS radius alpha        =              1
    Pruning alpha          =              1
    Radial Points          =             75
    Spherical Points       =            302
    Total Points           =          66409
    Total Blocks           =            569
    Max Points             =            256
    Max Functions          =             24

   => Loading Basis Set <=

    Name: (CC-PV(D+D)Z AUX)
    Role: JKFIT
    Keyword: DF_BASIS_SCF
    atoms 1   entry O          line   221 file /work/zw18965/.conda/envs/p4env/share/psi4/basis/cc-pvdz-jkfit.gbs 
    atoms 2-3 entry H          line    51 file /work/zw18965/.conda/envs/p4env/share/psi4/basis/cc-pvdz-jkfit.gbs 

  ==> Pre-Iterations <==

   -------------------------------------------------------
    Irrep   Nso     Nmo     Nalpha   Nbeta   Ndocc  Nsocc
   -------------------------------------------------------
     A1        11      11       0       0       0       0
     A2         2       2       0       0       0       0
     B1         4       4       0       0       0       0
     B2         7       7       0       0       0       0
   -------------------------------------------------------
    Total      24      24       5       5       5       0
   -------------------------------------------------------

  ==> Integral Setup <==

  ==> DiskDFJK: Density-Fitted J/K Matrices <==

    J tasked:                  Yes
    K tasked:                  Yes
    wK tasked:                 Yes
    Omega:               3.000E-01
    OpenMP threads:             24
    Integrals threads:          24
    Memory [MiB]:           102882
    Algorithm:                Core
    Integral Cache:           NONE
    Schwarz Cutoff:          1E-12
    Fitting Condition:       1E-10

   => Auxiliary Basis Set <=

  Basis Set: (CC-PV(D+D)Z AUX)
    Blend: CC-PVDZ-JKFIT
    Number of shells: 42
    Number of basis function: 116
    Number of Cartesian functions: 131
    Spherical Harmonics?: true
    Max angular momentum: 3

  Cached 100.0% of DFT collocation blocks in 0.111 [GiB].

  Minimum eigenvalue in the overlap matrix is 3.4113091263E-02.
  Using Symmetric Orthogonalization.

  SCF Guess: Superposition of Atomic Densities via on-the-fly atomic UHF.

  ==> Iterations <==

                           Total Energy        Delta E     RMS |[F,P]|

   @DF-RKS iter SAD:   -75.97852567172910   -7.59785e+01   0.00000e+00 
   @DF-RKS iter   1:   -76.27930264485846   -3.00777e-01   3.87877e-02 DIIS
   @DF-RKS iter   2:   -76.29947344112071   -2.01708e-02   3.71878e-02 DIIS
   @DF-RKS iter   3:   -76.38914767444446   -8.96742e-02   1.09910e-03 DIIS
   @DF-RKS iter   4:   -76.38929260131681   -1.44927e-04   3.17965e-04 DIIS
   @DF-RKS iter   5:   -76.38930440925225   -1.18079e-05   4.37186e-05 DIIS
   @DF-RKS iter   6:   -76.38930481749212   -4.08240e-07   7.87496e-06 DIIS
   @DF-RKS iter   7:   -76.38930484386165   -2.63695e-08   1.48216e-06 DIIS
   @DF-RKS iter   8:   -76.38930484466889   -8.07233e-10   1.23204e-07 DIIS
   @DF-RKS iter   9:   -76.38930484467215   -3.26850e-12   1.23161e-08 DIIS
   @DF-RKS iter  10:   -76.38930484467218   -2.84217e-14   6.12906e-10 DIIS
  Energy and wave function converged.


  ==> Post-Iterations <==

    Orbital Energies [Eh]
    ---------------------

    Doubly Occupied:                                                      

       1A1   -19.324839     2A1    -1.119202     1B2    -0.617041  
       3A1    -0.471963     1B1    -0.395441  

    Virtual:                                                              

       4A1     0.132940     2B2     0.204784     3B2     0.658452  
       5A1     0.712450     6A1     1.016492     2B1     1.041486  
       4B2     1.101404     7A1     1.302596     1A2     1.336472  
       3B1     1.527580     8A1     1.692326     5B2     1.772833  
       6B2     2.227318     9A1     2.265013     4B1     3.035230  
       2A2     3.078967    10A1     3.245116    11A1     3.571951  
       7B2     3.842558  

    Final Occupation by Irrep:
             A1    A2    B1    B2 
    DOCC [     3,    0,    1,    1 ]

  @DF-RKS Final Energy:   -76.38930484467218

   => Energetics <=

    Nuclear Repulsion Energy =              9.2004159605786633
    One-Electron Energy =                -123.1666020466454938
    Two-Electron Energy =                  44.2131049632936310
    DFT Exchange-Correlation Energy =      -6.6788934276848320
    Empirical Dispersion Energy =           0.0000000000000000
    VV10 Nonlocal Energy =                  0.0426697057858536
    Total Energy =                        -76.3893048446721679

Computation Completed


Properties will be evaluated at   0.000000,   0.000000,   0.000000 [a0]

Properties computed using the SCF density matrix

  Nuclear Dipole Moment: [e a0]
     X:     0.0000      Y:     0.0000      Z:     0.9771

  Electronic Dipole Moment: [e a0]
     X:     0.0000      Y:     0.0000      Z:    -0.2232

  Dipole Moment: [e a0]
     X:     0.0000      Y:     0.0000      Z:     0.7539     Total:     0.7539

  Dipole Moment: [D]
     X:     0.0000      Y:     0.0000      Z:     1.9162     Total:     1.9162


*** tstop() called on bp1-compute00140.data.bp.acrc.priv at Tue Apr 27 18:11:25 2021
Module time:
	user time   =      55.98 seconds =       0.93 minutes
	system time =       1.61 seconds =       0.03 minutes
	total time  =          3 seconds =       0.05 minutes
Total time:
	user time   =     171.42 seconds =       2.86 minutes
	system time =       5.45 seconds =       0.09 minutes
	total time  =          8 seconds =       0.13 minutes

  //>>>>>>>>>>>>>>>>>>>>>>>>>>>>>>>>>>>//
  //    Loading displacement 4 of 5    //
  //<<<<<<<<<<<<<<<<<<<<<<<<<<<<<<<<<<<//

*** tstart() called on bp1-compute00140.data.bp.acrc.priv
*** at Tue Apr 27 18:11:25 2021

   => Loading Basis Set <=

    Name: CC-PV(D+D)Z
    Role: ORBITAL
    Keyword: BASIS
    atoms 1   entry O          line   207 file /work/zw18965/.conda/envs/p4env/share/psi4/basis/cc-pv_dpd_z.gbs 
    atoms 2-3 entry H          line    31 file /work/zw18965/.conda/envs/p4env/share/psi4/basis/cc-pv_dpd_z.gbs 


         ---------------------------------------------------------
                                   SCF
               by Justin Turney, Rob Parrish, Andy Simmonett
                          and Daniel G. A. Smith
                              RKS Reference
                       24 Threads, 137329 MiB Core
         ---------------------------------------------------------

  ==> Geometry <==

    Molecular point group: c2v
    Full point group: C2v

    Geometry (in Angstrom), charge = 0, multiplicity = 1:

       Center              X                  Y                   Z               Mass       
    ------------   -----------------  -----------------  -----------------  -----------------
         O            0.000000000000     0.000000000000    -0.065912414824    15.994914619570
         H           -0.000000000000     0.753589016730     0.523038927279     1.007825032230
         H            0.000000000000    -0.753589016730     0.523038927279     1.007825032230

  Running in c2v symmetry.

  Rotational constants: A =     27.14988  B =     14.72693  C =      9.54787 [cm^-1]
  Rotational constants: A = 813932.95770  B = 441502.27142  C = 286237.98446 [MHz]
  Nuclear repulsion =    9.203636767920623

  Charge       = 0
  Multiplicity = 1
  Electrons    = 10
  Nalpha       = 5
  Nbeta        = 5

  ==> Algorithm <==

  SCF Algorithm Type is DF.
  DIIS enabled.
  MOM disabled.
  Fractional occupation disabled.
  Guess Type is SAD.
  Energy threshold   = 1.00e-08
  Density threshold  = 1.00e-08
  Integral threshold = 0.00e+00

  ==> Primary Basis <==

  Basis Set: CC-PV(D+D)Z
    Blend: CC-PV(D+D)Z
    Number of shells: 12
    Number of basis function: 24
    Number of Cartesian functions: 25
    Spherical Harmonics?: true
    Max angular momentum: 2

  ==> DFT Potential <==

   => Composite Functional: WB97M-V <= 

    wB97M-V Hyb-GGA Exchange-Correlation Functional

    N. Mardirossian and M. Head-Gordon, J. Chem. Phys. 144, 214110 (2016)

    Deriv               =              1
    GGA                 =           TRUE
    Meta                =           TRUE

    Exchange Hybrid     =           TRUE
    MP2 Hybrid          =          FALSE

   => Exchange-Correlation Functionals <=

    1.0000   wB97M-V exchange-correlation functional

   => Exact (HF) Exchange <=

    0.8500            HF,LR [omega = 0.3000]
    0.1500               HF 

   => VV10 Non-Local Parameters <=

    VV10 B              =     6.0000E+00
    VV10 C              =     1.0000E-02

   => Molecular Quadrature <=

    Radial Scheme          =       TREUTLER
    Pruning Scheme         =           FLAT
    Nuclear Scheme         =       TREUTLER

    BS radius alpha        =              1
    Pruning alpha          =              1
    Radial Points          =             75
    Spherical Points       =            302
    Total Points           =          66409
    Total Blocks           =            570
    Max Points             =            256
    Max Functions          =             24

   => Loading Basis Set <=

    Name: (CC-PV(D+D)Z AUX)
    Role: JKFIT
    Keyword: DF_BASIS_SCF
    atoms 1   entry O          line   221 file /work/zw18965/.conda/envs/p4env/share/psi4/basis/cc-pvdz-jkfit.gbs 
    atoms 2-3 entry H          line    51 file /work/zw18965/.conda/envs/p4env/share/psi4/basis/cc-pvdz-jkfit.gbs 

  ==> Pre-Iterations <==

   -------------------------------------------------------
    Irrep   Nso     Nmo     Nalpha   Nbeta   Ndocc  Nsocc
   -------------------------------------------------------
     A1        11      11       0       0       0       0
     A2         2       2       0       0       0       0
     B1         4       4       0       0       0       0
     B2         7       7       0       0       0       0
   -------------------------------------------------------
    Total      24      24       5       5       5       0
   -------------------------------------------------------

  ==> Integral Setup <==

  ==> DiskDFJK: Density-Fitted J/K Matrices <==

    J tasked:                  Yes
    K tasked:                  Yes
    wK tasked:                 Yes
    Omega:               3.000E-01
    OpenMP threads:             24
    Integrals threads:          24
    Memory [MiB]:           102882
    Algorithm:                Core
    Integral Cache:           NONE
    Schwarz Cutoff:          1E-12
    Fitting Condition:       1E-10

   => Auxiliary Basis Set <=

  Basis Set: (CC-PV(D+D)Z AUX)
    Blend: CC-PVDZ-JKFIT
    Number of shells: 42
    Number of basis function: 116
    Number of Cartesian functions: 131
    Spherical Harmonics?: true
    Max angular momentum: 3

  Cached 100.0% of DFT collocation blocks in 0.111 [GiB].

  Minimum eigenvalue in the overlap matrix is 3.4049927892E-02.
  Using Symmetric Orthogonalization.

  SCF Guess: Superposition of Atomic Densities via on-the-fly atomic UHF.

  ==> Iterations <==

                           Total Energy        Delta E     RMS |[F,P]|

   @DF-RKS iter SAD:   -75.97909623207666   -7.59791e+01   0.00000e+00 
   @DF-RKS iter   1:   -76.27927708726018   -3.00181e-01   3.87907e-02 DIIS
   @DF-RKS iter   2:   -76.29944651640477   -2.01694e-02   3.71959e-02 DIIS
   @DF-RKS iter   3:   -76.38915858827531   -8.97121e-02   1.09974e-03 DIIS
   @DF-RKS iter   4:   -76.38930320527376   -1.44617e-04   3.17660e-04 DIIS
   @DF-RKS iter   5:   -76.38931494331628   -1.17380e-05   4.34931e-05 DIIS
   @DF-RKS iter   6:   -76.38931534359088   -4.00275e-07   7.78862e-06 DIIS
   @DF-RKS iter   7:   -76.38931536933077   -2.57399e-08   1.47670e-06 DIIS
   @DF-RKS iter   8:   -76.38931537013248   -8.01705e-10   1.23403e-07 DIIS
   @DF-RKS iter   9:   -76.38931537013585   -3.36797e-12   1.23497e-08 DIIS
   @DF-RKS iter  10:   -76.38931537013589   -4.26326e-14   6.08298e-10 DIIS
  Energy and wave function converged.


  ==> Post-Iterations <==

    Orbital Energies [Eh]
    ---------------------

    Doubly Occupied:                                                      

       1A1   -19.324963     2A1    -1.119573     1B2    -0.616572  
       3A1    -0.472636     1B1    -0.395558  

    Virtual:                                                              

       4A1     0.132924     2B2     0.204862     3B2     0.657689  
       5A1     0.713927     6A1     1.016845     2B1     1.041419  
       4B2     1.101650     7A1     1.299774     1A2     1.337551  
       3B1     1.525890     8A1     1.691550     5B2     1.774929  
       6B2     2.227159     9A1     2.266123     4B1     3.037068  
       2A2     3.078040    10A1     3.246622    11A1     3.569859  
       7B2     3.844654  

    Final Occupation by Irrep:
             A1    A2    B1    B2 
    DOCC [     3,    0,    1,    1 ]

  @DF-RKS Final Energy:   -76.38931537013589

   => Energetics <=

    Nuclear Repulsion Energy =              9.2036367679206226
    One-Electron Energy =                -123.1712953390672283
    Two-Electron Energy =                  44.2147828840561417
    DFT Exchange-Correlation Energy =      -6.6791096394021752
    Empirical Dispersion Energy =           0.0000000000000000
    VV10 Nonlocal Energy =                  0.0426699563567487
    Total Energy =                        -76.3893153701358898

Computation Completed


Properties will be evaluated at   0.000000,   0.000000,   0.000000 [a0]

Properties computed using the SCF density matrix

  Nuclear Dipole Moment: [e a0]
     X:     0.0000      Y:     0.0000      Z:     0.9803

  Electronic Dipole Moment: [e a0]
     X:     0.0000      Y:     0.0000      Z:    -0.2248

  Dipole Moment: [e a0]
     X:     0.0000      Y:     0.0000      Z:     0.7555     Total:     0.7555

  Dipole Moment: [D]
     X:     0.0000      Y:     0.0000      Z:     1.9204     Total:     1.9204


*** tstop() called on bp1-compute00140.data.bp.acrc.priv at Tue Apr 27 18:11:27 2021
Module time:
	user time   =      55.86 seconds =       0.93 minutes
	system time =       1.45 seconds =       0.02 minutes
	total time  =          2 seconds =       0.03 minutes
Total time:
	user time   =     227.44 seconds =       3.79 minutes
	system time =       6.91 seconds =       0.12 minutes
	total time  =         10 seconds =       0.17 minutes

  //>>>>>>>>>>>>>>>>>>>>>>>>>>>>>>>>>>>//
  //    Loading displacement 5 of 5    //
  //<<<<<<<<<<<<<<<<<<<<<<<<<<<<<<<<<<<//

*** tstart() called on bp1-compute00140.data.bp.acrc.priv
*** at Tue Apr 27 18:11:27 2021

   => Loading Basis Set <=

    Name: CC-PV(D+D)Z
    Role: ORBITAL
    Keyword: BASIS
    atoms 1   entry O          line   207 file /work/zw18965/.conda/envs/p4env/share/psi4/basis/cc-pv_dpd_z.gbs 
    atoms 2-3 entry H          line    31 file /work/zw18965/.conda/envs/p4env/share/psi4/basis/cc-pv_dpd_z.gbs 


         ---------------------------------------------------------
                                   SCF
               by Justin Turney, Rob Parrish, Andy Simmonett
                          and Daniel G. A. Smith
                              RKS Reference
                       24 Threads, 137329 MiB Core
         ---------------------------------------------------------

  ==> Geometry <==

    Molecular point group: c2v
    Full point group: C2v

    Geometry (in Angstrom), charge = 0, multiplicity = 1:

       Center              X                  Y                   Z               Mass       
    ------------   -----------------  -----------------  -----------------  -----------------
         O           -0.000000000000     0.000000000000    -0.065912414824    15.994914619570
         H           -0.000000000000     0.757316309993     0.523038927279     1.007825032230
         H            0.000000000000    -0.757316309993     0.523038927279     1.007825032230

  Running in c2v symmetry.

  Rotational constants: A =     27.14988  B =     14.58232  C =      9.48688 [cm^-1]
  Rotational constants: A = 813932.95770  B = 437167.07141  C = 284409.46300 [MHz]
  Nuclear repulsion =    9.174784246374898

  Charge       = 0
  Multiplicity = 1
  Electrons    = 10
  Nalpha       = 5
  Nbeta        = 5

  ==> Algorithm <==

  SCF Algorithm Type is DF.
  DIIS enabled.
  MOM disabled.
  Fractional occupation disabled.
  Guess Type is SAD.
  Energy threshold   = 1.00e-08
  Density threshold  = 1.00e-08
  Integral threshold = 0.00e+00

  ==> Primary Basis <==

  Basis Set: CC-PV(D+D)Z
    Blend: CC-PV(D+D)Z
    Number of shells: 12
    Number of basis function: 24
    Number of Cartesian functions: 25
    Spherical Harmonics?: true
    Max angular momentum: 2

  ==> DFT Potential <==

   => Composite Functional: WB97M-V <= 

    wB97M-V Hyb-GGA Exchange-Correlation Functional

    N. Mardirossian and M. Head-Gordon, J. Chem. Phys. 144, 214110 (2016)

    Deriv               =              1
    GGA                 =           TRUE
    Meta                =           TRUE

    Exchange Hybrid     =           TRUE
    MP2 Hybrid          =          FALSE

   => Exchange-Correlation Functionals <=

    1.0000   wB97M-V exchange-correlation functional

   => Exact (HF) Exchange <=

    0.8500            HF,LR [omega = 0.3000]
    0.1500               HF 

   => VV10 Non-Local Parameters <=

    VV10 B              =     6.0000E+00
    VV10 C              =     1.0000E-02

   => Molecular Quadrature <=

    Radial Scheme          =       TREUTLER
    Pruning Scheme         =           FLAT
    Nuclear Scheme         =       TREUTLER

    BS radius alpha        =              1
    Pruning alpha          =              1
    Radial Points          =             75
    Spherical Points       =            302
    Total Points           =          66409
    Total Blocks           =            570
    Max Points             =            256
    Max Functions          =             24

   => Loading Basis Set <=

    Name: (CC-PV(D+D)Z AUX)
    Role: JKFIT
    Keyword: DF_BASIS_SCF
    atoms 1   entry O          line   221 file /work/zw18965/.conda/envs/p4env/share/psi4/basis/cc-pvdz-jkfit.gbs 
    atoms 2-3 entry H          line    51 file /work/zw18965/.conda/envs/p4env/share/psi4/basis/cc-pvdz-jkfit.gbs 

  ==> Pre-Iterations <==

   -------------------------------------------------------
    Irrep   Nso     Nmo     Nalpha   Nbeta   Ndocc  Nsocc
   -------------------------------------------------------
     A1        11      11       0       0       0       0
     A2         2       2       0       0       0       0
     B1         4       4       0       0       0       0
     B2         7       7       0       0       0       0
   -------------------------------------------------------
    Total      24      24       5       5       5       0
   -------------------------------------------------------

  ==> Integral Setup <==

  ==> DiskDFJK: Density-Fitted J/K Matrices <==

    J tasked:                  Yes
    K tasked:                  Yes
    wK tasked:                 Yes
    Omega:               3.000E-01
    OpenMP threads:             24
    Integrals threads:          24
    Memory [MiB]:           102882
    Algorithm:                Core
    Integral Cache:           NONE
    Schwarz Cutoff:          1E-12
    Fitting Condition:       1E-10

   => Auxiliary Basis Set <=

  Basis Set: (CC-PV(D+D)Z AUX)
    Blend: CC-PVDZ-JKFIT
    Number of shells: 42
    Number of basis function: 116
    Number of Cartesian functions: 131
    Spherical Harmonics?: true
    Max angular momentum: 3

  Cached 100.0% of DFT collocation blocks in 0.111 [GiB].

  Minimum eigenvalue in the overlap matrix is 3.4296943555E-02.
  Using Symmetric Orthogonalization.

  SCF Guess: Superposition of Atomic Densities via on-the-fly atomic UHF.

  ==> Iterations <==

                           Total Energy        Delta E     RMS |[F,P]|

   @DF-RKS iter SAD:   -75.97581058779447   -7.59758e+01   0.00000e+00 
   @DF-RKS iter   1:   -76.27933494123576   -3.03524e-01   3.87578e-02 DIIS
   @DF-RKS iter   2:   -76.29910838180665   -1.97734e-02   3.72585e-02 DIIS
   @DF-RKS iter   3:   -76.38922862011663   -9.01202e-02   1.10464e-03 DIIS
   @DF-RKS iter   4:   -76.38937466127288   -1.46041e-04   3.21093e-04 DIIS
   @DF-RKS iter   5:   -76.38938670258308   -1.20413e-05   4.40793e-05 DIIS
   @DF-RKS iter   6:   -76.38938711583772   -4.13255e-07   7.90972e-06 DIIS
   @DF-RKS iter   7:   -76.38938714245893   -2.66212e-08   1.49995e-06 DIIS
   @DF-RKS iter   8:   -76.38938714328684   -8.27910e-10   1.24736e-07 DIIS
   @DF-RKS iter   9:   -76.38938714329018   -3.33955e-12   1.25101e-08 DIIS
   @DF-RKS iter  10:   -76.38938714329022   -4.26326e-14   6.17380e-10 DIIS
  Energy and wave function converged.


  ==> Post-Iterations <==

    Orbital Energies [Eh]
    ---------------------

    Doubly Occupied:                                                      

       1A1   -19.325288     2A1    -1.118076     1B2    -0.615889  
       3A1    -0.471820     1B1    -0.395253  

    Virtual:                                                              

       4A1     0.132431     2B2     0.204317     3B2     0.656455  
       5A1     0.710233     6A1     1.016579     2B1     1.041391  
       4B2     1.101462     7A1     1.302555     1A2     1.335937  
       3B1     1.526861     8A1     1.692700     5B2     1.770249  
       6B2     2.221247     9A1     2.258737     4B1     3.033123  
       2A2     3.076197    10A1     3.241763    11A1     3.568909  
       7B2     3.839869  

    Final Occupation by Irrep:
             A1    A2    B1    B2 
    DOCC [     3,    0,    1,    1 ]

  @DF-RKS Final Energy:   -76.38938714329022

   => Energetics <=

    Nuclear Repulsion Energy =              9.1747842463748981
    One-Electron Energy =                -123.1210482604125502
    Two-Electron Energy =                  44.1910315798315168
    DFT Exchange-Correlation Energy =      -6.6768219402112763
    Empirical Dispersion Energy =           0.0000000000000000
    VV10 Nonlocal Energy =                  0.0426672311271879
    Total Energy =                        -76.3893871432902358

Computation Completed


Properties will be evaluated at   0.000000,   0.000000,   0.000000 [a0]

Properties computed using the SCF density matrix

  Nuclear Dipole Moment: [e a0]
     X:     0.0000      Y:     0.0000      Z:     0.9803

  Electronic Dipole Moment: [e a0]
     X:     0.0000      Y:     0.0000      Z:    -0.2257

  Dipole Moment: [e a0]
     X:     0.0000      Y:     0.0000      Z:     0.7547     Total:     0.7547

  Dipole Moment: [D]
     X:     0.0000      Y:     0.0000      Z:     1.9182     Total:     1.9182


*** tstop() called on bp1-compute00140.data.bp.acrc.priv at Tue Apr 27 18:11:29 2021
Module time:
	user time   =      55.36 seconds =       0.92 minutes
	system time =       1.42 seconds =       0.02 minutes
	total time  =          2 seconds =       0.03 minutes
Total time:
	user time   =     282.94 seconds =       4.72 minutes
	system time =       8.33 seconds =       0.14 minutes
	total time  =         12 seconds =       0.20 minutes

         ----------------------------------------------------------
                                   FINDIF
                     R. A. King and Jonathon Misiewicz
         ---------------------------------------------------------

  Computing gradient from energies.
    Using 3-point formula.
    Energy without displacement:  -76.3893564303
    Check energies below for precision!
    Forces are for mass-weighted, symmetry-adapted cartesians (in au).

     Coord      Energy(-1)        Energy(+1)            Force
        0    -76.3894013922    -76.3893048447      0.0096547490
        1    -76.3893153701    -76.3893871433     -0.0071773154


-------------------------------------------------------------
  ## New Matrix (Symmetry 0) ##
  Irrep: 1 Size: 3 x 3

                 1                   2                   3

    1     0.00000000000000     0.00000000000000     0.01291742214762
    2     0.00000000000000    -0.00509494624198    -0.00645871107381
    3     0.00000000000000     0.00509494624198    -0.00645871107381




			-----------------------------------------
			 OPTKING 2.0: for geometry optimizations 
			  - R.A. King,  Bethel University        
			-----------------------------------------
	At level 1: Red. Int., RFO, no backsteps, dynamic trust

	Internal coordinates to be generated automatically.
	Detected frag 1 with atoms:  1 2 3
	---Fragment 1 Bond Connectivity---
	 1 : 2 3
	 2 : 1
	 3 : 1

	---Fragment 1 Geometry and Gradient---
	 O           0.0000000000        0.0000000000       -0.1245564123
	 H          -0.0000000000        1.4275986345        0.9884003255
	 H           0.0000000000       -1.4275986345        0.9884003255
	             0.0000000000        0.0000000000        0.0129174221
	             0.0000000000       -0.0050949462       -0.0064587111
	             0.0000000000        0.0050949462       -0.0064587111

	Previous optimization step data not found.  Starting new optimization.

	---Fragment 1 Intrafragment Coordinates---
	 - Coordinate -           - BOHR/RAD -       - ANG/DEG -
	 R(1,2)           =         1.810169	       0.957900
	 R(1,3)           =         1.810169	       0.957900
	 B(2,1,3)         =         1.817237	     104.120000

	Current energy   :       -76.3893564303

	Generating empirical Hessian (Schlegel '84) for each fragment.
	Taking RFO optimization step.
	Going to follow RFO solution 1.
	Using RFO vector 1.
	Norm of target step-size    0.02997
	Projected energy change by RFO approximation:        -0.0002311661

	Back-transformation to cartesian coordinates...
	Successfully converged to displaced geometry.

	--- Internal Coordinate Step in ANG or DEG, aJ/ANG or AJ/DEG ---
	 ---------------------------------------------------------------------------
	   Coordinate                Previous        Force       Change         New 
	   ----------                --------       ------       ------       ------
	    1 R(1,2)          =      0.957900     0.065821     0.007555     0.965455
	    2 R(1,3)          =      0.957900     0.065821     0.007555     0.965455
	    3 B(2,1,3)        =    104.120000    -0.000270    -1.268815   102.851185
	 ---------------------------------------------------------------------------
	Successfully symmetrized geometry.

  ==> Convergence Check <==

  Measures of convergence in internal coordinates in au.
  Criteria marked as inactive (o), active & met (*), and active & unmet ( ).
  --------------------------------------------------------------------------------------------- ~
   Step     Total Energy     Delta E     MAX Force     RMS Force      MAX Disp      RMS Disp    ~
  --------------------------------------------------------------------------------------------- ~
    Convergence Criteria    1.00e-06 *    3.00e-04 *             o    1.20e-03 *             o  ~
  --------------------------------------------------------------------------------------------- ~
      1     -76.38935643   -7.64e+01      7.99e-03      6.84e-03 o    2.21e-02      1.73e-02 o  ~
  ---------------------------------------------------------------------------------------------

	Writing optimization data to binary file.
	Structure for next step:
	Cartesian Geometry (in Angstrom)
	    O    -0.0000000000   0.0000000000  -0.0746052910
	    H    -0.0000000000   0.7547918975   0.5273853634
	    H     0.0000000000  -0.7547918975   0.5273853634
			--------------------------
			 OPTKING Finished Execution 
			--------------------------

    Structure for next step:
    Molecular point group: c2v
    Full point group: C2v

    Geometry (in Angstrom), charge = 0, multiplicity = 1:

    O           -0.000000000000     0.000000000000    -0.067371708079
    H           -0.000000000000     0.754791900429     0.534618948744
    H            0.000000000000    -0.754791900429     0.534618948744

gradient() will perform gradient computation by finite difference of analytic energies.

         ----------------------------------------------------------
                                   FINDIF
                     R. A. King and Jonathon Misiewicz
         ---------------------------------------------------------

  Using finite-differences of energies to determine gradients.
    Generating geometries for use with 3-point formula.
    Displacement size will be 5.00e-03.
    Number of atoms is 3.
    Number of symmetric SALCs is 2.
    Translations projected? 1. Rotations projected? 1.
    Number of geometries (including reference) is 5.

  //>>>>>>>>>>>>>>>>>>>>>>>>>>>>>>>>>>>//
  //    Loading displacement 1 of 5    //
  //<<<<<<<<<<<<<<<<<<<<<<<<<<<<<<<<<<<//

*** tstart() called on bp1-compute00140.data.bp.acrc.priv
*** at Tue Apr 27 18:11:30 2021

   => Loading Basis Set <=

    Name: CC-PV(D+D)Z
    Role: ORBITAL
    Keyword: BASIS
    atoms 1   entry O          line   207 file /work/zw18965/.conda/envs/p4env/share/psi4/basis/cc-pv_dpd_z.gbs 
    atoms 2-3 entry H          line    31 file /work/zw18965/.conda/envs/p4env/share/psi4/basis/cc-pv_dpd_z.gbs 


         ---------------------------------------------------------
                                   SCF
               by Justin Turney, Rob Parrish, Andy Simmonett
                          and Daniel G. A. Smith
                              RKS Reference
                       24 Threads, 137329 MiB Core
         ---------------------------------------------------------

  ==> Geometry <==

    Molecular point group: c2v
    Full point group: C2v

    Geometry (in Angstrom), charge = 0, multiplicity = 1:

       Center              X                  Y                   Z               Mass       
    ------------   -----------------  -----------------  -----------------  -----------------
         O           -0.000000000000     0.000000000000    -0.067371708079    15.994914619570
         H           -0.000000000000     0.754791900429     0.534618948744     1.007825032230
         H            0.000000000000    -0.754791900429     0.534618948744     1.007825032230

  Running in c2v symmetry.

  Rotational constants: A =     25.98647  B =     14.68003  C =      9.38075 [cm^-1]
  Rotational constants: A = 779054.72175  B = 440096.18132  C = 281227.70300 [MHz]
  Nuclear repulsion =    9.120331817487436

  Charge       = 0
  Multiplicity = 1
  Electrons    = 10
  Nalpha       = 5
  Nbeta        = 5

  ==> Algorithm <==

  SCF Algorithm Type is DF.
  DIIS enabled.
  MOM disabled.
  Fractional occupation disabled.
  Guess Type is READ.
  Energy threshold   = 1.00e-08
  Density threshold  = 1.00e-08
  Integral threshold = 0.00e+00

  ==> Primary Basis <==

  Basis Set: CC-PV(D+D)Z
    Blend: CC-PV(D+D)Z
    Number of shells: 12
    Number of basis function: 24
    Number of Cartesian functions: 25
    Spherical Harmonics?: true
    Max angular momentum: 2

  ==> DFT Potential <==

   => Composite Functional: WB97M-V <= 

    wB97M-V Hyb-GGA Exchange-Correlation Functional

    N. Mardirossian and M. Head-Gordon, J. Chem. Phys. 144, 214110 (2016)

    Deriv               =              1
    GGA                 =           TRUE
    Meta                =           TRUE

    Exchange Hybrid     =           TRUE
    MP2 Hybrid          =          FALSE

   => Exchange-Correlation Functionals <=

    1.0000   wB97M-V exchange-correlation functional

   => Exact (HF) Exchange <=

    0.8500            HF,LR [omega = 0.3000]
    0.1500               HF 

   => VV10 Non-Local Parameters <=

    VV10 B              =     6.0000E+00
    VV10 C              =     1.0000E-02

   => Molecular Quadrature <=

    Radial Scheme          =       TREUTLER
    Pruning Scheme         =           FLAT
    Nuclear Scheme         =       TREUTLER

    BS radius alpha        =              1
    Pruning alpha          =              1
    Radial Points          =             75
    Spherical Points       =            302
    Total Points           =          66405
    Total Blocks           =            569
    Max Points             =            256
    Max Functions          =             24

   => Loading Basis Set <=

    Name: (CC-PV(D+D)Z AUX)
    Role: JKFIT
    Keyword: DF_BASIS_SCF
    atoms 1   entry O          line   221 file /work/zw18965/.conda/envs/p4env/share/psi4/basis/cc-pvdz-jkfit.gbs 
    atoms 2-3 entry H          line    51 file /work/zw18965/.conda/envs/p4env/share/psi4/basis/cc-pvdz-jkfit.gbs 

   => Loading Basis Set <=

    Name: CC-PV(D+D)Z
    Role: ORBITAL
    Keyword: BASIS
    atoms 1   entry O          line   207 file /work/zw18965/.conda/envs/p4env/share/psi4/basis/cc-pv_dpd_z.gbs 
    atoms 2-3 entry H          line    31 file /work/zw18965/.conda/envs/p4env/share/psi4/basis/cc-pv_dpd_z.gbs 

  Reading orbitals from file 180, no projection.

  ==> Pre-Iterations <==

   -------------------------------------------------------
    Irrep   Nso     Nmo     Nalpha   Nbeta   Ndocc  Nsocc
   -------------------------------------------------------
     A1        11      11       0       0       0       0
     A2         2       2       0       0       0       0
     B1         4       4       0       0       0       0
     B2         7       7       0       0       0       0
   -------------------------------------------------------
    Total      24      24       5       5       5       0
   -------------------------------------------------------

  ==> Integral Setup <==

  ==> DiskDFJK: Density-Fitted J/K Matrices <==

    J tasked:                  Yes
    K tasked:                  Yes
    wK tasked:                 Yes
    Omega:               3.000E-01
    OpenMP threads:             24
    Integrals threads:          24
    Memory [MiB]:           102882
    Algorithm:                Core
    Integral Cache:           NONE
    Schwarz Cutoff:          1E-12
    Fitting Condition:       1E-10

   => Auxiliary Basis Set <=

  Basis Set: (CC-PV(D+D)Z AUX)
    Blend: CC-PVDZ-JKFIT
    Number of shells: 42
    Number of basis function: 116
    Number of Cartesian functions: 131
    Spherical Harmonics?: true
    Max angular momentum: 3

  Cached 100.0% of DFT collocation blocks in 0.111 [GiB].

  Minimum eigenvalue in the overlap matrix is 3.4532295245E-02.
  Using Symmetric Orthogonalization.

  SCF Guess: Orbitals guess was supplied from a previous computation.

  ==> Iterations <==

                           Total Energy        Delta E     RMS |[F,P]|

   @DF-RKS iter   0:   -76.37951620771410   -7.63795e+01   2.02073e-03 
   @DF-RKS iter   1:   -76.38951802668146   -1.00018e-02   3.62785e-04 DIIS
   @DF-RKS iter   2:   -76.38952427293039   -6.24625e-06   3.26402e-04 DIIS
   @DF-RKS iter   3:   -76.38953099864881   -6.72572e-06   2.79594e-05 DIIS
   @DF-RKS iter   4:   -76.38953117932279   -1.80674e-07   1.05725e-05 DIIS
   @DF-RKS iter   5:   -76.38953120446291   -2.51401e-08   1.55286e-06 DIIS
   @DF-RKS iter   6:   -76.38953120553802   -1.07511e-09   1.90255e-07 DIIS
   @DF-RKS iter   7:   -76.38953120555040   -1.23777e-11   1.47803e-08 DIIS
   @DF-RKS iter   8:   -76.38953120555047   -7.10543e-14   1.46075e-09 DIIS
  Energy and wave function converged.


  ==> Post-Iterations <==

    Orbital Energies [Eh]
    ---------------------

    Doubly Occupied:                                                      

       1A1   -19.326962     2A1    -1.116581     1B2    -0.611041  
       3A1    -0.474096     1B1    -0.395226  

    Virtual:                                                              

       4A1     0.131026     2B2     0.203353     3B2     0.648379  
       5A1     0.710107     6A1     1.018242     2B1     1.040838  
       4B2     1.102628     7A1     1.291213     1A2     1.338800  
       3B1     1.518421     8A1     1.690742     5B2     1.771615  
       6B2     2.205071     9A1     2.246635     4B1     3.034574  
       2A2     3.065373    10A1     3.237827    11A1     3.553767  
       7B2     3.840664  

    Final Occupation by Irrep:
             A1    A2    B1    B2 
    DOCC [     3,    0,    1,    1 ]

  @DF-RKS Final Energy:   -76.38953120555047

   => Energetics <=

    Nuclear Repulsion Energy =              9.1203318174874362
    One-Electron Energy =                -123.0199470094696750
    Two-Electron Energy =                  44.1396602042521664
    DFT Exchange-Correlation Energy =      -6.6722379176584230
    Empirical Dispersion Energy =           0.0000000000000000
    VV10 Nonlocal Energy =                  0.0426616998380276
    Total Energy =                        -76.3895312055504689

Computation Completed


Properties will be evaluated at   0.000000,   0.000000,   0.000000 [a0]

Properties computed using the SCF density matrix

  Nuclear Dipole Moment: [e a0]
     X:     0.0000      Y:     0.0000      Z:     1.0021

  Electronic Dipole Moment: [e a0]
     X:     0.0000      Y:     0.0000      Z:    -0.2389

  Dipole Moment: [e a0]
     X:     0.0000      Y:     0.0000      Z:     0.7632     Total:     0.7632

  Dipole Moment: [D]
     X:     0.0000      Y:     0.0000      Z:     1.9398     Total:     1.9398


*** tstop() called on bp1-compute00140.data.bp.acrc.priv at Tue Apr 27 18:11:31 2021
Module time:
	user time   =      42.77 seconds =       0.71 minutes
	system time =       1.14 seconds =       0.02 minutes
	total time  =          1 seconds =       0.02 minutes
Total time:
	user time   =     326.05 seconds =       5.43 minutes
	system time =       9.49 seconds =       0.16 minutes
	total time  =         14 seconds =       0.23 minutes

  //>>>>>>>>>>>>>>>>>>>>>>>>>>>>>>>>>>>//
  //    Loading displacement 2 of 5    //
  //<<<<<<<<<<<<<<<<<<<<<<<<<<<<<<<<<<<//

*** tstart() called on bp1-compute00140.data.bp.acrc.priv
*** at Tue Apr 27 18:11:31 2021

   => Loading Basis Set <=

    Name: CC-PV(D+D)Z
    Role: ORBITAL
    Keyword: BASIS
    atoms 1   entry O          line   207 file /work/zw18965/.conda/envs/p4env/share/psi4/basis/cc-pv_dpd_z.gbs 
    atoms 2-3 entry H          line    31 file /work/zw18965/.conda/envs/p4env/share/psi4/basis/cc-pv_dpd_z.gbs 


         ---------------------------------------------------------
                                   SCF
               by Justin Turney, Rob Parrish, Andy Simmonett
                          and Daniel G. A. Smith
                              RKS Reference
                       24 Threads, 137329 MiB Core
         ---------------------------------------------------------

  ==> Geometry <==

    Molecular point group: c2v
    Full point group: C2v

    Geometry (in Angstrom), charge = 0, multiplicity = 1:

       Center              X                  Y                   Z               Mass       
    ------------   -----------------  -----------------  -----------------  -----------------
         O           -0.000000000000     0.000000000000    -0.067593029820    15.994914619570
         H           -0.000000000000     0.754791900429     0.536375217063     1.007825032230
         H            0.000000000000    -0.754791900429     0.536375217063     1.007825032230

  Running in c2v symmetry.

  Rotational constants: A =     25.81657  B =     14.68003  C =      9.35851 [cm^-1]
  Rotational constants: A = 773961.31301  B = 440096.18132  C = 280561.19248 [MHz]
  Nuclear repulsion =    9.109134055613179

  Charge       = 0
  Multiplicity = 1
  Electrons    = 10
  Nalpha       = 5
  Nbeta        = 5

  ==> Algorithm <==

  SCF Algorithm Type is DF.
  DIIS enabled.
  MOM disabled.
  Fractional occupation disabled.
  Guess Type is READ.
  Energy threshold   = 1.00e-08
  Density threshold  = 1.00e-08
  Integral threshold = 0.00e+00

  ==> Primary Basis <==

  Basis Set: CC-PV(D+D)Z
    Blend: CC-PV(D+D)Z
    Number of shells: 12
    Number of basis function: 24
    Number of Cartesian functions: 25
    Spherical Harmonics?: true
    Max angular momentum: 2

  ==> DFT Potential <==

   => Composite Functional: WB97M-V <= 

    wB97M-V Hyb-GGA Exchange-Correlation Functional

    N. Mardirossian and M. Head-Gordon, J. Chem. Phys. 144, 214110 (2016)

    Deriv               =              1
    GGA                 =           TRUE
    Meta                =           TRUE

    Exchange Hybrid     =           TRUE
    MP2 Hybrid          =          FALSE

   => Exchange-Correlation Functionals <=

    1.0000   wB97M-V exchange-correlation functional

   => Exact (HF) Exchange <=

    0.8500            HF,LR [omega = 0.3000]
    0.1500               HF 

   => VV10 Non-Local Parameters <=

    VV10 B              =     6.0000E+00
    VV10 C              =     1.0000E-02

   => Molecular Quadrature <=

    Radial Scheme          =       TREUTLER
    Pruning Scheme         =           FLAT
    Nuclear Scheme         =       TREUTLER

    BS radius alpha        =              1
    Pruning alpha          =              1
    Radial Points          =             75
    Spherical Points       =            302
    Total Points           =          66405
    Total Blocks           =            567
    Max Points             =            256
    Max Functions          =             24

   => Loading Basis Set <=

    Name: (CC-PV(D+D)Z AUX)
    Role: JKFIT
    Keyword: DF_BASIS_SCF
    atoms 1   entry O          line   221 file /work/zw18965/.conda/envs/p4env/share/psi4/basis/cc-pvdz-jkfit.gbs 
    atoms 2-3 entry H          line    51 file /work/zw18965/.conda/envs/p4env/share/psi4/basis/cc-pvdz-jkfit.gbs 

   => Loading Basis Set <=

    Name: CC-PV(D+D)Z
    Role: ORBITAL
    Keyword: BASIS
    atoms 1   entry O          line   207 file /work/zw18965/.conda/envs/p4env/share/psi4/basis/cc-pv_dpd_z.gbs 
    atoms 2-3 entry H          line    31 file /work/zw18965/.conda/envs/p4env/share/psi4/basis/cc-pv_dpd_z.gbs 

  Reading orbitals from file 180, no projection.

  ==> Pre-Iterations <==

   -------------------------------------------------------
    Irrep   Nso     Nmo     Nalpha   Nbeta   Ndocc  Nsocc
   -------------------------------------------------------
     A1        11      11       0       0       0       0
     A2         2       2       0       0       0       0
     B1         4       4       0       0       0       0
     B2         7       7       0       0       0       0
   -------------------------------------------------------
    Total      24      24       5       5       5       0
   -------------------------------------------------------

  ==> Integral Setup <==

  ==> DiskDFJK: Density-Fitted J/K Matrices <==

    J tasked:                  Yes
    K tasked:                  Yes
    wK tasked:                 Yes
    Omega:               3.000E-01
    OpenMP threads:             24
    Integrals threads:          24
    Memory [MiB]:           102882
    Algorithm:                Core
    Integral Cache:           NONE
    Schwarz Cutoff:          1E-12
    Fitting Condition:       1E-10

   => Auxiliary Basis Set <=

  Basis Set: (CC-PV(D+D)Z AUX)
    Blend: CC-PVDZ-JKFIT
    Number of shells: 42
    Number of basis function: 116
    Number of Cartesian functions: 131
    Spherical Harmonics?: true
    Max angular momentum: 3

  Cached 100.0% of DFT collocation blocks in 0.111 [GiB].

  Minimum eigenvalue in the overlap matrix is 3.4594692892E-02.
  Using Symmetric Orthogonalization.

  SCF Guess: Orbitals guess was supplied from a previous computation.

  ==> Iterations <==

                           Total Energy        Delta E     RMS |[F,P]|

   @DF-RKS iter   0:   -76.38792108621452   -7.63879e+01   3.22888e-04 
   @DF-RKS iter   1:   -76.38953453458687   -1.61345e-03   5.89412e-05 DIIS
   @DF-RKS iter   2:   -76.38953469583049   -1.61244e-07   5.26131e-05 DIIS
   @DF-RKS iter   3:   -76.38953487043405   -1.74604e-07   4.55335e-06 DIIS
   @DF-RKS iter   4:   -76.38953487491223   -4.47818e-09   1.75052e-06 DIIS
   @DF-RKS iter   5:   -76.38953487559397   -6.81737e-10   2.43917e-07 DIIS
   @DF-RKS iter   6:   -76.38953487562058   -2.66169e-11   3.01242e-08 DIIS
   @DF-RKS iter   7:   -76.38953487562098   -3.97904e-13   2.35732e-09 DIIS
  Energy and wave function converged.


  ==> Post-Iterations <==

    Orbital Energies [Eh]
    ---------------------

    Doubly Occupied:                                                      

       1A1   -19.327250     2A1    -1.116199     1B2    -0.610242  
       3A1    -0.474355     1B1    -0.395191  

    Virtual:                                                              

       4A1     0.130760     2B2     0.203142     3B2     0.647058  
       5A1     0.709687     6A1     1.018473     2B1     1.040743  
       4B2     1.102792     7A1     1.289777     1A2     1.339069  
       3B1     1.517264     8A1     1.690585     5B2     1.771321  
       6B2     2.202069     9A1     2.244046     4B1     3.034345  
       2A2     3.063560    10A1     3.236561    11A1     3.551543  
       7B2     3.840222  

    Final Occupation by Irrep:
             A1    A2    B1    B2 
    DOCC [     3,    0,    1,    1 ]

  @DF-RKS Final Energy:   -76.38953487562098

   => Energetics <=

    Nuclear Repulsion Energy =              9.1091340556131790
    One-Electron Energy =                -122.9994436441032093
    Two-Electron Energy =                  44.1294225274712559
    DFT Exchange-Correlation Energy =      -6.6713083933647148
    Empirical Dispersion Energy =           0.0000000000000000
    VV10 Nonlocal Energy =                  0.0426605787625025
    Total Energy =                        -76.3895348756209671

Computation Completed


Properties will be evaluated at   0.000000,   0.000000,   0.000000 [a0]

Properties computed using the SCF density matrix

  Nuclear Dipole Moment: [e a0]
     X:     0.0000      Y:     0.0000      Z:     1.0053

  Electronic Dipole Moment: [e a0]
     X:     0.0000      Y:     0.0000      Z:    -0.2410

  Dipole Moment: [e a0]
     X:     0.0000      Y:     0.0000      Z:     0.7644     Total:     0.7644

  Dipole Moment: [D]
     X:     0.0000      Y:     0.0000      Z:     1.9428     Total:     1.9428


*** tstop() called on bp1-compute00140.data.bp.acrc.priv at Tue Apr 27 18:11:33 2021
Module time:
	user time   =      40.65 seconds =       0.68 minutes
	system time =       1.12 seconds =       0.02 minutes
	total time  =          2 seconds =       0.03 minutes
Total time:
	user time   =     366.84 seconds =       6.11 minutes
	system time =      10.62 seconds =       0.18 minutes
	total time  =         16 seconds =       0.27 minutes

  //>>>>>>>>>>>>>>>>>>>>>>>>>>>>>>>>>>>//
  //    Loading displacement 3 of 5    //
  //<<<<<<<<<<<<<<<<<<<<<<<<<<<<<<<<<<<//

*** tstart() called on bp1-compute00140.data.bp.acrc.priv
*** at Tue Apr 27 18:11:33 2021

   => Loading Basis Set <=

    Name: CC-PV(D+D)Z
    Role: ORBITAL
    Keyword: BASIS
    atoms 1   entry O          line   207 file /work/zw18965/.conda/envs/p4env/share/psi4/basis/cc-pv_dpd_z.gbs 
    atoms 2-3 entry H          line    31 file /work/zw18965/.conda/envs/p4env/share/psi4/basis/cc-pv_dpd_z.gbs 


         ---------------------------------------------------------
                                   SCF
               by Justin Turney, Rob Parrish, Andy Simmonett
                          and Daniel G. A. Smith
                              RKS Reference
                       24 Threads, 137329 MiB Core
         ---------------------------------------------------------

  ==> Geometry <==

    Molecular point group: c2v
    Full point group: C2v

    Geometry (in Angstrom), charge = 0, multiplicity = 1:

       Center              X                  Y                   Z               Mass       
    ------------   -----------------  -----------------  -----------------  -----------------
         O           -0.000000000000     0.000000000000    -0.067150386338    15.994914619570
         H           -0.000000000000     0.754791900429     0.532862680426     1.007825032230
         H            0.000000000000    -0.754791900429     0.532862680426     1.007825032230

  Running in c2v symmetry.

  Rotational constants: A =     26.15805  B =     14.68003  C =      9.40301 [cm^-1]
  Rotational constants: A = 784198.57572  B = 440096.18132  C = 281895.18626 [MHz]
  Nuclear repulsion =    9.131535700961253

  Charge       = 0
  Multiplicity = 1
  Electrons    = 10
  Nalpha       = 5
  Nbeta        = 5

  ==> Algorithm <==

  SCF Algorithm Type is DF.
  DIIS enabled.
  MOM disabled.
  Fractional occupation disabled.
  Guess Type is READ.
  Energy threshold   = 1.00e-08
  Density threshold  = 1.00e-08
  Integral threshold = 0.00e+00

  ==> Primary Basis <==

  Basis Set: CC-PV(D+D)Z
    Blend: CC-PV(D+D)Z
    Number of shells: 12
    Number of basis function: 24
    Number of Cartesian functions: 25
    Spherical Harmonics?: true
    Max angular momentum: 2

  ==> DFT Potential <==

   => Composite Functional: WB97M-V <= 

    wB97M-V Hyb-GGA Exchange-Correlation Functional

    N. Mardirossian and M. Head-Gordon, J. Chem. Phys. 144, 214110 (2016)

    Deriv               =              1
    GGA                 =           TRUE
    Meta                =           TRUE

    Exchange Hybrid     =           TRUE
    MP2 Hybrid          =          FALSE

   => Exchange-Correlation Functionals <=

    1.0000   wB97M-V exchange-correlation functional

   => Exact (HF) Exchange <=

    0.8500            HF,LR [omega = 0.3000]
    0.1500               HF 

   => VV10 Non-Local Parameters <=

    VV10 B              =     6.0000E+00
    VV10 C              =     1.0000E-02

   => Molecular Quadrature <=

    Radial Scheme          =       TREUTLER
    Pruning Scheme         =           FLAT
    Nuclear Scheme         =       TREUTLER

    BS radius alpha        =              1
    Pruning alpha          =              1
    Radial Points          =             75
    Spherical Points       =            302
    Total Points           =          66405
    Total Blocks           =            569
    Max Points             =            256
    Max Functions          =             24

   => Loading Basis Set <=

    Name: (CC-PV(D+D)Z AUX)
    Role: JKFIT
    Keyword: DF_BASIS_SCF
    atoms 1   entry O          line   221 file /work/zw18965/.conda/envs/p4env/share/psi4/basis/cc-pvdz-jkfit.gbs 
    atoms 2-3 entry H          line    51 file /work/zw18965/.conda/envs/p4env/share/psi4/basis/cc-pvdz-jkfit.gbs 

   => Loading Basis Set <=

    Name: CC-PV(D+D)Z
    Role: ORBITAL
    Keyword: BASIS
    atoms 1   entry O          line   207 file /work/zw18965/.conda/envs/p4env/share/psi4/basis/cc-pv_dpd_z.gbs 
    atoms 2-3 entry H          line    31 file /work/zw18965/.conda/envs/p4env/share/psi4/basis/cc-pv_dpd_z.gbs 

  Reading orbitals from file 180, no projection.

  ==> Pre-Iterations <==

   -------------------------------------------------------
    Irrep   Nso     Nmo     Nalpha   Nbeta   Ndocc  Nsocc
   -------------------------------------------------------
     A1        11      11       0       0       0       0
     A2         2       2       0       0       0       0
     B1         4       4       0       0       0       0
     B2         7       7       0       0       0       0
   -------------------------------------------------------
    Total      24      24       5       5       5       0
   -------------------------------------------------------

  ==> Integral Setup <==

  ==> DiskDFJK: Density-Fitted J/K Matrices <==

    J tasked:                  Yes
    K tasked:                  Yes
    wK tasked:                 Yes
    Omega:               3.000E-01
    OpenMP threads:             24
    Integrals threads:          24
    Memory [MiB]:           102882
    Algorithm:                Core
    Integral Cache:           NONE
    Schwarz Cutoff:          1E-12
    Fitting Condition:       1E-10

   => Auxiliary Basis Set <=

  Basis Set: (CC-PV(D+D)Z AUX)
    Blend: CC-PVDZ-JKFIT
    Number of shells: 42
    Number of basis function: 116
    Number of Cartesian functions: 131
    Spherical Harmonics?: true
    Max angular momentum: 3

  Cached 100.0% of DFT collocation blocks in 0.111 [GiB].

  Minimum eigenvalue in the overlap matrix is 3.4470239731E-02.
  Using Symmetric Orthogonalization.

  SCF Guess: Orbitals guess was supplied from a previous computation.

  ==> Iterations <==

                           Total Energy        Delta E     RMS |[F,P]|

   @DF-RKS iter   0:   -76.39113064423903   -7.63911e+01   3.23208e-04 
   @DF-RKS iter   1:   -76.38952069032914    1.60995e-03   5.83580e-05 DIIS
   @DF-RKS iter   2:   -76.38952085096757   -1.60638e-07   5.19167e-05 DIIS
   @DF-RKS iter   3:   -76.38952102083027   -1.69863e-07   4.53238e-06 DIIS
   @DF-RKS iter   4:   -76.38952102528229   -4.45202e-09   1.73594e-06 DIIS
   @DF-RKS iter   5:   -76.38952102595502   -6.72728e-10   2.43416e-07 DIIS
   @DF-RKS iter   6:   -76.38952102598159   -2.65743e-11   2.99989e-08 DIIS
   @DF-RKS iter   7:   -76.38952102598191   -3.12639e-13   2.34740e-09 DIIS
  Energy and wave function converged.


  ==> Post-Iterations <==

    Orbital Energies [Eh]
    ---------------------

    Doubly Occupied:                                                      

       1A1   -19.326675     2A1    -1.116962     1B2    -0.611843  
       3A1    -0.473837     1B1    -0.395261  

    Virtual:                                                              

       4A1     0.131292     2B2     0.203562     3B2     0.649708  
       5A1     0.710522     6A1     1.018012     2B1     1.040931  
       4B2     1.102466     7A1     1.292649     1A2     1.338531  
       3B1     1.519584     8A1     1.690905     5B2     1.771904  
       6B2     2.208089     9A1     2.249225     4B1     3.034792  
       2A2     3.067191    10A1     3.239049    11A1     3.556035  
       7B2     3.841087  

    Final Occupation by Irrep:
             A1    A2    B1    B2 
    DOCC [     3,    0,    1,    1 ]

  @DF-RKS Final Energy:   -76.38952102598191

   => Energetics <=

    Nuclear Repulsion Energy =              9.1315357009612530
    One-Electron Energy =                -123.0404479248484364
    Two-Electron Energy =                  44.1498959832963536
    DFT Exchange-Correlation Energy =      -6.6731676057099110
    Empirical Dispersion Energy =           0.0000000000000000
    VV10 Nonlocal Energy =                  0.0426628203188316
    Total Energy =                        -76.3895210259818924

Computation Completed


Properties will be evaluated at   0.000000,   0.000000,   0.000000 [a0]

Properties computed using the SCF density matrix

  Nuclear Dipole Moment: [e a0]
     X:     0.0000      Y:     0.0000      Z:     0.9988

  Electronic Dipole Moment: [e a0]
     X:     0.0000      Y:     0.0000      Z:    -0.2368

  Dipole Moment: [e a0]
     X:     0.0000      Y:     0.0000      Z:     0.7620     Total:     0.7620

  Dipole Moment: [D]
     X:     0.0000      Y:     0.0000      Z:     1.9368     Total:     1.9368


*** tstop() called on bp1-compute00140.data.bp.acrc.priv at Tue Apr 27 18:11:35 2021
Module time:
	user time   =      40.03 seconds =       0.67 minutes
	system time =       1.03 seconds =       0.02 minutes
	total time  =          2 seconds =       0.03 minutes
Total time:
	user time   =     406.99 seconds =       6.78 minutes
	system time =      11.65 seconds =       0.19 minutes
	total time  =         18 seconds =       0.30 minutes

  //>>>>>>>>>>>>>>>>>>>>>>>>>>>>>>>>>>>//
  //    Loading displacement 4 of 5    //
  //<<<<<<<<<<<<<<<<<<<<<<<<<<<<<<<<<<<//

*** tstart() called on bp1-compute00140.data.bp.acrc.priv
*** at Tue Apr 27 18:11:35 2021

   => Loading Basis Set <=

    Name: CC-PV(D+D)Z
    Role: ORBITAL
    Keyword: BASIS
    atoms 1   entry O          line   207 file /work/zw18965/.conda/envs/p4env/share/psi4/basis/cc-pv_dpd_z.gbs 
    atoms 2-3 entry H          line    31 file /work/zw18965/.conda/envs/p4env/share/psi4/basis/cc-pv_dpd_z.gbs 


         ---------------------------------------------------------
                                   SCF
               by Justin Turney, Rob Parrish, Andy Simmonett
                          and Daniel G. A. Smith
                              RKS Reference
                       24 Threads, 137329 MiB Core
         ---------------------------------------------------------

  ==> Geometry <==

    Molecular point group: c2v
    Full point group: C2v

    Geometry (in Angstrom), charge = 0, multiplicity = 1:

       Center              X                  Y                   Z               Mass       
    ------------   -----------------  -----------------  -----------------  -----------------
         O           -0.000000000000     0.000000000000    -0.067371708079    15.994914619570
         H           -0.000000000000     0.752928253797     0.534618948744     1.007825032230
[...]
   @DF-RKS iter   1:   -76.27906618641829   -3.08426e-01   3.86882e-02 DIIS
   @DF-RKS iter   2:   -76.29754052683630   -1.84743e-02   3.75418e-02 DIIS
   @DF-RKS iter   3:   -76.38937180485928   -9.18313e-02   1.12589e-03 DIIS
   @DF-RKS iter   4:   -76.38951945231467   -1.47647e-04   3.29256e-04 DIIS
   @DF-RKS iter   5:   -76.38953181210181   -1.23598e-05   4.38778e-05 DIIS
   @DF-RKS iter   6:   -76.38953219327774   -3.81176e-07   7.47993e-06 DIIS
   @DF-RKS iter   7:   -76.38953221679755   -2.35198e-08   1.51567e-06 DIIS
   @DF-RKS iter   8:   -76.38953221764883   -8.51287e-10   1.30817e-07 DIIS
   @DF-RKS iter   9:   -76.38953221765274   -3.90799e-12   1.33357e-08 DIIS
   @DF-RKS iter  10:   -76.38953221765277   -2.84217e-14   6.03020e-10 DIIS
   @DF-RKS iter  11:   -76.38953221765276    1.42109e-14   5.23244e-11 DIIS
  Energy and wave function converged.


  ==> Post-Iterations <==

    Orbital Energies [Eh]
    ---------------------

    Doubly Occupied:                                                      

       1A1   -19.327431     2A1    -1.116761     1B2    -0.609533  
       3A1    -0.475374     1B1    -0.395368  

    Virtual:                                                              

       4A1     0.130736     2B2     0.203261     3B2     0.646004  
       5A1     0.711823     6A1     1.019092     2B1     1.040645  
       4B2     1.103173     7A1     1.285356     1A2     1.340746  
       3B1     1.514688     8A1     1.689483     5B2     1.774472  
       6B2     2.202135     9A1     2.245770     4B1     3.037000  
       2A2     3.062222    10A1     3.237909    11A1     3.549213  
       7B2     3.843162  

    Final Occupation by Irrep:
             A1    A2    B1    B2 
    DOCC [     3,    0,    1,    1 ]

  @DF-RKS Final Energy:   -76.38953221765276

   => Energetics <=

    Nuclear Repulsion Energy =              9.1141357047647507
    One-Electron Energy =                -123.0067714648376125
    Two-Electron Energy =                  44.1320818882472778
    DFT Exchange-Correlation Energy =      -6.6716392732013219
    Empirical Dispersion Energy =           0.0000000000000000
    VV10 Nonlocal Energy =                  0.0426609273741427
    Total Energy =                        -76.3895322176527571

Computation Completed


Properties will be evaluated at   0.000000,   0.000000,   0.000000 [a0]

Properties computed using the SCF density matrix

  Nuclear Dipole Moment: [e a0]
     X:     0.0000      Y:     0.0000      Z:     1.0103

  Electronic Dipole Moment: [e a0]
     X:     0.0000      Y:     0.0000      Z:    -0.2435

  Dipole Moment: [e a0]
     X:     0.0000      Y:     0.0000      Z:     0.7668     Total:     0.7668

  Dipole Moment: [D]
     X:     0.0000      Y:     0.0000      Z:     1.9490     Total:     1.9490


*** tstop() called on bp1-compute00140.data.bp.acrc.priv at Tue Apr 27 18:12:16 2021
Module time:
	user time   =      58.32 seconds =       0.97 minutes
	system time =       1.35 seconds =       0.02 minutes
	total time  =          2 seconds =       0.03 minutes
Total time:
	user time   =    1372.41 seconds =      22.87 minutes
	system time =      36.14 seconds =       0.60 minutes
	total time  =         59 seconds =       0.98 minutes

  //>>>>>>>>>>>>>>>>>>>>>>>>>>>>>>>>>>>//
  //    Loading displacement 8 of 8    //
  //<<<<<<<<<<<<<<<<<<<<<<<<<<<<<<<<<<<//

*** tstart() called on bp1-compute00140.data.bp.acrc.priv
*** at Tue Apr 27 18:12:16 2021

   => Loading Basis Set <=

    Name: CC-PV(D+D)Z
    Role: ORBITAL
    Keyword: BASIS
    atoms 1   entry O          line   207 file /work/zw18965/.conda/envs/p4env/share/psi4/basis/cc-pv_dpd_z.gbs 
    atoms 2-3 entry H          line    31 file /work/zw18965/.conda/envs/p4env/share/psi4/basis/cc-pv_dpd_z.gbs 


         ---------------------------------------------------------
                                   SCF
               by Justin Turney, Rob Parrish, Andy Simmonett
                          and Daniel G. A. Smith
                              RKS Reference
                       24 Threads, 137329 MiB Core
         ---------------------------------------------------------

  ==> Geometry <==

    Molecular point group: cs
    Full point group: Cs

    Geometry (in Angstrom), charge = 0, multiplicity = 1:

       Center              X                  Y                   Z               Mass       
    ------------   -----------------  -----------------  -----------------  -----------------
         O            0.000000000000    -0.000176520199    -0.067702305094    15.994914619570
         H            0.000000000000     0.755165097784     0.538366549990     1.007825032230
         H            0.000000000000    -0.752363594132     0.536118162034     1.007825032230

  Running in cs symmetry.

  Rotational constants: A =     25.73413  B =     14.71972  C =      9.36374 [cm^-1]
  Rotational constants: A = 771489.93422  B = 441286.01437  C = 280717.73570 [MHz]
  Nuclear repulsion =    9.111379702653750

  Charge       = 0
  Multiplicity = 1
  Electrons    = 10
  Nalpha       = 5
  Nbeta        = 5

  ==> Algorithm <==

  SCF Algorithm Type is DF.
  DIIS enabled.
  MOM disabled.
  Fractional occupation disabled.
  Guess Type is SAD.
  Energy threshold   = 1.00e-10
  Density threshold  = 1.00e-10
  Integral threshold = 0.00e+00

  ==> Primary Basis <==

  Basis Set: CC-PV(D+D)Z
    Blend: CC-PV(D+D)Z
    Number of shells: 12
    Number of basis function: 24
    Number of Cartesian functions: 25
    Spherical Harmonics?: true
    Max angular momentum: 2

  ==> DFT Potential <==

   => Composite Functional: WB97M-V <= 

    wB97M-V Hyb-GGA Exchange-Correlation Functional

    N. Mardirossian and M. Head-Gordon, J. Chem. Phys. 144, 214110 (2016)

    Deriv               =              1
    GGA                 =           TRUE
    Meta                =           TRUE

    Exchange Hybrid     =           TRUE
    MP2 Hybrid          =          FALSE

   => Exchange-Correlation Functionals <=

    1.0000   wB97M-V exchange-correlation functional

   => Exact (HF) Exchange <=

    0.8500            HF,LR [omega = 0.3000]
    0.1500               HF 

   => VV10 Non-Local Parameters <=

    VV10 B              =     6.0000E+00
    VV10 C              =     1.0000E-02

   => Molecular Quadrature <=

    Radial Scheme          =       TREUTLER
    Pruning Scheme         =           FLAT
    Nuclear Scheme         =       TREUTLER

    BS radius alpha        =              1
    Pruning alpha          =              1
    Radial Points          =             75
    Spherical Points       =            302
    Total Points           =          66405
    Total Blocks           =            559
    Max Points             =            255
    Max Functions          =             24

   => Loading Basis Set <=

    Name: (CC-PV(D+D)Z AUX)
    Role: JKFIT
    Keyword: DF_BASIS_SCF
    atoms 1   entry O          line   221 file /work/zw18965/.conda/envs/p4env/share/psi4/basis/cc-pvdz-jkfit.gbs 
    atoms 2-3 entry H          line    51 file /work/zw18965/.conda/envs/p4env/share/psi4/basis/cc-pvdz-jkfit.gbs 

  ==> Pre-Iterations <==

   -------------------------------------------------------
    Irrep   Nso     Nmo     Nalpha   Nbeta   Ndocc  Nsocc
   -------------------------------------------------------
     A'        18      18       0       0       0       0
     A"         6       6       0       0       0       0
   -------------------------------------------------------
    Total      24      24       5       5       5       0
   -------------------------------------------------------

  ==> Integral Setup <==

  ==> DiskDFJK: Density-Fitted J/K Matrices <==

    J tasked:                  Yes
    K tasked:                  Yes
    wK tasked:                 Yes
    Omega:               3.000E-01
    OpenMP threads:             24
    Integrals threads:          24
    Memory [MiB]:           102882
    Algorithm:                Core
    Integral Cache:           NONE
    Schwarz Cutoff:          1E-12
    Fitting Condition:       1E-10

   => Auxiliary Basis Set <=

  Basis Set: (CC-PV(D+D)Z AUX)
    Blend: CC-PVDZ-JKFIT
    Number of shells: 42
    Number of basis function: 116
    Number of Cartesian functions: 131
    Spherical Harmonics?: true
    Max angular momentum: 3

  Cached 100.0% of DFT collocation blocks in 0.111 [GiB].

  Minimum eigenvalue in the overlap matrix is 3.4557704167E-02.
  Using Symmetric Orthogonalization.

  SCF Guess: Superposition of Atomic Densities via on-the-fly atomic UHF.

  ==> Iterations <==

                           Total Energy        Delta E     RMS |[F,P]|

   @DF-RKS iter SAD:   -75.97009621823010   -7.59701e+01   0.00000e+00 
   @DF-RKS iter   1:   -76.27909869675082   -3.09002e-01   2.81045e-02 DIIS
   @DF-RKS iter   2:   -76.29758676759077   -1.84881e-02   2.72662e-02 DIIS
   @DF-RKS iter   3:   -76.38936748531211   -9.17807e-02   8.17448e-04 DIIS
   @DF-RKS iter   4:   -76.38951542913442   -1.47944e-04   2.39384e-04 DIIS
   @DF-RKS iter   5:   -76.38952785439548   -1.24253e-05   3.20283e-05 DIIS
   @DF-RKS iter   6:   -76.38952824303011   -3.88635e-07   5.49851e-06 DIIS
   @DF-RKS iter   7:   -76.38952826717220   -2.41421e-08   1.10655e-06 DIIS
   @DF-RKS iter   8:   -76.38952826803155   -8.59359e-10   9.52355e-08 DIIS
   @DF-RKS iter   9:   -76.38952826803542   -3.86535e-12   1.05095e-08 DIIS
   @DF-RKS iter  10:   -76.38952826803543   -1.42109e-14   1.57094e-09 DIIS
   @DF-RKS iter  11:   -76.38952826803541    2.84217e-14   1.55208e-10 DIIS
   @DF-RKS iter  12:   -76.38952826803549   -8.52651e-14   1.19126e-11 DIIS
  Energy and wave function converged.


  ==> Post-Iterations <==

    Orbital Energies [Eh]
    ---------------------

    Doubly Occupied:                                                      

       1Ap   -19.327303     2Ap    -1.116417     3Ap    -0.610021  
       4Ap    -0.474707     1App   -0.395256  

    Virtual:                                                              

       5Ap     0.130759     6Ap     0.203193     7Ap     0.646697  
       8Ap     0.710511     9Ap     1.018677     2App    1.040709  
      10Ap     1.102927    11Ap     1.288266     3App    1.339656  
       4App    1.516396    12Ap     1.690195    13Ap     1.772452  
      14Ap     2.201767    15Ap     2.245210     5App    3.035170  
       6App    3.063290    16Ap     3.237129    17Ap     3.550759  
      18Ap     3.841312  

    Final Occupation by Irrep:
             Ap   App 
    DOCC [     4,    1 ]

  @DF-RKS Final Energy:   -76.38952826803549

   => Energetics <=

    Nuclear Repulsion Energy =              9.1113797026537497
    One-Electron Energy =                -123.0028895376635631
    Two-Electron Energy =                  44.1307858971888436
    DFT Exchange-Correlation Energy =      -6.6714650852907118
    Empirical Dispersion Energy =           0.0000000000000000
    VV10 Nonlocal Energy =                  0.0426607550761861
    Total Energy =                        -76.3895282680354910

Computation Completed


Properties will be evaluated at   0.000000,   0.000000,   0.000000 [a0]

Properties computed using the SCF density matrix

  Nuclear Dipole Moment: [e a0]
     X:     0.0000      Y:     0.0026      Z:     1.0070

  Electronic Dipole Moment: [e a0]
     X:     0.0000      Y:    -0.0018      Z:    -0.2418

  Dipole Moment: [e a0]
     X:     0.0000      Y:     0.0008      Z:     0.7652     Total:     0.7652

  Dipole Moment: [D]
     X:     0.0000      Y:     0.0020      Z:     1.9449     Total:     1.9449


*** tstop() called on bp1-compute00140.data.bp.acrc.priv at Tue Apr 27 18:12:19 2021
Module time:
	user time   =      59.44 seconds =       0.99 minutes
	system time =       1.50 seconds =       0.03 minutes
	total time  =          3 seconds =       0.05 minutes
Total time:
	user time   =    1431.98 seconds =      23.87 minutes
	system time =      37.64 seconds =       0.63 minutes
	total time  =         62 seconds =       1.03 minutes

         ----------------------------------------------------------
                                   FINDIF
                     R. A. King and Jonathon Misiewicz
         ---------------------------------------------------------

  Computing second-derivative from energies using projected, 
  symmetry-adapted, cartesian coordinates.

  8 energies passed in, including the reference geometry.
    Using 3-point formula.
    Energy without displacement:  -76.3895354846
    Check energies below for precision!
    0: -1        :       -76.3895323634
    0: 1         :       -76.3895320971
    1: -1        :       -76.3895300367
    1: 1         :       -76.3895311374
    0: 1, 1: 1   :       -76.3895330351
    0: -1, 1: -1 :       -76.3895322177
    2: -1        :       -76.3895282680

-------------------------------------------------------------


  ==> Harmonic Vibrational Analysis <==

  non-mass-weighted Hessian:       Symmetric? True   Hermitian? True   Lin Dep Dim?  6 (0)
  projection of translations (True) and rotations (True) removed 6 degrees of freedom (6)
  total projector:                 Symmetric? True   Hermitian? True   Lin Dep Dim?  6 (6)
  mass-weighted Hessian:           Symmetric? True   Hermitian? True   Lin Dep Dim?  6 (0)
  pre-proj  low-frequency mode:    0.0000i [cm^-1]
  pre-proj  low-frequency mode:    0.0000  [cm^-1]
  pre-proj  low-frequency mode:    0.0000  [cm^-1]
  pre-proj  low-frequency mode:    0.0000  [cm^-1]
  pre-proj  low-frequency mode:    0.0000  [cm^-1]
  pre-proj  low-frequency mode:    0.0000  [cm^-1]
  pre-proj  all modes:['0.0001i' '0.0000' '0.0000' '0.0000' '0.0000' '0.0000' '1660.6561'
 '3804.6372' '3905.8524']
  projected mass-weighted Hessian: Symmetric? True   Hermitian? True   Lin Dep Dim?  6 (6)
  post-proj low-frequency mode:    0.0001i [cm^-1] (TR)
  post-proj low-frequency mode:    0.0001i [cm^-1] (TR)
  post-proj low-frequency mode:    0.0000  [cm^-1] (TR)
  post-proj low-frequency mode:    0.0000  [cm^-1] (TR)
  post-proj low-frequency mode:    0.0000  [cm^-1] (TR)
  post-proj low-frequency mode:    0.0001  [cm^-1] (TR)
  post-proj  all modes:['0.0001i' '0.0001i' '0.0000' '0.0000' '0.0000' '0.0001' '1660.6561'
 '3804.6372' '3905.8524']

  Vibration                       7                   8                   9           
  Freq [cm^-1]                1660.6561           3804.6372           3905.8524       
  Irrep                           A1                  A1                  B2          
  Reduced mass [u]              1.0813              1.0464              1.0799        
  Force const [mDyne/A]         1.7570              8.9245              9.7062        
  Turning point v=0 [a0]        0.2589              0.1739              0.1690        
  RMS dev v=0 [a0 u^1/2]        0.1904              0.1258              0.1241        
  Char temp [K]               2389.3144           5474.0258           5619.6520       
  ----------------------------------------------------------------------------------
      1   O                0.00 -0.00 -0.07   -0.00 -0.00 -0.05   -0.00 -0.07  0.00   
      2   H                0.00 -0.43  0.56    0.00  0.58  0.40   -0.00  0.55  0.44   
      3   H               -0.00  0.43  0.56    0.00 -0.58  0.40    0.00  0.55 -0.44   

  ==> Thermochemistry Components <==

  Entropy, S
    Electronic S            0.000 [cal/(mol K)]        0.000 [J/(mol K)]       0.00000000 [mEh/K] (multiplicity = 1)
    Translational S        34.608 [cal/(mol K)]      144.801 [J/(mol K)]       0.05515177 [mEh/K] (mol. weight = 18.0106 [u], P = 101325.00 [Pa])
    Rotational S           10.518 [cal/(mol K)]       44.008 [J/(mol K)]       0.01676192 [mEh/K] (symmetry no. = 2)
    Vibrational S           0.006 [cal/(mol K)]        0.025 [J/(mol K)]       0.00000945 [mEh/K]
  Total S                  45.132 [cal/(mol K)]      188.834 [J/(mol K)]       0.07192315 [mEh/K]
  Correction S              0.000 [cal/(mol K)]        0.000 [J/(mol K)]       0.00000000 [mEh/K]

  Constant volume heat capacity, Cv
    Electronic Cv           0.000 [cal/(mol K)]        0.000 [J/(mol K)]       0.00000000 [mEh/K]
    Translational Cv        2.981 [cal/(mol K)]       12.472 [J/(mol K)]       0.00475022 [mEh/K]
    Rotational Cv           2.981 [cal/(mol K)]       12.472 [J/(mol K)]       0.00475022 [mEh/K]
    Vibrational Cv          0.042 [cal/(mol K)]        0.177 [J/(mol K)]       0.00006735 [mEh/K]
  Total Cv                  6.004 [cal/(mol K)]       25.120 [J/(mol K)]       0.00956778 [mEh/K]
  Correction Cv             0.000 [cal/(mol K)]        0.000 [J/(mol K)]       0.00000000 [mEh/K]

  Constant pressure heat capacity, Cp
    Electronic Cp           0.000 [cal/(mol K)]        0.000 [J/(mol K)]       0.00000000 [mEh/K]
    Translational Cp        4.968 [cal/(mol K)]       20.786 [J/(mol K)]       0.00791703 [mEh/K]
    Rotational Cp           2.981 [cal/(mol K)]       12.472 [J/(mol K)]       0.00475022 [mEh/K]
    Vibrational Cp          0.042 [cal/(mol K)]        0.177 [J/(mol K)]       0.00006735 [mEh/K]
  Total Cp                  7.991 [cal/(mol K)]       33.435 [J/(mol K)]       0.01273460 [mEh/K]
  Correction Cp             0.000 [cal/(mol K)]        0.000 [J/(mol K)]       0.00000000 [mEh/K]

  ==> Thermochemistry Energy Analysis <==

  Raw electronic energy, E0
  Total E0, Electronic energy at well bottom at 0 [K]                  -76.38953548 [Eh]

  Zero-point energy, ZPE_vib = Sum_i nu_i / 2
    Electronic ZPE          0.000 [kcal/mol]        0.000 [kJ/mol]       0.00000000 [Eh]
    Translational ZPE       0.000 [kcal/mol]        0.000 [kJ/mol]       0.00000000 [Eh]
    Rotational ZPE          0.000 [kcal/mol]        0.000 [kJ/mol]       0.00000000 [Eh]
    Vibrational ZPE        13.397 [kcal/mol]       56.052 [kJ/mol]       0.02134904 [Eh]        4685.573 [cm^-1]
  Correction ZPE           13.397 [kcal/mol]       56.052 [kJ/mol]       0.02134904 [Eh]        4685.573 [cm^-1]
  Total ZPE, Electronic energy at 0 [K]                                -76.36818644 [Eh]

  Thermal Energy, E (includes ZPE)
    Electronic E            0.000 [kcal/mol]        0.000 [kJ/mol]       0.00000000 [Eh]
    Translational E         0.889 [kcal/mol]        3.718 [kJ/mol]       0.00141628 [Eh]
    Rotational E            0.889 [kcal/mol]        3.718 [kJ/mol]       0.00141628 [Eh]
    Vibrational E          13.398 [kcal/mol]       56.058 [kJ/mol]       0.02135155 [Eh]
  Correction E             15.176 [kcal/mol]       63.495 [kJ/mol]       0.02418410 [Eh]
  Total E, Electronic energy at  298.15 [K]                            -76.36535139 [Eh]

  Enthalpy, H_trans = E_trans + k_B * T
    Electronic H            0.000 [kcal/mol]        0.000 [kJ/mol]       0.00000000 [Eh]
    Translational H         1.481 [kcal/mol]        6.197 [kJ/mol]       0.00236046 [Eh]
    Rotational H            0.889 [kcal/mol]        3.718 [kJ/mol]       0.00141628 [Eh]
    Vibrational H          13.398 [kcal/mol]       56.058 [kJ/mol]       0.02135155 [Eh]
  Correction H             15.768 [kcal/mol]       65.974 [kJ/mol]       0.02512828 [Eh]
  Total H, Enthalpy at  298.15 [K]                                     -76.36440720 [Eh]

  Gibbs free energy, G = H - T * S
    Electronic G            0.000 [kcal/mol]        0.000 [kJ/mol]       0.00000000 [Eh]
    Translational G        -8.837 [kcal/mol]      -36.975 [kJ/mol]      -0.01408304 [Eh]
    Rotational G           -2.247 [kcal/mol]       -9.403 [kJ/mol]      -0.00358129 [Eh]
    Vibrational G          13.397 [kcal/mol]       56.051 [kJ/mol]       0.02134873 [Eh]
  Correction G              2.312 [kcal/mol]        9.673 [kJ/mol]       0.00368440 [Eh]
  Total G, Free enthalpy at  298.15 [K]                                -76.38585109 [Eh]

    Psi4 stopped on: Tuesday, 27 April 2021 06:12PM
    Psi4 wall time for execution: 0:01:01.86

*** Psi4 exiting successfully. Buy a developer a beer!
