
    -----------------------------------------------------------------------
          Psi4: An Open-Source Ab Initio Electronic Structure Package
                               Psi4 1.3.2 release

                         Git: Rev {HEAD} ecbda83 


    R. M. Parrish, L. A. Burns, D. G. A. Smith, A. C. Simmonett,
    A. E. DePrince III, E. G. Hohenstein, U. Bozkaya, A. Yu. Sokolov,
    R. Di Remigio, R. M. Richard, J. F. Gonthier, A. M. James,
    H. R. McAlexander, A. Kumar, M. Saitow, X. Wang, B. P. Pritchard,
    P. Verma, H. F. Schaefer III, K. Patkowski, R. A. King, E. F. Valeev,
    F. A. Evangelista, J. M. Turney, T. D. Crawford, and C. D. Sherrill,
    J. Chem. Theory Comput. 13(7) pp 3185--3197 (2017).
    (doi: 10.1021/acs.jctc.7b00174)


                         Additional Contributions by
    P. Kraus, H. Kruse, M. H. Lechner, M. C. Schieber, R. A. Shaw,
    A. Alenaizan, R. Galvelis, Z. L. Glick, S. Lehtola, and J. P. Misiewicz

    -----------------------------------------------------------------------


    Psi4 started on: Tuesday, 27 April 2021 06:11PM

    Process ID: 201001
    Host:       bp1-compute00115.data.bp.acrc.priv
    PSIDATADIR: /work/zw18965/.conda/envs/p4env/share/psi4
    Memory:     500.0 MiB
    Threads:    24
    
  ==> Input File <==

--------------------------------------------------------------------------
memory 144 GB

molecule {
0 1
H 0.0000000000 0.0000000000 0.0000000000
C 0.0000000000 0.0000000000 1.0668000000
N 0.0000000000 0.0000000000 2.2232000000
}

set dynamic_level 1
set basis cc-pV(D+d)Z
 
optimize("wB97M-V")
frequencies("wB97M-V")
--------------------------------------------------------------------------

  Memory set to 134.110 GiB by Python driver.
gradient() will perform gradient computation by finite difference of analytic energies.

         ----------------------------------------------------------
                                   FINDIF
                     R. A. King and Jonathon Misiewicz
         ---------------------------------------------------------

  Using finite-differences of energies to determine gradients.
    Generating geometries for use with 3-point formula.
    Displacement size will be 5.00e-03.
    Number of atoms is 3.
    Number of symmetric SALCs is 2.
    Translations projected? 1. Rotations projected? 1.
    Number of geometries (including reference) is 5.

  //>>>>>>>>>>>>>>>>>>>>>>>>>>>>>>>>>>>//
  //    Loading displacement 1 of 5    //
  //<<<<<<<<<<<<<<<<<<<<<<<<<<<<<<<<<<<//

*** tstart() called on bp1-compute00115.data.bp.acrc.priv
*** at Tue Apr 27 18:11:35 2021

   => Loading Basis Set <=

    Name: CC-PV(D+D)Z
    Role: ORBITAL
    Keyword: BASIS
    atoms 1 entry H          line    31 file /work/zw18965/.conda/envs/p4env/share/psi4/basis/cc-pv_dpd_z.gbs 
    atoms 2 entry C          line   147 file /work/zw18965/.conda/envs/p4env/share/psi4/basis/cc-pv_dpd_z.gbs 
    atoms 3 entry N          line   177 file /work/zw18965/.conda/envs/p4env/share/psi4/basis/cc-pv_dpd_z.gbs 


         ---------------------------------------------------------
                                   SCF
               by Justin Turney, Rob Parrish, Andy Simmonett
                          and Daniel G. A. Smith
                              RKS Reference
                       24 Threads, 137329 MiB Core
         ---------------------------------------------------------

  ==> Geometry <==

    Molecular point group: c2v
    Full point group: C_inf_v

    Geometry (in Angstrom), charge = 0, multiplicity = 1:

       Center              X                  Y                   Z               Mass       
    ------------   -----------------  -----------------  -----------------  -----------------
         H            0.000000000000     0.000000000000    -1.626500253361     1.007825032230
         C            0.000000000000     0.000000000000    -0.559700253361    12.000000000000
         N            0.000000000000     0.000000000000     0.596699746639    14.003074004430

  Running in c2v symmetry.

  Rotational constants: A = ************  B =      1.47729  C =      1.47729 [cm^-1]
  Rotational constants: A = ************  B =  44288.06083  C =  44288.06083 [MHz]
  Nuclear repulsion =   23.861936158778459

  Charge       = 0
  Multiplicity = 1
  Electrons    = 14
  Nalpha       = 7
  Nbeta        = 7

  ==> Algorithm <==

  SCF Algorithm Type is DF.
  DIIS enabled.
  MOM disabled.
  Fractional occupation disabled.
  Guess Type is SAD.
  Energy threshold   = 1.00e-08
  Density threshold  = 1.00e-08
  Integral threshold = 0.00e+00

  ==> Primary Basis <==

  Basis Set: CC-PV(D+D)Z
    Blend: CC-PV(D+D)Z
    Number of shells: 15
    Number of basis function: 33
    Number of Cartesian functions: 35
    Spherical Harmonics?: true
    Max angular momentum: 2

  ==> DFT Potential <==

   => Composite Functional: WB97M-V <= 

    wB97M-V Hyb-GGA Exchange-Correlation Functional

    N. Mardirossian and M. Head-Gordon, J. Chem. Phys. 144, 214110 (2016)

    Deriv               =              1
    GGA                 =           TRUE
    Meta                =           TRUE

    Exchange Hybrid     =           TRUE
    MP2 Hybrid          =          FALSE

   => Exchange-Correlation Functionals <=

    1.0000   wB97M-V exchange-correlation functional

   => Exact (HF) Exchange <=

    0.8500            HF,LR [omega = 0.3000]
    0.1500               HF 

   => VV10 Non-Local Parameters <=

    VV10 B              =     6.0000E+00
    VV10 C              =     1.0000E-02

   => Molecular Quadrature <=

    Radial Scheme          =       TREUTLER
    Pruning Scheme         =           FLAT
    Nuclear Scheme         =       TREUTLER

    BS radius alpha        =              1
    Pruning alpha          =              1
    Radial Points          =             75
    Spherical Points       =            302
    Total Points           =          65537
    Total Blocks           =            562
    Max Points             =            256
    Max Functions          =             33

   => Loading Basis Set <=

    Name: (CC-PV(D+D)Z AUX)
    Role: JKFIT
    Keyword: DF_BASIS_SCF
    atoms 1 entry H          line    51 file /work/zw18965/.conda/envs/p4env/share/psi4/basis/cc-pvdz-jkfit.gbs 
    atoms 2 entry C          line   121 file /work/zw18965/.conda/envs/p4env/share/psi4/basis/cc-pvdz-jkfit.gbs 
    atoms 3 entry N          line   171 file /work/zw18965/.conda/envs/p4env/share/psi4/basis/cc-pvdz-jkfit.gbs 

  ==> Pre-Iterations <==

   -------------------------------------------------------
    Irrep   Nso     Nmo     Nalpha   Nbeta   Ndocc  Nsocc
   -------------------------------------------------------
     A1        17      17       0       0       0       0
     A2         2       2       0       0       0       0
     B1         7       7       0       0       0       0
     B2         7       7       0       0       0       0
   -------------------------------------------------------
    Total      33      33       7       7       7       0
   -------------------------------------------------------

  ==> Integral Setup <==

  ==> DiskDFJK: Density-Fitted J/K Matrices <==

    J tasked:                  Yes
    K tasked:                  Yes
    wK tasked:                 Yes
    Omega:               3.000E-01
    OpenMP threads:             24
    Integrals threads:          24
    Memory [MiB]:           102840
    Algorithm:                Core
    Integral Cache:           NONE
    Schwarz Cutoff:          1E-12
    Fitting Condition:       1E-10

   => Auxiliary Basis Set <=

  Basis Set: (CC-PV(D+D)Z AUX)
    Blend: CC-PVDZ-JKFIT
    Number of shells: 57
    Number of basis function: 163
    Number of Cartesian functions: 187
    Spherical Harmonics?: true
    Max angular momentum: 3

  Cached 100.0% of DFT collocation blocks in 0.152 [GiB].

  Minimum eigenvalue in the overlap matrix is 7.6524077844E-03.
  Using Symmetric Orthogonalization.

  SCF Guess: Superposition of Atomic Densities via on-the-fly atomic UHF.

  ==> Iterations <==

                           Total Energy        Delta E     RMS |[F,P]|

   @DF-RKS iter SAD:   -92.62100118650943   -9.26210e+01   0.00000e+00 
   @DF-RKS iter   1:   -93.33063610626348   -7.09635e-01   1.91060e-02 DIIS
   @DF-RKS iter   2:   -93.29153482760834    3.91013e-02   2.52137e-02 DIIS
   @DF-RKS iter   3:   -93.39848805195608   -1.06953e-01   2.24349e-03 DIIS
   @DF-RKS iter   4:   -93.39949102000455   -1.00297e-03   4.22579e-04 DIIS
   @DF-RKS iter   5:   -93.39952155363879   -3.05336e-05   7.56904e-05 DIIS
   @DF-RKS iter   6:   -93.39952276735296   -1.21371e-06   1.22062e-05 DIIS
   @DF-RKS iter   7:   -93.39952281561924   -4.82663e-08   8.90377e-07 DIIS
   @DF-RKS iter   8:   -93.39952281607835   -4.59110e-10   1.08447e-07 DIIS
   @DF-RKS iter   9:   -93.39952281608521   -6.86384e-12   1.35051e-08 DIIS
   @DF-RKS iter  10:   -93.39952281608527   -5.68434e-14   9.76023e-10 DIIS
  Energy and wave function converged.


  ==> Post-Iterations <==

    Orbital Energies [Eh]
    ---------------------

    Doubly Occupied:                                                      

       1A1   -14.544157     2A1   -10.412952     3A1    -1.044641  
       4A1    -0.712774     5A1    -0.488958     1B2    -0.460719  
       1B1    -0.460719  

    Virtual:                                                              

       2B2     0.116076     2B1     0.116076     6A1     0.135913  
       7A1     0.281834     3B1     0.562297     3B2     0.562297  
       8A1     0.634744     9A1     0.765535    10A1     0.824498  
       4B2     0.898629     4B1     0.898629    11A1     1.096435  
       5B1     1.177966     5B2     1.177966     1A2     1.194661  
      12A1     1.194662    13A1     1.529546     6B2     1.814723  
       6B1     1.814723    14A1     1.982865     2A2     1.982865  
      15A1     2.165257     7B2     2.656787     7B1     2.656787  
      16A1     2.907310    17A1     3.130211  

    Final Occupation by Irrep:
             A1    A2    B1    B2 
    DOCC [     5,    0,    1,    1 ]

  @DF-RKS Final Energy:   -93.39952281608527

   => Energetics <=

    Nuclear Repulsion Energy =             23.8619361587784589
    One-Electron Energy =                -172.6718639013880647
    Two-Electron Energy =                  64.3047272650113086
    DFT Exchange-Correlation Energy =      -8.9527555091337270
    Empirical Dispersion Energy =           0.0000000000000000
    VV10 Nonlocal Energy =                  0.0584331706467383
    Total Energy =                        -93.3995228160852804

Computation Completed


Properties will be evaluated at   0.000000,   0.000000,   0.000000 [a0]

Properties computed using the SCF density matrix

  Nuclear Dipole Moment: [e a0]
     X:     0.0000      Y:     0.0000      Z:    -1.5265

  Electronic Dipole Moment: [e a0]
     X:     0.0000      Y:     0.0000      Z:     0.4176

  Dipole Moment: [e a0]
     X:     0.0000      Y:     0.0000      Z:    -1.1089     Total:     1.1089

  Dipole Moment: [D]
     X:     0.0000      Y:     0.0000      Z:    -2.8185     Total:     2.8185


*** tstop() called on bp1-compute00115.data.bp.acrc.priv at Tue Apr 27 18:11:38 2021
Module time:
	user time   =      63.41 seconds =       1.06 minutes
	system time =       2.65 seconds =       0.04 minutes
	total time  =          3 seconds =       0.05 minutes
Total time:
	user time   =      63.41 seconds =       1.06 minutes
	system time =       2.65 seconds =       0.04 minutes
	total time  =          3 seconds =       0.05 minutes

  //>>>>>>>>>>>>>>>>>>>>>>>>>>>>>>>>>>>//
  //    Loading displacement 2 of 5    //
  //<<<<<<<<<<<<<<<<<<<<<<<<<<<<<<<<<<<//

*** tstart() called on bp1-compute00115.data.bp.acrc.priv
*** at Tue Apr 27 18:11:38 2021

   => Loading Basis Set <=

    Name: CC-PV(D+D)Z
    Role: ORBITAL
    Keyword: BASIS
    atoms 1 entry H          line    31 file /work/zw18965/.conda/envs/p4env/share/psi4/basis/cc-pv_dpd_z.gbs 
    atoms 2 entry C          line   147 file /work/zw18965/.conda/envs/p4env/share/psi4/basis/cc-pv_dpd_z.gbs 
    atoms 3 entry N          line   177 file /work/zw18965/.conda/envs/p4env/share/psi4/basis/cc-pv_dpd_z.gbs 


         ---------------------------------------------------------
                                   SCF
               by Justin Turney, Rob Parrish, Andy Simmonett
                          and Daniel G. A. Smith
                              RKS Reference
                       24 Threads, 137329 MiB Core
         ---------------------------------------------------------

  ==> Geometry <==

    Molecular point group: c2v
    Full point group: C_inf_v

    Geometry (in Angstrom), charge = 0, multiplicity = 1:

       Center              X                  Y                   Z               Mass       
    ------------   -----------------  -----------------  -----------------  -----------------
         H            0.000000000000     0.000000000000    -1.629086210919     1.007825032230
         C            0.000000000000     0.000000000000    -0.559600027028    12.000000000000
         N            0.000000000000     0.000000000000     0.596799972972    14.003074004430

  Running in c2v symmetry.

  Rotational constants: A = ************  B =      1.47615  C =      1.47615 [cm^-1]
  Rotational constants: A = ************  B =  44253.88092  C =  44253.88092 [MHz]
  Nuclear repulsion =   23.852450107742836

  Charge       = 0
  Multiplicity = 1
  Electrons    = 14
  Nalpha       = 7
  Nbeta        = 7

  ==> Algorithm <==

  SCF Algorithm Type is DF.
  DIIS enabled.
  MOM disabled.
  Fractional occupation disabled.
  Guess Type is SAD.
  Energy threshold   = 1.00e-08
  Density threshold  = 1.00e-08
  Integral threshold = 0.00e+00

  ==> Primary Basis <==

  Basis Set: CC-PV(D+D)Z
    Blend: CC-PV(D+D)Z
    Number of shells: 15
    Number of basis function: 33
    Number of Cartesian functions: 35
    Spherical Harmonics?: true
    Max angular momentum: 2

  ==> DFT Potential <==

   => Composite Functional: WB97M-V <= 

    wB97M-V Hyb-GGA Exchange-Correlation Functional

    N. Mardirossian and M. Head-Gordon, J. Chem. Phys. 144, 214110 (2016)

    Deriv               =              1
    GGA                 =           TRUE
    Meta                =           TRUE

    Exchange Hybrid     =           TRUE
    MP2 Hybrid          =          FALSE

   => Exchange-Correlation Functionals <=

    1.0000   wB97M-V exchange-correlation functional

   => Exact (HF) Exchange <=

    0.8500            HF,LR [omega = 0.3000]
    0.1500               HF 

   => VV10 Non-Local Parameters <=

    VV10 B              =     6.0000E+00
    VV10 C              =     1.0000E-02

   => Molecular Quadrature <=

    Radial Scheme          =       TREUTLER
    Pruning Scheme         =           FLAT
    Nuclear Scheme         =       TREUTLER

    BS radius alpha        =              1
    Pruning alpha          =              1
    Radial Points          =             75
    Spherical Points       =            302
    Total Points           =          65537
    Total Blocks           =            562
    Max Points             =            256
    Max Functions          =             33

   => Loading Basis Set <=

    Name: (CC-PV(D+D)Z AUX)
    Role: JKFIT
    Keyword: DF_BASIS_SCF
    atoms 1 entry H          line    51 file /work/zw18965/.conda/envs/p4env/share/psi4/basis/cc-pvdz-jkfit.gbs 
    atoms 2 entry C          line   121 file /work/zw18965/.conda/envs/p4env/share/psi4/basis/cc-pvdz-jkfit.gbs 
    atoms 3 entry N          line   171 file /work/zw18965/.conda/envs/p4env/share/psi4/basis/cc-pvdz-jkfit.gbs 

  ==> Pre-Iterations <==

   -------------------------------------------------------
    Irrep   Nso     Nmo     Nalpha   Nbeta   Ndocc  Nsocc
   -------------------------------------------------------
     A1        17      17       0       0       0       0
     A2         2       2       0       0       0       0
     B1         7       7       0       0       0       0
     B2         7       7       0       0       0       0
   -------------------------------------------------------
    Total      33      33       7       7       7       0
   -------------------------------------------------------

  ==> Integral Setup <==

  ==> DiskDFJK: Density-Fitted J/K Matrices <==

    J tasked:                  Yes
    K tasked:                  Yes
    wK tasked:                 Yes
    Omega:               3.000E-01
    OpenMP threads:             24
    Integrals threads:          24
    Memory [MiB]:           102840
    Algorithm:                Core
    Integral Cache:           NONE
    Schwarz Cutoff:          1E-12
    Fitting Condition:       1E-10

   => Auxiliary Basis Set <=

  Basis Set: (CC-PV(D+D)Z AUX)
    Blend: CC-PVDZ-JKFIT
    Number of shells: 57
    Number of basis function: 163
    Number of Cartesian functions: 187
    Spherical Harmonics?: true
    Max angular momentum: 3

  Cached 100.0% of DFT collocation blocks in 0.152 [GiB].

  Minimum eigenvalue in the overlap matrix is 7.6502924007E-03.
  Using Symmetric Orthogonalization.

  SCF Guess: Superposition of Atomic Densities via on-the-fly atomic UHF.

  ==> Iterations <==

                           Total Energy        Delta E     RMS |[F,P]|

   @DF-RKS iter SAD:   -92.62030865433628   -9.26203e+01   0.00000e+00 
   @DF-RKS iter   1:   -93.33037922525533   -7.10071e-01   1.91458e-02 DIIS
   @DF-RKS iter   2:   -93.29094343428559    3.94358e-02   2.52835e-02 DIIS
   @DF-RKS iter   3:   -93.39851984445859   -1.07576e-01   2.24256e-03 DIIS
   @DF-RKS iter   4:   -93.39952286190426   -1.00302e-03   4.23550e-04 DIIS
   @DF-RKS iter   5:   -93.39955353359485   -3.06717e-05   7.59405e-05 DIIS
   @DF-RKS iter   6:   -93.39955475563161   -1.22204e-06   1.22858e-05 DIIS
   @DF-RKS iter   7:   -93.39955480453816   -4.89065e-08   8.96444e-07 DIIS
   @DF-RKS iter   8:   -93.39955480500379   -4.65633e-10   1.08441e-07 DIIS
   @DF-RKS iter   9:   -93.39955480501048   -6.69331e-12   1.36861e-08 DIIS
   @DF-RKS iter  10:   -93.39955480501057   -8.52651e-14   9.86676e-10 DIIS
  Energy and wave function converged.


  ==> Post-Iterations <==

    Orbital Energies [Eh]
    ---------------------

    Doubly Occupied:                                                      

       1A1   -14.544116     2A1   -10.413113     3A1    -1.044607  
       4A1    -0.711980     5A1    -0.488897     1B1    -0.460676  
       1B2    -0.460676  

    Virtual:                                                              

       2B2     0.116131     2B1     0.116131     6A1     0.135313  
       7A1     0.281838     3B1     0.562316     3B2     0.562316  
       8A1     0.634142     9A1     0.765580    10A1     0.823979  
       4B1     0.898670     4B2     0.898670    11A1     1.095093  
       5B2     1.177566     5B1     1.177566     1A2     1.194713  
      12A1     1.194714    13A1     1.529816     6B2     1.813030  
       6B1     1.813030    14A1     1.982910     2A2     1.982910  
      15A1     2.160477     7B2     2.655452     7B1     2.655452  
      16A1     2.907343    17A1     3.125263  

    Final Occupation by Irrep:
             A1    A2    B1    B2 
    DOCC [     5,    0,    1,    1 ]

  @DF-RKS Final Energy:   -93.39955480501057

   => Energetics <=

    Nuclear Repulsion Energy =             23.8524501077428361
    One-Electron Energy =                -172.6551255919987966
    Two-Electron Energy =                  64.2966798516916356
    DFT Exchange-Correlation Energy =      -8.9519910500430839
    Empirical Dispersion Energy =           0.0000000000000000
    VV10 Nonlocal Energy =                  0.0584318775968370
    Total Energy =                        -93.3995548050105810

Computation Completed


Properties will be evaluated at   0.000000,   0.000000,   0.000000 [a0]

Properties computed using the SCF density matrix

  Nuclear Dipole Moment: [e a0]
     X:     0.0000      Y:     0.0000      Z:    -1.5290

  Electronic Dipole Moment: [e a0]
     X:     0.0000      Y:     0.0000      Z:     0.4188

  Dipole Moment: [e a0]
     X:     0.0000      Y:     0.0000      Z:    -1.1102     Total:     1.1102

  Dipole Moment: [D]
     X:     0.0000      Y:     0.0000      Z:    -2.8218     Total:     2.8218


*** tstop() called on bp1-compute00115.data.bp.acrc.priv at Tue Apr 27 18:11:40 2021
Module time:
	user time   =      62.49 seconds =       1.04 minutes
	system time =       2.27 seconds =       0.04 minutes
	total time  =          2 seconds =       0.03 minutes
Total time:
	user time   =     126.03 seconds =       2.10 minutes
	system time =       4.93 seconds =       0.08 minutes
	total time  =          5 seconds =       0.08 minutes

  //>>>>>>>>>>>>>>>>>>>>>>>>>>>>>>>>>>>//
  //    Loading displacement 3 of 5    //
  //<<<<<<<<<<<<<<<<<<<<<<<<<<<<<<<<<<<//

*** tstart() called on bp1-compute00115.data.bp.acrc.priv
*** at Tue Apr 27 18:11:40 2021

   => Loading Basis Set <=

    Name: CC-PV(D+D)Z
    Role: ORBITAL
    Keyword: BASIS
    atoms 1 entry H          line    31 file /work/zw18965/.conda/envs/p4env/share/psi4/basis/cc-pv_dpd_z.gbs 
    atoms 2 entry C          line   147 file /work/zw18965/.conda/envs/p4env/share/psi4/basis/cc-pv_dpd_z.gbs 
    atoms 3 entry N          line   177 file /work/zw18965/.conda/envs/p4env/share/psi4/basis/cc-pv_dpd_z.gbs 


         ---------------------------------------------------------
                                   SCF
               by Justin Turney, Rob Parrish, Andy Simmonett
                          and Daniel G. A. Smith
                              RKS Reference
                       24 Threads, 137329 MiB Core
         ---------------------------------------------------------

  ==> Geometry <==

    Molecular point group: c2v
    Full point group: C_inf_v

    Geometry (in Angstrom), charge = 0, multiplicity = 1:

       Center              X                  Y                   Z               Mass       
    ------------   -----------------  -----------------  -----------------  -----------------
         H            0.000000000000     0.000000000000    -1.623914295803     1.007825032230
         C            0.000000000000     0.000000000000    -0.559800479695    12.000000000000
         N            0.000000000000     0.000000000000     0.596599520305    14.003074004430

  Running in c2v symmetry.

  Rotational constants: A = ************  B =      1.47843  C =      1.47843 [cm^-1]
  Rotational constants: A = ************  B =  44322.23916  C =  44322.23916 [MHz]
  Nuclear repulsion =   23.871464815116820

  Charge       = 0
  Multiplicity = 1
  Electrons    = 14
  Nalpha       = 7
  Nbeta        = 7

  ==> Algorithm <==

  SCF Algorithm Type is DF.
  DIIS enabled.
  MOM disabled.
  Fractional occupation disabled.
  Guess Type is SAD.
  Energy threshold   = 1.00e-08
  Density threshold  = 1.00e-08
  Integral threshold = 0.00e+00

  ==> Primary Basis <==

  Basis Set: CC-PV(D+D)Z
    Blend: CC-PV(D+D)Z
    Number of shells: 15
    Number of basis function: 33
    Number of Cartesian functions: 35
    Spherical Harmonics?: true
    Max angular momentum: 2

  ==> DFT Potential <==

   => Composite Functional: WB97M-V <= 

    wB97M-V Hyb-GGA Exchange-Correlation Functional

    N. Mardirossian and M. Head-Gordon, J. Chem. Phys. 144, 214110 (2016)

    Deriv               =              1
    GGA                 =           TRUE
    Meta                =           TRUE

    Exchange Hybrid     =           TRUE
    MP2 Hybrid          =          FALSE

   => Exchange-Correlation Functionals <=

    1.0000   wB97M-V exchange-correlation functional

   => Exact (HF) Exchange <=

    0.8500            HF,LR [omega = 0.3000]
    0.1500               HF 

   => VV10 Non-Local Parameters <=

    VV10 B              =     6.0000E+00
    VV10 C              =     1.0000E-02

   => Molecular Quadrature <=

    Radial Scheme          =       TREUTLER
    Pruning Scheme         =           FLAT
    Nuclear Scheme         =       TREUTLER

    BS radius alpha        =              1
    Pruning alpha          =              1
    Radial Points          =             75
    Spherical Points       =            302
    Total Points           =          65537
    Total Blocks           =            564
    Max Points             =            256
    Max Functions          =             33

   => Loading Basis Set <=

    Name: (CC-PV(D+D)Z AUX)
    Role: JKFIT
    Keyword: DF_BASIS_SCF
    atoms 1 entry H          line    51 file /work/zw18965/.conda/envs/p4env/share/psi4/basis/cc-pvdz-jkfit.gbs 
    atoms 2 entry C          line   121 file /work/zw18965/.conda/envs/p4env/share/psi4/basis/cc-pvdz-jkfit.gbs 
    atoms 3 entry N          line   171 file /work/zw18965/.conda/envs/p4env/share/psi4/basis/cc-pvdz-jkfit.gbs 

  ==> Pre-Iterations <==

   -------------------------------------------------------
    Irrep   Nso     Nmo     Nalpha   Nbeta   Ndocc  Nsocc
   -------------------------------------------------------
     A1        17      17       0       0       0       0
     A2         2       2       0       0       0       0
     B1         7       7       0       0       0       0
     B2         7       7       0       0       0       0
   -------------------------------------------------------
    Total      33      33       7       7       7       0
   -------------------------------------------------------

  ==> Integral Setup <==

  ==> DiskDFJK: Density-Fitted J/K Matrices <==

    J tasked:                  Yes
    K tasked:                  Yes
    wK tasked:                 Yes
    Omega:               3.000E-01
    OpenMP threads:             24
    Integrals threads:          24
    Memory [MiB]:           102840
    Algorithm:                Core
    Integral Cache:           NONE
    Schwarz Cutoff:          1E-12
    Fitting Condition:       1E-10

   => Auxiliary Basis Set <=

  Basis Set: (CC-PV(D+D)Z AUX)
    Blend: CC-PVDZ-JKFIT
    Number of shells: 57
    Number of basis function: 163
    Number of Cartesian functions: 187
    Spherical Harmonics?: true
    Max angular momentum: 3

  Cached 100.0% of DFT collocation blocks in 0.152 [GiB].

  Minimum eigenvalue in the overlap matrix is 7.6545674677E-03.
  Using Symmetric Orthogonalization.

  SCF Guess: Superposition of Atomic Densities via on-the-fly atomic UHF.

  ==> Iterations <==

                           Total Energy        Delta E     RMS |[F,P]|

   @DF-RKS iter SAD:   -92.62168635234340   -9.26217e+01   0.00000e+00 
   @DF-RKS iter   1:   -93.33088282108341   -7.09196e-01   1.90660e-02 DIIS
   @DF-RKS iter   2:   -93.29211807764166    3.87647e-02   2.51433e-02 DIIS
   @DF-RKS iter   3:   -93.39844509615961   -1.06327e-01   2.24450e-03 DIIS
   @DF-RKS iter   4:   -93.39944809490417   -1.00300e-03   4.21609e-04 DIIS
   @DF-RKS iter   5:   -93.39947849166229   -3.03968e-05   7.54399e-05 DIIS
   @DF-RKS iter   6:   -93.39947969711891   -1.20546e-06   1.21265e-05 DIIS
   @DF-RKS iter   7:   -93.39947974475267   -4.76338e-08   8.84405e-07 DIIS
   @DF-RKS iter   8:   -93.39947974520560   -4.52928e-10   1.08469e-07 DIIS
   @DF-RKS iter   9:   -93.39947974521220   -6.60805e-12   1.33262e-08 DIIS
   @DF-RKS iter  10:   -93.39947974521223   -2.84217e-14   9.65563e-10 DIIS
  Energy and wave function converged.


  ==> Post-Iterations <==

    Orbital Energies [Eh]
    ---------------------

    Doubly Occupied:                                                      

       1A1   -14.544198     2A1   -10.412790     3A1    -1.044676  
       4A1    -0.713570     5A1    -0.489020     1B2    -0.460762  
       1B1    -0.460762  

    Virtual:                                                              

       2B1     0.116021     2B2     0.116021     6A1     0.136508  
       7A1     0.281834     3B2     0.562278     3B1     0.562278  
       8A1     0.635346     9A1     0.765491    10A1     0.825023  
       4B2     0.898587     4B1     0.898587    11A1     1.097786  
       5B1     1.178370     5B2     1.178370     1A2     1.194609  
      12A1     1.194609    13A1     1.529273     6B1     1.816419  
       6B2     1.816419    14A1     1.982820     2A2     1.982820  
      15A1     2.170056     7B2     2.658127     7B1     2.658127  
      16A1     2.907274    17A1     3.135240  

    Final Occupation by Irrep:
             A1    A2    B1    B2 
    DOCC [     5,    0,    1,    1 ]

  @DF-RKS Final Energy:   -93.39947974521223

   => Energetics <=

    Nuclear Repulsion Energy =             23.8714648151168198
    One-Electron Energy =                -172.6886589917247647
    Two-Electron Energy =                  64.3128035404005800
    DFT Exchange-Correlation Energy =      -8.9535235780054450
    Empirical Dispersion Energy =           0.0000000000000000
    VV10 Nonlocal Energy =                  0.0584344690005844
    Total Energy =                        -93.3994797452122327

Computation Completed


Properties will be evaluated at   0.000000,   0.000000,   0.000000 [a0]

Properties computed using the SCF density matrix

  Nuclear Dipole Moment: [e a0]
     X:     0.0000      Y:     0.0000      Z:    -1.5241

  Electronic Dipole Moment: [e a0]
     X:     0.0000      Y:     0.0000      Z:     0.4165

  Dipole Moment: [e a0]
     X:     0.0000      Y:     0.0000      Z:    -1.1076     Total:     1.1076

  Dipole Moment: [D]
     X:     0.0000      Y:     0.0000      Z:    -2.8152     Total:     2.8152


*** tstop() called on bp1-compute00115.data.bp.acrc.priv at Tue Apr 27 18:11:43 2021
Module time:
	user time   =      59.63 seconds =       0.99 minutes
	system time =       1.99 seconds =       0.03 minutes
	total time  =          3 seconds =       0.05 minutes
Total time:
	user time   =     185.80 seconds =       3.10 minutes
	system time =       6.92 seconds =       0.12 minutes
	total time  =          8 seconds =       0.13 minutes

  //>>>>>>>>>>>>>>>>>>>>>>>>>>>>>>>>>>>//
  //    Loading displacement 4 of 5    //
  //<<<<<<<<<<<<<<<<<<<<<<<<<<<<<<<<<<<//

*** tstart() called on bp1-compute00115.data.bp.acrc.priv
*** at Tue Apr 27 18:11:43 2021

   => Loading Basis Set <=

    Name: CC-PV(D+D)Z
    Role: ORBITAL
    Keyword: BASIS
    atoms 1 entry H          line    31 file /work/zw18965/.conda/envs/p4env/share/psi4/basis/cc-pv_dpd_z.gbs 
    atoms 2 entry C          line   147 file /work/zw18965/.conda/envs/p4env/share/psi4/basis/cc-pv_dpd_z.gbs 
    atoms 3 entry N          line   177 file /work/zw18965/.conda/envs/p4env/share/psi4/basis/cc-pv_dpd_z.gbs 


         ---------------------------------------------------------
                                   SCF
               by Justin Turney, Rob Parrish, Andy Simmonett
                          and Daniel G. A. Smith
                              RKS Reference
                       24 Threads, 137329 MiB Core
         ---------------------------------------------------------

  ==> Geometry <==

    Molecular point group: c2v
    Full point group: C_inf_v

    Geometry (in Angstrom), charge = 0, multiplicity = 1:

       Center              X                  Y                   Z               Mass       
    ------------   -----------------  -----------------  -----------------  -----------------
         H            0.000000000000     0.000000000000    -1.626500253361     1.007825032230
         C            0.000000000000     0.000000000000    -0.560260758838    12.000000000000
         N            0.000000000000     0.000000000000     0.597180074437    14.003074004430

  Running in c2v symmetry.

  Rotational constants: A = ************  B =      1.47528  C =      1.47528 [cm^-1]
  Rotational constants: A = ************  B =  44227.74118  C =  44227.74118 [MHz]
  Nuclear repulsion =   23.845857601427369

  Charge       = 0
  Multiplicity = 1
  Electrons    = 14
  Nalpha       = 7
  Nbeta        = 7

  ==> Algorithm <==

  SCF Algorithm Type is DF.
  DIIS enabled.
  MOM disabled.
  Fractional occupation disabled.
  Guess Type is SAD.
  Energy threshold   = 1.00e-08
  Density threshold  = 1.00e-08
  Integral threshold = 0.00e+00

  ==> Primary Basis <==

  Basis Set: CC-PV(D+D)Z
    Blend: CC-PV(D+D)Z
    Number of shells: 15
    Number of basis function: 33
    Number of Cartesian functions: 35
    Spherical Harmonics?: true
    Max angular momentum: 2

  ==> DFT Potential <==

   => Composite Functional: WB97M-V <= 

    wB97M-V Hyb-GGA Exchange-Correlation Functional

    N. Mardirossian and M. Head-Gordon, J. Chem. Phys. 144, 214110 (2016)

    Deriv               =              1
    GGA                 =           TRUE
    Meta                =           TRUE

    Exchange Hybrid     =           TRUE
    MP2 Hybrid          =          FALSE

   => Exchange-Correlation Functionals <=

    1.0000   wB97M-V exchange-correlation functional

   => Exact (HF) Exchange <=

    0.8500            HF,LR [omega = 0.3000]
    0.1500               HF 

   => VV10 Non-Local Parameters <=

    VV10 B              =     6.0000E+00
    VV10 C              =     1.0000E-02

   => Molecular Quadrature <=

    Radial Scheme          =       TREUTLER
    Pruning Scheme         =           FLAT
    Nuclear Scheme         =       TREUTLER

    BS radius alpha        =              1
    Pruning alpha          =              1
    Radial Points          =             75
    Spherical Points       =            302
    Total Points           =          65537
    Total Blocks           =            564
    Max Points             =            256
    Max Functions          =             33

   => Loading Basis Set <=

    Name: (CC-PV(D+D)Z AUX)
    Role: JKFIT
    Keyword: DF_BASIS_SCF
    atoms 1 entry H          line    51 file /work/zw18965/.conda/envs/p4env/share/psi4/basis/cc-pvdz-jkfit.gbs 
    atoms 2 entry C          line   121 file /work/zw18965/.conda/envs/p4env/share/psi4/basis/cc-pvdz-jkfit.gbs 
    atoms 3 entry N          line   171 file /work/zw18965/.conda/envs/p4env/share/psi4/basis/cc-pvdz-jkfit.gbs 

  ==> Pre-Iterations <==

   -------------------------------------------------------
    Irrep   Nso     Nmo     Nalpha   Nbeta   Ndocc  Nsocc
   -------------------------------------------------------
     A1        17      17       0       0       0       0
     A2         2       2       0       0       0       0
     B1         7       7       0       0       0       0
     B2         7       7       0       0       0       0
   -------------------------------------------------------
    Total      33      33       7       7       7       0
   -------------------------------------------------------

  ==> Integral Setup <==

  ==> DiskDFJK: Density-Fitted J/K Matrices <==

    J tasked:                  Yes
    K tasked:                  Yes
    wK tasked:                 Yes
    Omega:               3.000E-01
    OpenMP threads:             24
    Integrals threads:          24
    Memory [MiB]:           102840
    Algorithm:                Core
    Integral Cache:           NONE
    Schwarz Cutoff:          1E-12
    Fitting Condition:       1E-10

   => Auxiliary Basis Set <=

  Basis Set: (CC-PV(D+D)Z AUX)
    Blend: CC-PVDZ-JKFIT
    Number of shells: 57
    Number of basis function: 163
    Number of Cartesian functions: 187
    Spherical Harmonics?: true
    Max angular momentum: 3

  Cached 100.0% of DFT collocation blocks in 0.152 [GiB].

  Minimum eigenvalue in the overlap matrix is 7.6648177284E-03.
  Using Symmetric Orthogonalization.

  SCF Guess: Superposition of Atomic Densities via on-the-fly atomic UHF.

  ==> Iterations <==

                           Total Energy        Delta E     RMS |[F,P]|

   @DF-RKS iter SAD:   -92.61954294555312   -9.26195e+01   0.00000e+00 
   @DF-RKS iter   1:   -93.33078842254824   -7.11245e-01   1.90804e-02 DIIS
   @DF-RKS iter   2:   -93.29135509279200    3.94333e-02   2.52286e-02 DIIS
   @DF-RKS iter   3:   -93.39847393735525   -1.07119e-01   2.23992e-03 DIIS
   @DF-RKS iter   4:   -93.39947416729144   -1.00023e-03   4.22978e-04 DIIS
   @DF-RKS iter   5:   -93.39950476528533   -3.05980e-05   7.58555e-05 DIIS
   @DF-RKS iter   6:   -93.39950598356891   -1.21828e-06   1.22393e-05 DIIS
   @DF-RKS iter   7:   -93.39950603200273   -4.84338e-08   8.91815e-07 DIIS
   @DF-RKS iter   8:   -93.39950603246407   -4.61341e-10   1.09196e-07 DIIS
   @DF-RKS iter   9:   -93.39950603247077   -6.69331e-12   1.34223e-08 DIIS
   @DF-RKS iter  10:   -93.39950603247094   -1.70530e-13   9.73511e-10 DIIS
  Energy and wave function converged.


  ==> Post-Iterations <==

    Orbital Energies [Eh]
    ---------------------

    Doubly Occupied:                                                      

       1A1   -14.544465     2A1   -10.413191     3A1    -1.044262  
       4A1    -0.713047     5A1    -0.489048     1B1    -0.460489  
       1B2    -0.460489  

    Virtual:                                                              

       2B1     0.115685     2B2     0.115685     6A1     0.135981  
       7A1     0.281778     3B2     0.562338     3B1     0.562338  
       8A1     0.634810     9A1     0.765356    10A1     0.824538  
       4B2     0.898551     4B1     0.898551    11A1     1.095143  
       5B2     1.177657     5B1     1.177657     1A2     1.194712  
      12A1     1.194713    13A1     1.529265     6B2     1.814407  
       6B1     1.814407    14A1     1.982454     2A2     1.982455  
      15A1     2.165204     7B2     2.656100     7B1     2.656100  
      16A1     2.905658    17A1     3.129150  

    Final Occupation by Irrep:
             A1    A2    B1    B2 
    DOCC [     5,    0,    1,    1 ]

  @DF-RKS Final Energy:   -93.39950603247094

   => Energetics <=

    Nuclear Repulsion Energy =             23.8458576014273689
    One-Electron Energy =                -172.6399613584674455
    Two-Electron Energy =                  64.2881764155420257
    DFT Exchange-Correlation Energy =      -8.9520116601446134
    Empirical Dispersion Energy =           0.0000000000000000
    VV10 Nonlocal Energy =                  0.0584329691717316
    Total Energy =                        -93.3995060324709385

Computation Completed


Properties will be evaluated at   0.000000,   0.000000,   0.000000 [a0]

Properties computed using the SCF density matrix

  Nuclear Dipole Moment: [e a0]
     X:     0.0000      Y:     0.0000      Z:    -1.5265

  Electronic Dipole Moment: [e a0]
     X:     0.0000      Y:     0.0000      Z:     0.4179

  Dipole Moment: [e a0]
     X:     0.0000      Y:     0.0000      Z:    -1.1087     Total:     1.1087

  Dipole Moment: [D]
     X:     0.0000      Y:     0.0000      Z:    -2.8179     Total:     2.8179


*** tstop() called on bp1-compute00115.data.bp.acrc.priv at Tue Apr 27 18:11:46 2021
Module time:
	user time   =      59.91 seconds =       1.00 minutes
	system time =       2.09 seconds =       0.03 minutes
	total time  =          3 seconds =       0.05 minutes
Total time:
	user time   =     245.84 seconds =       4.10 minutes
	system time =       9.01 seconds =       0.15 minutes
	total time  =         11 seconds =       0.18 minutes

  //>>>>>>>>>>>>>>>>>>>>>>>>>>>>>>>>>>>//
  //    Loading displacement 5 of 5    //
  //<<<<<<<<<<<<<<<<<<<<<<<<<<<<<<<<<<<//

*** tstart() called on bp1-compute00115.data.bp.acrc.priv
*** at Tue Apr 27 18:11:46 2021

   => Loading Basis Set <=

    Name: CC-PV(D+D)Z
    Role: ORBITAL
    Keyword: BASIS
    atoms 1 entry H          line    31 file /work/zw18965/.conda/envs/p4env/share/psi4/basis/cc-pv_dpd_z.gbs 
    atoms 2 entry C          line   147 file /work/zw18965/.conda/envs/p4env/share/psi4/basis/cc-pv_dpd_z.gbs 
    atoms 3 entry N          line   177 file /work/zw18965/.conda/envs/p4env/share/psi4/basis/cc-pv_dpd_z.gbs 


         ---------------------------------------------------------
                                   SCF
               by Justin Turney, Rob Parrish, Andy Simmonett
                          and Daniel G. A. Smith
                              RKS Reference
                       24 Threads, 137329 MiB Core
         ---------------------------------------------------------

  ==> Geometry <==

    Molecular point group: c2v
    Full point group: C_inf_v

    Geometry (in Angstrom), charge = 0, multiplicity = 1:

       Center              X                  Y                   Z               Mass       
    ------------   -----------------  -----------------  -----------------  -----------------
         H            0.000000000000     0.000000000000    -1.626500253361     1.007825032230
         C            0.000000000000     0.000000000000    -0.559139747885    12.000000000000
         N            0.000000000000     0.000000000000     0.596219418840    14.003074004430

  Running in c2v symmetry.

  Rotational constants: A = ************  B =      1.47931  C =      1.47931 [cm^-1]
  Rotational constants: A = ************  B =  44348.49075  C =  44348.49075 [MHz]
  Nuclear repulsion =   23.878047654907576

  Charge       = 0
  Multiplicity = 1
  Electrons    = 14
  Nalpha       = 7
  Nbeta        = 7

  ==> Algorithm <==

  SCF Algorithm Type is DF.
  DIIS enabled.
  MOM disabled.
  Fractional occupation disabled.
  Guess Type is SAD.
  Energy threshold   = 1.00e-08
  Density threshold  = 1.00e-08
  Integral threshold = 0.00e+00

  ==> Primary Basis <==

  Basis Set: CC-PV(D+D)Z
    Blend: CC-PV(D+D)Z
    Number of shells: 15
    Number of basis function: 33
    Number of Cartesian functions: 35
    Spherical Harmonics?: true
    Max angular momentum: 2

  ==> DFT Potential <==

   => Composite Functional: WB97M-V <= 

    wB97M-V Hyb-GGA Exchange-Correlation Functional

    N. Mardirossian and M. Head-Gordon, J. Chem. Phys. 144, 214110 (2016)

    Deriv               =              1
    GGA                 =           TRUE
    Meta                =           TRUE

    Exchange Hybrid     =           TRUE
    MP2 Hybrid          =          FALSE

   => Exchange-Correlation Functionals <=

    1.0000   wB97M-V exchange-correlation functional

   => Exact (HF) Exchange <=

    0.8500            HF,LR [omega = 0.3000]
    0.1500               HF 

   => VV10 Non-Local Parameters <=

    VV10 B              =     6.0000E+00
    VV10 C              =     1.0000E-02

   => Molecular Quadrature <=

    Radial Scheme          =       TREUTLER
    Pruning Scheme         =           FLAT
    Nuclear Scheme         =       TREUTLER

    BS radius alpha        =              1
    Pruning alpha          =              1
    Radial Points          =             75
    Spherical Points       =            302
    Total Points           =          65537
    Total Blocks           =            561
    Max Points             =            256
    Max Functions          =             33

   => Loading Basis Set <=

    Name: (CC-PV(D+D)Z AUX)
    Role: JKFIT
    Keyword: DF_BASIS_SCF
    atoms 1 entry H          line    51 file /work/zw18965/.conda/envs/p4env/share/psi4/basis/cc-pvdz-jkfit.gbs 
    atoms 2 entry C          line   121 file /work/zw18965/.conda/envs/p4env/share/psi4/basis/cc-pvdz-jkfit.gbs 
    atoms 3 entry N          line   171 file /work/zw18965/.conda/envs/p4env/share/psi4/basis/cc-pvdz-jkfit.gbs 

  ==> Pre-Iterations <==

   -------------------------------------------------------
    Irrep   Nso     Nmo     Nalpha   Nbeta   Ndocc  Nsocc
   -------------------------------------------------------
     A1        17      17       0       0       0       0
     A2         2       2       0       0       0       0
     B1         7       7       0       0       0       0
     B2         7       7       0       0       0       0
   -------------------------------------------------------
    Total      33      33       7       7       7       0
   -------------------------------------------------------

  ==> Integral Setup <==

  ==> DiskDFJK: Density-Fitted J/K Matrices <==

    J tasked:                  Yes
    K tasked:                  Yes
    wK tasked:                 Yes
    Omega:               3.000E-01
    OpenMP threads:             24
    Integrals threads:          24
    Memory [MiB]:           102840
    Algorithm:                Core
    Integral Cache:           NONE
    Schwarz Cutoff:          1E-12
    Fitting Condition:       1E-10

   => Auxiliary Basis Set <=

  Basis Set: (CC-PV(D+D)Z AUX)
    Blend: CC-PVDZ-JKFIT
    Number of shells: 57
    Number of basis function: 163
    Number of Cartesian functions: 187
    Spherical Harmonics?: true
    Max angular momentum: 3

  Cached 100.0% of DFT collocation blocks in 0.152 [GiB].

  Minimum eigenvalue in the overlap matrix is 7.6400254296E-03.
  Using Symmetric Orthogonalization.

  SCF Guess: Superposition of Atomic Densities via on-the-fly atomic UHF.

  ==> Iterations <==

                           Total Energy        Delta E     RMS |[F,P]|

   @DF-RKS iter SAD:   -92.62245888250165   -9.26225e+01   0.00000e+00 
   @DF-RKS iter   1:   -93.33047746798852   -7.08019e-01   1.91318e-02 DIIS
   @DF-RKS iter   2:   -93.29170848634510    3.87690e-02   2.51988e-02 DIIS
   @DF-RKS iter   3:   -93.39849650050753   -1.06788e-01   2.24705e-03 DIIS
   @DF-RKS iter   4:   -93.39950220321431   -1.00570e-03   4.22178e-04 DIIS
   @DF-RKS iter   5:   -93.39953267227642   -3.04691e-05   7.55244e-05 DIIS
   @DF-RKS iter   6:   -93.39953388140712   -1.20913e-06   1.21730e-05 DIIS
   @DF-RKS iter   7:   -93.39953392950618   -4.80991e-08   8.88985e-07 DIIS
   @DF-RKS iter   8:   -93.39953392996333   -4.57149e-10   1.07713e-07 DIIS
   @DF-RKS iter   9:   -93.39953392996991   -6.57963e-12   1.35878e-08 DIIS
   @DF-RKS iter  10:   -93.39953392996996   -5.68434e-14   9.78619e-10 DIIS
  Energy and wave function converged.


  ==> Post-Iterations <==

    Orbital Energies [Eh]
    ---------------------

    Doubly Occupied:                                                      

       1A1   -14.543849     2A1   -10.412712     3A1    -1.045020  
       4A1    -0.712500     5A1    -0.488869     1B2    -0.460949  
       1B1    -0.460949  

    Virtual:                                                              

       2B1     0.116468     2B2     0.116468     6A1     0.135845  
       7A1     0.281890     3B2     0.562256     3B1     0.562256  
       8A1     0.634675     9A1     0.765714    10A1     0.824458  
       4B2     0.898706     4B1     0.898706    11A1     1.097733  
       5B1     1.178275     5B2     1.178275     1A2     1.194610  
      12A1     1.194610    13A1     1.529826     6B1     1.815040  
       6B2     1.815040    14A1     1.983276     2A2     1.983277  
      15A1     2.165308     7B1     2.657474     7B2     2.657474  
      16A1     2.908964    17A1     3.131289  

    Final Occupation by Irrep:
             A1    A2    B1    B2 
    DOCC [     5,    0,    1,    1 ]

  @DF-RKS Final Energy:   -93.39953392996996

   => Energetics <=

    Nuclear Repulsion Energy =             23.8780476549075757
    One-Electron Energy =                -172.7038196806546182
    Two-Electron Energy =                  64.3213063325358974
    DFT Exchange-Correlation Energy =      -8.9535016121047981
    Empirical Dispersion Energy =           0.0000000000000000
    VV10 Nonlocal Energy =                  0.0584333753459593
    Total Energy =                        -93.3995339299699765

Computation Completed


Properties will be evaluated at   0.000000,   0.000000,   0.000000 [a0]

Properties computed using the SCF density matrix

  Nuclear Dipole Moment: [e a0]
     X:     0.0000      Y:     0.0000      Z:    -1.5265

  Electronic Dipole Moment: [e a0]
     X:     0.0000      Y:     0.0000      Z:     0.4174

  Dipole Moment: [e a0]
     X:     0.0000      Y:     0.0000      Z:    -1.1091     Total:     1.1091

  Dipole Moment: [D]
     X:     0.0000      Y:     0.0000      Z:    -2.8191     Total:     2.8191


*** tstop() called on bp1-compute00115.data.bp.acrc.priv at Tue Apr 27 18:11:48 2021
Module time:
	user time   =      59.71 seconds =       1.00 minutes
	system time =       2.08 seconds =       0.03 minutes
	total time  =          2 seconds =       0.03 minutes
Total time:
	user time   =     305.69 seconds =       5.09 minutes
	system time =      11.10 seconds =       0.18 minutes
	total time  =         13 seconds =       0.22 minutes

         ----------------------------------------------------------
                                   FINDIF
                     R. A. King and Jonathon Misiewicz
         ---------------------------------------------------------

  Computing gradient from energies.
    Using 3-point formula.
    Energy without displacement:  -93.3995228161
    Check energies below for precision!
    Forces are for mass-weighted, symmetry-adapted cartesians (in au).

     Coord      Energy(-1)        Energy(+1)            Force
        0    -93.3995548050    -93.3994797452      0.0075059798
        1    -93.3995060325    -93.3995339300     -0.0027897499


-------------------------------------------------------------
  ## New Matrix (Symmetry 0) ##
  Irrep: 1 Size: 3 x 3

                 1                   2                   3

    1     0.00000000000000     0.00000000000000     0.00739337594232
    2     0.00000000000000     0.00000000000000    -0.01050370372732
    3     0.00000000000000     0.00000000000000     0.00311032778500




			-----------------------------------------
			 OPTKING 2.0: for geometry optimizations 
			  - R.A. King,  Bethel University        
			-----------------------------------------
	At level 1: Red. Int., RFO, no backsteps, dynamic trust

	Internal coordinates to be generated automatically.
	Detected frag 1 with atoms:  1 2 3
	---Fragment 1 Bond Connectivity---
	 1 : 2
	 2 : 1 3
	 3 : 2

	---Fragment 1 Geometry and Gradient---
	 H           0.0000000000        0.0000000000       -3.0736400218
	 C           0.0000000000        0.0000000000       -1.0576801912
	 N           0.0000000000        0.0000000000        1.1275991003
	             0.0000000000        0.0000000000        0.0073933759
	             0.0000000000        0.0000000000       -0.0105037037
	             0.0000000000        0.0000000000        0.0031103278

	Previous optimization step data not found.  Starting new optimization.

	---Fragment 1 Intrafragment Coordinates---
	 - Coordinate -           - BOHR/RAD -       - ANG/DEG -
	 R(1,2)           =         2.015960	       1.066800
	 R(2,3)           =         2.185279	       1.156400
	 L(1,2,3)         =         3.141593	     180.000000
	 l(1,2,3)         =         3.141593	     180.000000

	Current energy   :       -93.3995228161

	Generating empirical Hessian (Schlegel '84) for each fragment.
	Taking RFO optimization step.
	Going to follow RFO solution 1.
	Using RFO vector 1.
	Norm of target step-size    0.01978
	Projected energy change by RFO approximation:        -0.0001525449

	Back-transformation to cartesian coordinates...
	Successfully converged to displaced geometry.

	--- Internal Coordinate Step in ANG or DEG, aJ/ANG or AJ/DEG ---
	 ---------------------------------------------------------------------------
	   Coordinate                Previous        Force       Change         New 
	   ----------                --------       ------       ------       ------
	    1 R(1,2)          =      1.066800     0.060912     0.010391     1.077191
	    2 R(2,3)          =      1.156400    -0.025625    -0.001264     1.155136
	    3 L(1,2,3)        =    180.000000     0.000000     0.000000   180.000000
	    4 l(1,2,3)        =    180.000000     0.000000     0.000000   180.000000
	 ---------------------------------------------------------------------------
	Successfully symmetrized geometry.

  ==> Convergence Check <==

  Measures of convergence in internal coordinates in au.
  Criteria marked as inactive (o), active & met (*), and active & unmet ( ).
  --------------------------------------------------------------------------------------------- ~
   Step     Total Energy     Delta E     MAX Force     RMS Force      MAX Disp      RMS Disp    ~
  --------------------------------------------------------------------------------------------- ~
    Convergence Criteria    1.00e-06 *    3.00e-04 *             o    1.20e-03 *             o  ~
  --------------------------------------------------------------------------------------------- ~
      1     -93.39952282   -9.34e+01      7.39e-03      4.01e-03 o    1.96e-02      9.89e-03 o  ~
  ---------------------------------------------------------------------------------------------

	Writing optimization data to binary file.
	Structure for next step:
	Cartesian Geometry (in Angstrom)
	    H     0.0000000000   0.0000000000  -1.6330060196
	    C     0.0000000000   0.0000000000  -0.5558152644
	    N     0.0000000000   0.0000000000   0.5993205301
			--------------------------
			 OPTKING Finished Execution 
			--------------------------

    Structure for next step:
    Molecular point group: c2v
    Full point group: C_inf_v

    Geometry (in Angstrom), charge = 0, multiplicity = 1:

    H            0.000000000000     0.000000000000    -1.635847923978
    C            0.000000000000     0.000000000000    -0.558657164542
    N            0.000000000000     0.000000000000     0.596478634518

gradient() will perform gradient computation by finite difference of analytic energies.

         ----------------------------------------------------------
                                   FINDIF
                     R. A. King and Jonathon Misiewicz
         ---------------------------------------------------------

  Using finite-differences of energies to determine gradients.
    Generating geometries for use with 3-point formula.
    Displacement size will be 5.00e-03.
    Number of atoms is 3.
    Number of symmetric SALCs is 2.
    Translations projected? 1. Rotations projected? 1.
    Number of geometries (including reference) is 5.

  //>>>>>>>>>>>>>>>>>>>>>>>>>>>>>>>>>>>//
  //    Loading displacement 1 of 5    //
  //<<<<<<<<<<<<<<<<<<<<<<<<<<<<<<<<<<<//

*** tstart() called on bp1-compute00115.data.bp.acrc.priv
*** at Tue Apr 27 18:11:48 2021

   => Loading Basis Set <=

    Name: CC-PV(D+D)Z
    Role: ORBITAL
    Keyword: BASIS
    atoms 1 entry H          line    31 file /work/zw18965/.conda/envs/p4env/share/psi4/basis/cc-pv_dpd_z.gbs 
    atoms 2 entry C          line   147 file /work/zw18965/.conda/envs/p4env/share/psi4/basis/cc-pv_dpd_z.gbs 
    atoms 3 entry N          line   177 file /work/zw18965/.conda/envs/p4env/share/psi4/basis/cc-pv_dpd_z.gbs 


         ---------------------------------------------------------
                                   SCF
               by Justin Turney, Rob Parrish, Andy Simmonett
                          and Daniel G. A. Smith
                              RKS Reference
                       24 Threads, 137329 MiB Core
         ---------------------------------------------------------

  ==> Geometry <==

    Molecular point group: c2v
    Full point group: C_inf_v

    Geometry (in Angstrom), charge = 0, multiplicity = 1:

       Center              X                  Y                   Z               Mass       
    ------------   -----------------  -----------------  -----------------  -----------------
         H            0.000000000000     0.000000000000    -1.635847923978     1.007825032230
         C            0.000000000000     0.000000000000    -0.558657164542    12.000000000000
         N            0.000000000000     0.000000000000     0.596478634518    14.003074004430

  Running in c2v symmetry.

  Rotational constants: A = ************  B =      1.47560  C =      1.47560 [cm^-1]
  Rotational constants: A = ************  B =  44237.50483  C =  44237.50483 [MHz]
  Nuclear repulsion =   23.847449008091612

  Charge       = 0
  Multiplicity = 1
  Electrons    = 14
  Nalpha       = 7
  Nbeta        = 7

  ==> Algorithm <==

  SCF Algorithm Type is DF.
  DIIS enabled.
  MOM disabled.
  Fractional occupation disabled.
  Guess Type is READ.
  Energy threshold   = 1.00e-08
  Density threshold  = 1.00e-08
  Integral threshold = 0.00e+00

  ==> Primary Basis <==

  Basis Set: CC-PV(D+D)Z
    Blend: CC-PV(D+D)Z
    Number of shells: 15
    Number of basis function: 33
    Number of Cartesian functions: 35
    Spherical Harmonics?: true
    Max angular momentum: 2

  ==> DFT Potential <==

   => Composite Functional: WB97M-V <= 

    wB97M-V Hyb-GGA Exchange-Correlation Functional

    N. Mardirossian and M. Head-Gordon, J. Chem. Phys. 144, 214110 (2016)

    Deriv               =              1
    GGA                 =           TRUE
    Meta                =           TRUE

    Exchange Hybrid     =           TRUE
    MP2 Hybrid          =          FALSE

   => Exchange-Correlation Functionals <=

    1.0000   wB97M-V exchange-correlation functional

   => Exact (HF) Exchange <=

    0.8500            HF,LR [omega = 0.3000]
    0.1500               HF 

   => VV10 Non-Local Parameters <=

    VV10 B              =     6.0000E+00
    VV10 C              =     1.0000E-02

   => Molecular Quadrature <=

    Radial Scheme          =       TREUTLER
    Pruning Scheme         =           FLAT
    Nuclear Scheme         =       TREUTLER

    BS radius alpha        =              1
    Pruning alpha          =              1
    Radial Points          =             75
    Spherical Points       =            302
    Total Points           =          65545
    Total Blocks           =            561
    Max Points             =            256
    Max Functions          =             33

   => Loading Basis Set <=

    Name: (CC-PV(D+D)Z AUX)
    Role: JKFIT
    Keyword: DF_BASIS_SCF
    atoms 1 entry H          line    51 file /work/zw18965/.conda/envs/p4env/share/psi4/basis/cc-pvdz-jkfit.gbs 
    atoms 2 entry C          line   121 file /work/zw18965/.conda/envs/p4env/share/psi4/basis/cc-pvdz-jkfit.gbs 
    atoms 3 entry N          line   171 file /work/zw18965/.conda/envs/p4env/share/psi4/basis/cc-pvdz-jkfit.gbs 

   => Loading Basis Set <=

    Name: CC-PV(D+D)Z
    Role: ORBITAL
    Keyword: BASIS
    atoms 1 entry H          line    31 file /work/zw18965/.conda/envs/p4env/share/psi4/basis/cc-pv_dpd_z.gbs 
    atoms 2 entry C          line   147 file /work/zw18965/.conda/envs/p4env/share/psi4/basis/cc-pv_dpd_z.gbs 
    atoms 3 entry N          line   177 file /work/zw18965/.conda/envs/p4env/share/psi4/basis/cc-pv_dpd_z.gbs 

  Reading orbitals from file 180, no projection.

  ==> Pre-Iterations <==

   -------------------------------------------------------
    Irrep   Nso     Nmo     Nalpha   Nbeta   Ndocc  Nsocc
   -------------------------------------------------------
     A1        17      17       0       0       0       0
     A2         2       2       0       0       0       0
     B1         7       7       0       0       0       0
     B2         7       7       0       0       0       0
   -------------------------------------------------------
    Total      33      33       7       7       7       0
   -------------------------------------------------------

  ==> Integral Setup <==

  ==> DiskDFJK: Density-Fitted J/K Matrices <==

    J tasked:                  Yes
    K tasked:                  Yes
    wK tasked:                 Yes
    Omega:               3.000E-01
    OpenMP threads:             24
    Integrals threads:          24
    Memory [MiB]:           102840
    Algorithm:                Core
    Integral Cache:           NONE
    Schwarz Cutoff:          1E-12
    Fitting Condition:       1E-10

   => Auxiliary Basis Set <=

  Basis Set: (CC-PV(D+D)Z AUX)
    Blend: CC-PVDZ-JKFIT
    Number of shells: 57
    Number of basis function: 163
    Number of Cartesian functions: 187
    Spherical Harmonics?: true
    Max angular momentum: 3

  Cached 100.0% of DFT collocation blocks in 0.152 [GiB].

  Minimum eigenvalue in the overlap matrix is 7.6299344693E-03.
  Using Symmetric Orthogonalization.

  SCF Guess: Orbitals guess was supplied from a previous computation.

  ==> Iterations <==

                           Total Energy        Delta E     RMS |[F,P]|

   @DF-RKS iter   0:   -93.39661262297909   -9.33966e+01   8.66507e-04 
   @DF-RKS iter   1:   -93.39957848207699   -2.96586e-03   2.35697e-04 DIIS
   @DF-RKS iter   2:   -93.39956916399552    9.31808e-06   3.52222e-04 DIIS
   @DF-RKS iter   3:   -93.39958951133561   -2.03473e-05   8.45547e-06 DIIS
   @DF-RKS iter   4:   -93.39958952566185   -1.43262e-08   1.60638e-06 DIIS
   @DF-RKS iter   5:   -93.39958952650046   -8.38611e-10   5.27778e-07 DIIS
   @DF-RKS iter   6:   -93.39958952657391   -7.34417e-11   6.93351e-08 DIIS
   @DF-RKS iter   7:   -93.39958952657562   -1.71951e-12   1.08350e-08 DIIS
   @DF-RKS iter   8:   -93.39958952657567   -4.26326e-14   7.71730e-10 DIIS
  Energy and wave function converged.


  ==> Post-Iterations <==

    Orbital Energies [Eh]
    ---------------------

    Doubly Occupied:                                                      

       1A1   -14.543638     2A1   -10.413240     3A1    -1.044978  
       4A1    -0.709584     5A1    -0.488628     1B1    -0.460844  
       1B2    -0.460844  

    Virtual:                                                              

       2B1     0.116751     2B2     0.116751     6A1     0.133631  
       7A1     0.281932     3B1     0.562312     3B2     0.562312  
       8A1     0.632471     9A1     0.765921    10A1     0.822611  
       4B1     0.898871     4B2     0.898871    11A1     1.093210  
       5B1     1.176921     5B2     1.176921     1A2     1.194788  
      12A1     1.194789    13A1     1.530851     6B2     1.808996  
       6B1     1.808996    14A1     1.983527     2A2     1.983527  
      15A1     2.148131     7B2     2.652831     7B1     2.652831  
      16A1     2.909406    17A1     3.114102  

    Final Occupation by Irrep:
             A1    A2    B1    B2 
    DOCC [     5,    0,    1,    1 ]

  @DF-RKS Final Energy:   -93.39958952657567

   => Energetics <=

    Nuclear Repulsion Energy =             23.8474490080916119
    One-Electron Energy =                -172.6504780263755379
    Two-Electron Energy =                  64.2959294854581032
    DFT Exchange-Correlation Energy =      -8.9509187720189018
    Empirical Dispersion Energy =           0.0000000000000000
    VV10 Nonlocal Energy =                  0.0584287782690440
    Total Energy =                        -93.3995895265756815

Computation Completed


Properties will be evaluated at   0.000000,   0.000000,   0.000000 [a0]

Properties computed using the SCF density matrix

  Nuclear Dipole Moment: [e a0]
     X:     0.0000      Y:     0.0000      Z:    -1.5353

  Electronic Dipole Moment: [e a0]
     X:     0.0000      Y:     0.0000      Z:     0.4214

  Dipole Moment: [e a0]
     X:     0.0000      Y:     0.0000      Z:    -1.1139     Total:     1.1139

  Dipole Moment: [D]
     X:     0.0000      Y:     0.0000      Z:    -2.8313     Total:     2.8313


*** tstop() called on bp1-compute00115.data.bp.acrc.priv at Tue Apr 27 18:11:50 2021
Module time:
	user time   =      42.73 seconds =       0.71 minutes
	system time =       1.27 seconds =       0.02 minutes
	total time  =          2 seconds =       0.03 minutes
Total time:
	user time   =     348.78 seconds =       5.81 minutes
	system time =      12.40 seconds =       0.21 minutes
	total time  =         15 seconds =       0.25 minutes

  //>>>>>>>>>>>>>>>>>>>>>>>>>>>>>>>>>>>//
  //    Loading displacement 2 of 5    //
  //<<<<<<<<<<<<<<<<<<<<<<<<<<<<<<<<<<<//

*** tstart() called on bp1-compute00115.data.bp.acrc.priv
*** at Tue Apr 27 18:11:50 2021

   => Loading Basis Set <=

    Name: CC-PV(D+D)Z
    Role: ORBITAL
    Keyword: BASIS
    atoms 1 entry H          line    31 file /work/zw18965/.conda/envs/p4env/share/psi4/basis/cc-pv_dpd_z.gbs 
    atoms 2 entry C          line   147 file /work/zw18965/.conda/envs/p4env/share/psi4/basis/cc-pv_dpd_z.gbs 
    atoms 3 entry N          line   177 file /work/zw18965/.conda/envs/p4env/share/psi4/basis/cc-pv_dpd_z.gbs 


         ---------------------------------------------------------
                                   SCF
               by Justin Turney, Rob Parrish, Andy Simmonett
                          and Daniel G. A. Smith
                              RKS Reference
                       24 Threads, 137329 MiB Core
         ---------------------------------------------------------

  ==> Geometry <==

    Molecular point group: c2v
    Full point group: C_inf_v

    Geometry (in Angstrom), charge = 0, multiplicity = 1:

       Center              X                  Y                   Z               Mass       
    ------------   -----------------  -----------------  -----------------  -----------------
         H            0.000000000000     0.000000000000    -1.638433881536     1.007825032230
         C            0.000000000000     0.000000000000    -0.558556938209    12.000000000000
         N            0.000000000000     0.000000000000     0.596578860851    14.003074004430

  Running in c2v symmetry.

  Rotational constants: A = ************  B =      1.47446  C =      1.47446 [cm^-1]
  Rotational constants: A = ************  B =  44203.20720  C =  44203.20720 [MHz]
  Nuclear repulsion =   23.838122697957363

  Charge       = 0
  Multiplicity = 1
  Electrons    = 14
  Nalpha       = 7
  Nbeta        = 7

  ==> Algorithm <==

  SCF Algorithm Type is DF.
  DIIS enabled.
  MOM disabled.
  Fractional occupation disabled.
  Guess Type is READ.
  Energy threshold   = 1.00e-08
  Density threshold  = 1.00e-08
  Integral threshold = 0.00e+00

  ==> Primary Basis <==

  Basis Set: CC-PV(D+D)Z
    Blend: CC-PV(D+D)Z
    Number of shells: 15
    Number of basis function: 33
    Number of Cartesian functions: 35
    Spherical Harmonics?: true
    Max angular momentum: 2

  ==> DFT Potential <==

   => Composite Functional: WB97M-V <= 

    wB97M-V Hyb-GGA Exchange-Correlation Functional

    N. Mardirossian and M. Head-Gordon, J. Chem. Phys. 144, 214110 (2016)

    Deriv               =              1
    GGA                 =           TRUE
    Meta                =           TRUE

    Exchange Hybrid     =           TRUE
    MP2 Hybrid          =          FALSE

   => Exchange-Correlation Functionals <=

    1.0000   wB97M-V exchange-correlation functional

   => Exact (HF) Exchange <=

    0.8500            HF,LR [omega = 0.3000]
    0.1500               HF 

   => VV10 Non-Local Parameters <=

    VV10 B              =     6.0000E+00
    VV10 C              =     1.0000E-02

   => Molecular Quadrature <=

    Radial Scheme          =       TREUTLER
    Pruning Scheme         =           FLAT
    Nuclear Scheme         =       TREUTLER

    BS radius alpha        =              1
    Pruning alpha          =              1
    Radial Points          =             75
    Spherical Points       =            302
    Total Points           =          65545
    Total Blocks           =            563
    Max Points             =            256
    Max Functions          =             33

   => Loading Basis Set <=

    Name: (CC-PV(D+D)Z AUX)
    Role: JKFIT
    Keyword: DF_BASIS_SCF
    atoms 1 entry H          line    51 file /work/zw18965/.conda/envs/p4env/share/psi4/basis/cc-pvdz-jkfit.gbs 
    atoms 2 entry C          line   121 file /work/zw18965/.conda/envs/p4env/share/psi4/basis/cc-pvdz-jkfit.gbs 
    atoms 3 entry N          line   171 file /work/zw18965/.conda/envs/p4env/share/psi4/basis/cc-pvdz-jkfit.gbs 

   => Loading Basis Set <=

    Name: CC-PV(D+D)Z
    Role: ORBITAL
    Keyword: BASIS
    atoms 1 entry H          line    31 file /work/zw18965/.conda/envs/p4env/share/psi4/basis/cc-pv_dpd_z.gbs 
    atoms 2 entry C          line   147 file /work/zw18965/.conda/envs/p4env/share/psi4/basis/cc-pv_dpd_z.gbs 
    atoms 3 entry N          line   177 file /work/zw18965/.conda/envs/p4env/share/psi4/basis/cc-pv_dpd_z.gbs 

  Reading orbitals from file 180, no projection.

  ==> Pre-Iterations <==

   -------------------------------------------------------
    Irrep   Nso     Nmo     Nalpha   Nbeta   Ndocc  Nsocc
   -------------------------------------------------------
     A1        17      17       0       0       0       0
     A2         2       2       0       0       0       0
     B1         7       7       0       0       0       0
     B2         7       7       0       0       0       0
   -------------------------------------------------------
    Total      33      33       7       7       7       0
   -------------------------------------------------------

  ==> Integral Setup <==

  ==> DiskDFJK: Density-Fitted J/K Matrices <==

    J tasked:                  Yes
    K tasked:                  Yes
    wK tasked:                 Yes
    Omega:               3.000E-01
    OpenMP threads:             24
    Integrals threads:          24
    Memory [MiB]:           102840
    Algorithm:                Core
    Integral Cache:           NONE
    Schwarz Cutoff:          1E-12
    Fitting Condition:       1E-10

   => Auxiliary Basis Set <=

  Basis Set: (CC-PV(D+D)Z AUX)
    Blend: CC-PVDZ-JKFIT
    Number of shells: 57
    Number of basis function: 163
    Number of Cartesian functions: 187
    Spherical Harmonics?: true
    Max angular momentum: 3

  Cached 100.0% of DFT collocation blocks in 0.152 [GiB].

  Minimum eigenvalue in the overlap matrix is 7.6279775933E-03.
  Using Symmetric Orthogonalization.

  SCF Guess: Orbitals guess was supplied from a previous computation.

  ==> Iterations <==

                           Total Energy        Delta E     RMS |[F,P]|

   @DF-RKS iter   0:   -93.39838288048121   -9.33984e+01   2.00540e-04 
   @DF-RKS iter   1:   -93.39957937849954   -1.19650e-03   5.55374e-05 DIIS
   @DF-RKS iter   2:   -93.39957897381964    4.04680e-07   7.96031e-05 DIIS
   @DF-RKS iter   3:   -93.39958001674604   -1.04293e-06   3.94404e-06 DIIS
   @DF-RKS iter   4:   -93.39958001956511   -2.81906e-09   8.65924e-07 DIIS
   @DF-RKS iter   5:   -93.39958001973758   -1.72477e-10   1.54989e-07 DIIS
   @DF-RKS iter   6:   -93.39958001974578   -8.19966e-12   2.00417e-08 DIIS
   @DF-RKS iter   7:   -93.39958001974607   -2.84217e-13   5.24942e-09 DIIS
  Energy and wave function converged.


  ==> Post-Iterations <==

    Orbital Energies [Eh]
    ---------------------

    Doubly Occupied:                                                      

       1A1   -14.543598     2A1   -10.413399     3A1    -1.044944  
       4A1    -0.708799     5A1    -0.488566     1B1    -0.460802  
       1B2    -0.460802  

    Virtual:                                                              

       2B1     0.116807     2B2     0.116807     6A1     0.133011  
       7A1     0.281947     3B1     0.562328     3B2     0.562328  
       8A1     0.631866     9A1     0.765969    10A1     0.822117  
       4B1     0.898911     4B2     0.898911    11A1     1.091901  
       5B1     1.176539     5B2     1.176539     1A2     1.194841  
      12A1     1.194842    13A1     1.531113     6B2     1.807311  
       6B1     1.807311    14A1     1.983572     2A2     1.983572  
      15A1     2.143424     7B2     2.651519     7B1     2.651519  
      16A1     2.909422    17A1     3.109456  

    Final Occupation by Irrep:
             A1    A2    B1    B2 
    DOCC [     5,    0,    1,    1 ]

  @DF-RKS Final Energy:   -93.39958001974607

   => Energetics <=

    Nuclear Repulsion Energy =             23.8381226979573633
    One-Electron Energy =                -172.6339520480313183
    Two-Electron Energy =                  64.2879899325458695
    DFT Exchange-Correlation Energy =      -8.9501681086962073
    Empirical Dispersion Energy =           0.0000000000000000
    VV10 Nonlocal Energy =                  0.0584275064782208
    Total Energy =                        -93.3995800197460539

Computation Completed


Properties will be evaluated at   0.000000,   0.000000,   0.000000 [a0]

Properties computed using the SCF density matrix

  Nuclear Dipole Moment: [e a0]
     X:     0.0000      Y:     0.0000      Z:    -1.5377

  Electronic Dipole Moment: [e a0]
     X:     0.0000      Y:     0.0000      Z:     0.4225

  Dipole Moment: [e a0]
     X:     0.0000      Y:     0.0000      Z:    -1.1152     Total:     1.1152

  Dipole Moment: [D]
     X:     0.0000      Y:     0.0000      Z:    -2.8346     Total:     2.8346


*** tstop() called on bp1-compute00115.data.bp.acrc.priv at Tue Apr 27 18:11:52 2021
Module time:
	user time   =      41.41 seconds =       0.69 minutes
	system time =       1.48 seconds =       0.02 minutes
	total time  =          2 seconds =       0.03 minutes
Total time:
	user time   =     390.32 seconds =       6.51 minutes
	system time =      13.89 seconds =       0.23 minutes
	total time  =         17 seconds =       0.28 minutes

  //>>>>>>>>>>>>>>>>>>>>>>>>>>>>>>>>>>>//
  //    Loading displacement 3 of 5    //
  //<<<<<<<<<<<<<<<<<<<<<<<<<<<<<<<<<<<//

*** tstart() called on bp1-compute00115.data.bp.acrc.priv
*** at Tue Apr 27 18:11:52 2021

   => Loading Basis Set <=

    Name: CC-PV(D+D)Z
    Role: ORBITAL
    Keyword: BASIS
    atoms 1 entry H          line    31 file /work/zw18965/.conda/envs/p4env/share/psi4/basis/cc-pv_dpd_z.gbs 
    atoms 2 entry C          line   147 file /work/zw18965/.conda/envs/p4env/share/psi4/basis/cc-pv_dpd_z.gbs 
    atoms 3 entry N          line   177 file /work/zw18965/.conda/envs/p4env/share/psi4/basis/cc-pv_dpd_z.gbs 


         ---------------------------------------------------------
                                   SCF
               by Justin Turney, Rob Parrish, Andy Simmonett
                          and Daniel G. A. Smith
                              RKS Reference
                       24 Threads, 137329 MiB Core
         ---------------------------------------------------------

  ==> Geometry <==

    Molecular point group: c2v
    Full point group: C_inf_v

    Geometry (in Angstrom), charge = 0, multiplicity = 1:

       Center              X                  Y                   Z               Mass       
    ------------   -----------------  -----------------  -----------------  -----------------
         H            0.000000000000     0.000000000000    -1.633261966420     1.007825032230
         C            0.000000000000     0.000000000000    -0.558757390875    12.000000000000
         N            0.000000000000     0.000000000000     0.596378408184    14.003074004430

  Running in c2v symmetry.

  Rotational constants: A = ************  B =      1.47675  C =      1.47675 [cm^-1]
  Rotational constants: A = ************  B =  44271.80142  C =  44271.80142 [MHz]
  Nuclear repulsion =   23.856816782448536

  Charge       = 0
  Multiplicity = 1
  Electrons    = 14
  Nalpha       = 7
  Nbeta        = 7

  ==> Algorithm <==

  SCF Algorithm Type is DF.
  DIIS enabled.
  MOM disabled.
  Fractional occupation disabled.
  Guess Type is READ.
  Energy threshold   = 1.00e-08
  Density threshold  = 1.00e-08
  Integral threshold = 0.00e+00

  ==> Primary Basis <==

  Basis Set: CC-PV(D+D)Z
    Blend: CC-PV(D+D)Z
    Number of shells: 15
    Number of basis function: 33
    Number of Cartesian functions: 35
    Spherical Harmonics?: true
    Max angular momentum: 2

  ==> DFT Potential <==

   => Composite Functional: WB97M-V <= 

    wB97M-V Hyb-GGA Exchange-Correlation Functional

    N. Mardirossian and M. Head-Gordon, J. Chem. Phys. 144, 214110 (2016)

    Deriv               =              1
    GGA                 =           TRUE
    Meta                =           TRUE

    Exchange Hybrid     =           TRUE
    MP2 Hybrid          =          FALSE

   => Exchange-Correlation Functionals <=

    1.0000   wB97M-V exchange-correlation functional

   => Exact (HF) Exchange <=

    0.8500            HF,LR [omega = 0.3000]
    0.1500               HF 

   => VV10 Non-Local Parameters <=

    VV10 B              =     6.0000E+00
    VV10 C              =     1.0000E-02

   => Molecular Quadrature <=

    Radial Scheme          =       TREUTLER
    Pruning Scheme         =           FLAT
    Nuclear Scheme         =       TREUTLER

    BS radius alpha        =              1
    Pruning alpha          =              1
    Radial Points          =             75
    Spherical Points       =            302
    Total Points           =          65537
    Total Blocks           =            561
    Max Points             =            255
    Max Functions          =             33

   => Loading Basis Set <=

    Name: (CC-PV(D+D)Z AUX)
    Role: JKFIT
    Keyword: DF_BASIS_SCF
    atoms 1 entry H          line    51 file /work/zw18965/.conda/envs/p4env/share/psi4/basis/cc-pvdz-jkfit.gbs 
    atoms 2 entry C          line   121 file /work/zw18965/.conda/envs/p4env/share/psi4/basis/cc-pvdz-jkfit.gbs 
    atoms 3 entry N          line   171 file /work/zw18965/.conda/envs/p4env/share/psi4/basis/cc-pvdz-jkfit.gbs 

   => Loading Basis Set <=

    Name: CC-PV(D+D)Z
    Role: ORBITAL
    Keyword: BASIS
    atoms 1 entry H          line    31 file /work/zw18965/.conda/envs/p4env/share/psi4/basis/cc-pv_dpd_z.gbs 
    atoms 2 entry C          line   147 file /work/zw18965/.conda/envs/p4env/share/psi4/basis/cc-pv_dpd_z.gbs 
    atoms 3 entry N          line   177 file /work/zw18965/.conda/envs/p4env/share/psi4/basis/cc-pv_dpd_z.gbs 

  Reading orbitals from file 180, no projection.

  ==> Pre-Iterations <==

   -------------------------------------------------------
    Irrep   Nso     Nmo     Nalpha   Nbeta   Ndocc  Nsocc
   -------------------------------------------------------
     A1        17      17       0       0       0       0
     A2         2       2       0       0       0       0
     B1         7       7       0       0       0       0
     B2         7       7       0       0       0       0
   -------------------------------------------------------
    Total      33      33       7       7       7       0
   -------------------------------------------------------

  ==> Integral Setup <==

  ==> DiskDFJK: Density-Fitted J/K Matrices <==

    J tasked:                  Yes
    K tasked:                  Yes
    wK tasked:                 Yes
    Omega:               3.000E-01
    OpenMP threads:             24
    Integrals threads:          24
    Memory [MiB]:           102840
    Algorithm:                Core
    Integral Cache:           NONE
    Schwarz Cutoff:          1E-12
    Fitting Condition:       1E-10

   => Auxiliary Basis Set <=

  Basis Set: (CC-PV(D+D)Z AUX)
    Blend: CC-PVDZ-JKFIT
    Number of shells: 57
    Number of basis function: 163
    Number of Cartesian functions: 187
    Spherical Harmonics?: true
    Max angular momentum: 3

  Cached 100.0% of DFT collocation blocks in 0.152 [GiB].

  Minimum eigenvalue in the overlap matrix is 7.6319347486E-03.
  Using Symmetric Orthogonalization.

  SCF Guess: Orbitals guess was supplied from a previous computation.

  ==> Iterations <==

                           Total Energy        Delta E     RMS |[F,P]|

   @DF-RKS iter   0:   -93.40078649740911   -9.34008e+01   2.01782e-04 
   @DF-RKS iter   1:   -93.39958794796402    1.19855e-03   5.53594e-05 DIIS
   @DF-RKS iter   2:   -93.39958754711381    4.00850e-07   7.93093e-05 DIIS
   @DF-RKS iter   3:   -93.39958858242738   -1.03531e-06   3.94182e-06 DIIS
   @DF-RKS iter   4:   -93.39958858523983   -2.81244e-09   8.61967e-07 DIIS
   @DF-RKS iter   5:   -93.39958858541040   -1.70573e-10   1.54296e-07 DIIS
   @DF-RKS iter   6:   -93.39958858541867   -8.27072e-12   1.97901e-08 DIIS
   @DF-RKS iter   7:   -93.39958858541883   -1.56319e-13   5.16313e-09 DIIS
  Energy and wave function converged.


  ==> Post-Iterations <==

    Orbital Energies [Eh]
    ---------------------

    Doubly Occupied:                                                      

[...]
       4Ap    -0.709908     5Ap    -0.488662     1App   -0.460831  
       6Ap    -0.460831  

    Virtual:                                                              

       7Ap     0.116676     2App    0.116681     8Ap     0.133872  
       9Ap     0.281920    10Ap     0.562310     3App    0.562311  
      11Ap     0.632704    12Ap     0.765880    13Ap     0.822799  
       4App    0.898846    14Ap     0.898847    15Ap     1.093513  
       5App    1.177014    16Ap     1.177033     6App    1.194785  
      17Ap     1.194786    18Ap     1.530717    19Ap     1.809573  
       7App    1.809577    20Ap     1.983460     8App    1.983461  
      21Ap     2.149870    22Ap     2.653223     9App    2.653226  
      23Ap     2.909192    24Ap     3.115680  

    Final Occupation by Irrep:
             Ap   App 
    DOCC [     6,    1 ]

  @DF-RKS Final Energy:   -93.39959016854779

   => Energetics <=

    Nuclear Repulsion Energy =             23.8488620928621415
    One-Electron Energy =                -172.6525503924196130
    Two-Electron Energy =                  64.2967708072377491
    DFT Exchange-Correlation Energy =      -8.9511018974237739
    Empirical Dispersion Energy =           0.0000000000000000
    VV10 Nonlocal Energy =                  0.0584292211957217
    Total Energy =                        -93.3995901685477747

Computation Completed


Properties will be evaluated at   0.000000,   0.000000,   0.000000 [a0]

Properties computed using the SCF density matrix

  Nuclear Dipole Moment: [e a0]
     X:    -0.0021      Y:     0.0000      Z:    -1.5344

  Electronic Dipole Moment: [e a0]
     X:     0.0012      Y:     0.0000      Z:     0.4210

  Dipole Moment: [e a0]
     X:    -0.0009      Y:     0.0000      Z:    -1.1134     Total:     1.1134

  Dipole Moment: [D]
     X:    -0.0024      Y:     0.0000      Z:    -2.8300     Total:     2.8300


*** tstop() called on bp1-compute00115.data.bp.acrc.priv at Tue Apr 27 18:12:41 2021
Module time:
	user time   =      63.50 seconds =       1.06 minutes
	system time =       1.91 seconds =       0.03 minutes
	total time  =          3 seconds =       0.05 minutes
Total time:
	user time   =    1526.51 seconds =      25.44 minutes
	system time =      49.63 seconds =       0.83 minutes
	total time  =         66 seconds =       1.10 minutes

  //>>>>>>>>>>>>>>>>>>>>>>>>>>>>>>>>>>>//
  //    Loading displacement 9 of 9    //
  //<<<<<<<<<<<<<<<<<<<<<<<<<<<<<<<<<<<//

*** tstart() called on bp1-compute00115.data.bp.acrc.priv
*** at Tue Apr 27 18:12:41 2021

   => Loading Basis Set <=

    Name: CC-PV(D+D)Z
    Role: ORBITAL
    Keyword: BASIS
    atoms 1 entry H          line    31 file /work/zw18965/.conda/envs/p4env/share/psi4/basis/cc-pv_dpd_z.gbs 
    atoms 2 entry C          line   147 file /work/zw18965/.conda/envs/p4env/share/psi4/basis/cc-pv_dpd_z.gbs 
    atoms 3 entry N          line   177 file /work/zw18965/.conda/envs/p4env/share/psi4/basis/cc-pv_dpd_z.gbs 


         ---------------------------------------------------------
                                   SCF
               by Justin Turney, Rob Parrish, Andy Simmonett
                          and Daniel G. A. Smith
                              RKS Reference
                       24 Threads, 137329 MiB Core
         ---------------------------------------------------------

  ==> Geometry <==

    Molecular point group: cs
    Full point group: Cs

    Geometry (in Angstrom), charge = 0, multiplicity = 1:

       Center              X                  Y                   Z               Mass       
    ------------   -----------------  -----------------  -----------------  -----------------
         H            0.000000000000    -0.002247012358    -1.634891389134     1.007825032230
         C            0.000000000000     0.000364504725    -0.558764870406    12.000000000000
         N            0.000000000000    -0.000150642737     0.596502090125    14.003074004430

  Running in cs symmetry.

  Rotational constants: A = 2407987.46702  B =      1.47577  C =      1.47577 [cm^-1]
  Rotational constants: A = 72189648157.17372  B =  44242.60513  C =  44242.57801 [MHz]
  Nuclear repulsion =   23.848862092862142

  Charge       = 0
  Multiplicity = 1
  Electrons    = 14
  Nalpha       = 7
  Nbeta        = 7

  ==> Algorithm <==

  SCF Algorithm Type is DF.
  DIIS enabled.
  MOM disabled.
  Fractional occupation disabled.
  Guess Type is SAD.
  Energy threshold   = 1.00e-10
  Density threshold  = 1.00e-10
  Integral threshold = 0.00e+00

  ==> Primary Basis <==

  Basis Set: CC-PV(D+D)Z
    Blend: CC-PV(D+D)Z
    Number of shells: 15
    Number of basis function: 33
    Number of Cartesian functions: 35
    Spherical Harmonics?: true
    Max angular momentum: 2

  ==> DFT Potential <==

   => Composite Functional: WB97M-V <= 

    wB97M-V Hyb-GGA Exchange-Correlation Functional

    N. Mardirossian and M. Head-Gordon, J. Chem. Phys. 144, 214110 (2016)

    Deriv               =              1
    GGA                 =           TRUE
    Meta                =           TRUE

    Exchange Hybrid     =           TRUE
    MP2 Hybrid          =          FALSE

   => Exchange-Correlation Functionals <=

    1.0000   wB97M-V exchange-correlation functional

   => Exact (HF) Exchange <=

    0.8500            HF,LR [omega = 0.3000]
    0.1500               HF 

   => VV10 Non-Local Parameters <=

    VV10 B              =     6.0000E+00
    VV10 C              =     1.0000E-02

   => Molecular Quadrature <=

    Radial Scheme          =       TREUTLER
    Pruning Scheme         =           FLAT
    Nuclear Scheme         =       TREUTLER

    BS radius alpha        =              1
    Pruning alpha          =              1
    Radial Points          =             75
    Spherical Points       =            302
    Total Points           =          65541
    Total Blocks           =            559
    Max Points             =            255
    Max Functions          =             33

   => Loading Basis Set <=

    Name: (CC-PV(D+D)Z AUX)
    Role: JKFIT
    Keyword: DF_BASIS_SCF
    atoms 1 entry H          line    51 file /work/zw18965/.conda/envs/p4env/share/psi4/basis/cc-pvdz-jkfit.gbs 
    atoms 2 entry C          line   121 file /work/zw18965/.conda/envs/p4env/share/psi4/basis/cc-pvdz-jkfit.gbs 
    atoms 3 entry N          line   171 file /work/zw18965/.conda/envs/p4env/share/psi4/basis/cc-pvdz-jkfit.gbs 

  ==> Pre-Iterations <==

   -------------------------------------------------------
    Irrep   Nso     Nmo     Nalpha   Nbeta   Ndocc  Nsocc
   -------------------------------------------------------
     A'        24      24       0       0       0       0
     A"         9       9       0       0       0       0
   -------------------------------------------------------
    Total      33      33       7       7       7       0
   -------------------------------------------------------

  ==> Integral Setup <==

  ==> DiskDFJK: Density-Fitted J/K Matrices <==

    J tasked:                  Yes
    K tasked:                  Yes
    wK tasked:                 Yes
    Omega:               3.000E-01
    OpenMP threads:             24
    Integrals threads:          24
    Memory [MiB]:           102840
    Algorithm:                Core
    Integral Cache:           NONE
    Schwarz Cutoff:          1E-12
    Fitting Condition:       1E-10

   => Auxiliary Basis Set <=

  Basis Set: (CC-PV(D+D)Z AUX)
    Blend: CC-PVDZ-JKFIT
    Number of shells: 57
    Number of basis function: 163
    Number of Cartesian functions: 187
    Spherical Harmonics?: true
    Max angular momentum: 3

  Cached 100.0% of DFT collocation blocks in 0.152 [GiB].

  Minimum eigenvalue in the overlap matrix is 7.6322930609E-03.
  Using Symmetric Orthogonalization.

  SCF Guess: Superposition of Atomic Densities via on-the-fly atomic UHF.

  ==> Iterations <==

                           Total Energy        Delta E     RMS |[F,P]|

   @DF-RKS iter SAD:   -92.62030730458724   -9.26203e+01   0.00000e+00 
   @DF-RKS iter   1:   -93.32958643935113   -7.09279e-01   1.48592e-02 DIIS
   @DF-RKS iter   2:   -93.28977937623677    3.98071e-02   1.96108e-02 DIIS
   @DF-RKS iter   3:   -93.39855151690972   -1.08772e-01   1.73173e-03 DIIS
   @DF-RKS iter   4:   -93.39955796621126   -1.00645e-03   3.28091e-04 DIIS
   @DF-RKS iter   5:   -93.39958888200967   -3.09158e-05   5.88727e-05 DIIS
   @DF-RKS iter   6:   -93.39959011786442   -1.23585e-06   9.58634e-06 DIIS
   @DF-RKS iter   7:   -93.39959016804491   -5.01805e-08   7.01284e-07 DIIS
   @DF-RKS iter   8:   -93.39959016852301   -4.78096e-10   8.31328e-08 DIIS
   @DF-RKS iter   9:   -93.39959016852977   -6.76437e-12   1.09780e-08 DIIS
   @DF-RKS iter  10:   -93.39959016852988   -1.13687e-13   8.29914e-10 DIIS
   @DF-RKS iter  11:   -93.39959016852997   -8.52651e-14   1.43390e-10 DIIS
   @DF-RKS iter  12:   -93.39959016852991    5.68434e-14   2.65272e-11 DIIS
  Energy and wave function converged.


  ==> Post-Iterations <==

    Orbital Energies [Eh]
    ---------------------

    Doubly Occupied:                                                      

       1Ap   -14.543691     2Ap   -10.413211     3Ap    -1.044942  
       4Ap    -0.709908     5Ap    -0.488662     1App   -0.460831  
       6Ap    -0.460831  

    Virtual:                                                              

       7Ap     0.116676     2App    0.116681     8Ap     0.133872  
       9Ap     0.281920    10Ap     0.562310     3App    0.562311  
      11Ap     0.632704    12Ap     0.765880    13Ap     0.822799  
       4App    0.898846    14Ap     0.898847    15Ap     1.093513  
       5App    1.177014    16Ap     1.177033     6App    1.194785  
      17Ap     1.194786    18Ap     1.530717    19Ap     1.809573  
       7App    1.809577    20Ap     1.983460     8App    1.983461  
      21Ap     2.149870    22Ap     2.653223     9App    2.653226  
      23Ap     2.909192    24Ap     3.115680  

    Final Occupation by Irrep:
             Ap   App 
    DOCC [     6,    1 ]

  @DF-RKS Final Energy:   -93.39959016852991

   => Energetics <=

    Nuclear Repulsion Energy =             23.8488620928621415
    One-Electron Energy =                -172.6525503924136160
    Two-Electron Energy =                  64.2967708072488335
    DFT Exchange-Correlation Energy =      -8.9511018974229835
    Empirical Dispersion Energy =           0.0000000000000000
    VV10 Nonlocal Energy =                  0.0584292211957175
    Total Energy =                        -93.3995901685299117

Computation Completed


Properties will be evaluated at   0.000000,   0.000000,   0.000000 [a0]

Properties computed using the SCF density matrix

  Nuclear Dipole Moment: [e a0]
     X:     0.0000      Y:    -0.0021      Z:    -1.5344

  Electronic Dipole Moment: [e a0]
     X:     0.0000      Y:     0.0012      Z:     0.4210

  Dipole Moment: [e a0]
     X:     0.0000      Y:    -0.0009      Z:    -1.1134     Total:     1.1134

  Dipole Moment: [D]
     X:     0.0000      Y:    -0.0024      Z:    -2.8300     Total:     2.8300


*** tstop() called on bp1-compute00115.data.bp.acrc.priv at Tue Apr 27 18:12:43 2021
Module time:
	user time   =      64.18 seconds =       1.07 minutes
	system time =       1.95 seconds =       0.03 minutes
	total time  =          2 seconds =       0.03 minutes
Total time:
	user time   =    1590.82 seconds =      26.51 minutes
	system time =      51.59 seconds =       0.86 minutes
	total time  =         68 seconds =       1.13 minutes

         ----------------------------------------------------------
                                   FINDIF
                     R. A. King and Jonathon Misiewicz
         ---------------------------------------------------------

  Computing second-derivative from energies using projected, 
  symmetry-adapted, cartesian coordinates.

  9 energies passed in, including the reference geometry.
    Using 3-point formula.
    Energy without displacement:  -93.3995904515
    Check energies below for precision!
    0: -1        :       -93.3995850838
    0: 1         :       -93.3995853082
    1: -1        :       -93.3995876321
    1: 1         :       -93.3995875897
    0: 1, 1: 1   :       -93.3995848011
    0: -1, 1: -1 :       -93.3995845923
    2: -1        :       -93.3995901685
    3: -1        :       -93.3995901685

-------------------------------------------------------------


  ==> Harmonic Vibrational Analysis <==

  non-mass-weighted Hessian:       Symmetric? True   Hermitian? True   Lin Dep Dim?  5 (0)
  projection of translations (True) and rotations (True) removed 5 degrees of freedom (5)
  total projector:                 Symmetric? True   Hermitian? True   Lin Dep Dim?  5 (5)
  mass-weighted Hessian:           Symmetric? True   Hermitian? True   Lin Dep Dim?  5 (0)
  pre-proj  low-frequency mode:    0.0000i [cm^-1]
  pre-proj  low-frequency mode:    0.0000i [cm^-1]
  pre-proj  low-frequency mode:    0.0000i [cm^-1]
  pre-proj  low-frequency mode:    0.0000  [cm^-1]
  pre-proj  low-frequency mode:    0.0000  [cm^-1]
  pre-proj  all modes:['0.0000i' '0.0000i' '0.0000i' '0.0000' '0.0000' '773.4666' '773.4910'
 '2236.5744' '3480.3558']
  projected mass-weighted Hessian: Symmetric? True   Hermitian? True   Lin Dep Dim?  5 (5)
  post-proj low-frequency mode:    0.0000i [cm^-1] (TR)
  post-proj low-frequency mode:    0.0000i [cm^-1] (TR)
  post-proj low-frequency mode:    0.0000  [cm^-1] (TR)
  post-proj low-frequency mode:    0.0000  [cm^-1] (TR)
  post-proj low-frequency mode:    0.0000  [cm^-1] (TR)
  post-proj  all modes:['0.0000i' '0.0000i' '0.0000' '0.0000' '0.0000' '773.4666' '773.4910'
 '2236.5744' '3480.3558']

  Vibration                       6                   7                   8           
  Freq [cm^-1]                 773.4666            773.4910           2236.5744       
  Irrep                           B1                  B2                  A1          
  Reduced mass [u]              1.3451              1.3451              4.9710        
  Force const [mDyne/A]         0.4741              0.4741             14.6507        
  Turning point v=0 [a0]        0.3402              0.3402              0.1041        
  RMS dev v=0 [a0 u^1/2]        0.2790              0.2790              0.1641        
  Char temp [K]               1112.8462           1112.8814           3217.9326       
  ----------------------------------------------------------------------------------
      1   H                0.98  0.00  0.00   -0.00  0.98  0.00   -0.00  0.00 -0.82   
      2   C               -0.16 -0.00  0.00   -0.00 -0.16 -0.00    0.00  0.00 -0.41   
      3   N                0.07  0.00  0.00   -0.00  0.07 -0.00    0.00 -0.00  0.41   

  Vibration                       9           
  Freq [cm^-1]                3480.3558       
  Irrep                           A1          
  Reduced mass [u]              1.1980        
  Force const [mDyne/A]         8.5495        
  Turning point v=0 [a0]        0.1699        
  RMS dev v=0 [a0 u^1/2]        0.1315        
  Char temp [K]               5007.4570       
  ----------------------------------------------------------------------------------
      1   H                0.00 -0.00  0.99   
      2   C               -0.00 -0.00 -0.13   
      3   N               -0.00  0.00  0.04   

  ==> Thermochemistry Components <==

  Entropy, S
    Electronic S            0.000 [cal/(mol K)]        0.000 [J/(mol K)]       0.00000000 [mEh/K] (multiplicity = 1)
    Translational S        35.816 [cal/(mol K)]      149.856 [J/(mol K)]       0.05707695 [mEh/K] (mol. weight = 27.0109 [u], P = 101325.00 [Pa])
    Rotational S           11.813 [cal/(mol K)]       49.426 [J/(mol K)]       0.01882549 [mEh/K] (symmetry no. = 1)
    Vibrational S           0.460 [cal/(mol K)]        1.927 [J/(mol K)]       0.00073381 [mEh/K]
  Total S                  48.090 [cal/(mol K)]      201.208 [J/(mol K)]       0.07663625 [mEh/K]
  Correction S              0.000 [cal/(mol K)]        0.000 [J/(mol K)]       0.00000000 [mEh/K]

  Constant volume heat capacity, Cv
    Electronic Cv           0.000 [cal/(mol K)]        0.000 [J/(mol K)]       0.00000000 [mEh/K]
    Translational Cv        2.981 [cal/(mol K)]       12.472 [J/(mol K)]       0.00475022 [mEh/K]
    Rotational Cv           1.987 [cal/(mol K)]        8.314 [J/(mol K)]       0.00316681 [mEh/K]
    Vibrational Cv          1.396 [cal/(mol K)]        5.840 [J/(mol K)]       0.00222416 [mEh/K]
  Total Cv                  6.364 [cal/(mol K)]       26.626 [J/(mol K)]       0.01014118 [mEh/K]
  Correction Cv             0.000 [cal/(mol K)]        0.000 [J/(mol K)]       0.00000000 [mEh/K]

  Constant pressure heat capacity, Cp
    Electronic Cp           0.000 [cal/(mol K)]        0.000 [J/(mol K)]       0.00000000 [mEh/K]
    Translational Cp        4.968 [cal/(mol K)]       20.786 [J/(mol K)]       0.00791703 [mEh/K]
    Rotational Cp           1.987 [cal/(mol K)]        8.314 [J/(mol K)]       0.00316681 [mEh/K]
    Vibrational Cp          1.396 [cal/(mol K)]        5.840 [J/(mol K)]       0.00222416 [mEh/K]
  Total Cp                  8.351 [cal/(mol K)]       34.940 [J/(mol K)]       0.01330799 [mEh/K]
  Correction Cp             0.000 [cal/(mol K)]        0.000 [J/(mol K)]       0.00000000 [mEh/K]

  ==> Thermochemistry Energy Analysis <==

  Raw electronic energy, E0
  Total E0, Electronic energy at well bottom at 0 [K]                  -93.39959045 [Eh]

  Zero-point energy, ZPE_vib = Sum_i nu_i / 2
    Electronic ZPE          0.000 [kcal/mol]        0.000 [kJ/mol]       0.00000000 [Eh]
    Translational ZPE       0.000 [kcal/mol]        0.000 [kJ/mol]       0.00000000 [Eh]
    Rotational ZPE          0.000 [kcal/mol]        0.000 [kJ/mol]       0.00000000 [Eh]
    Vibrational ZPE        10.384 [kcal/mol]       43.448 [kJ/mol]       0.01654835 [Eh]        3631.944 [cm^-1]
  Correction ZPE           10.384 [kcal/mol]       43.448 [kJ/mol]       0.01654835 [Eh]        3631.944 [cm^-1]
  Total ZPE, Electronic energy at 0 [K]                                -93.38304210 [Eh]

  Thermal Energy, E (includes ZPE)
    Electronic E            0.000 [kcal/mol]        0.000 [kJ/mol]       0.00000000 [Eh]
    Translational E         0.889 [kcal/mol]        3.718 [kJ/mol]       0.00141628 [Eh]
    Rotational E            0.592 [kcal/mol]        2.479 [kJ/mol]       0.00094418 [Eh]
    Vibrational E          10.493 [kcal/mol]       43.902 [kJ/mol]       0.01672138 [Eh]
  Correction E             11.974 [kcal/mol]       50.099 [kJ/mol]       0.01908184 [Eh]
  Total E, Electronic energy at  298.15 [K]                            -93.38050861 [Eh]

  Enthalpy, H_trans = E_trans + k_B * T
    Electronic H            0.000 [kcal/mol]        0.000 [kJ/mol]       0.00000000 [Eh]
    Translational H         1.481 [kcal/mol]        6.197 [kJ/mol]       0.00236046 [Eh]
    Rotational H            0.592 [kcal/mol]        2.479 [kJ/mol]       0.00094418 [Eh]
    Vibrational H          10.493 [kcal/mol]       43.902 [kJ/mol]       0.01672138 [Eh]
  Correction H             12.567 [kcal/mol]       52.578 [kJ/mol]       0.02002603 [Eh]
  Total H, Enthalpy at  298.15 [K]                                     -93.37956443 [Eh]

  Gibbs free energy, G = H - T * S
    Electronic G            0.000 [kcal/mol]        0.000 [kJ/mol]       0.00000000 [Eh]
    Translational G        -9.197 [kcal/mol]      -38.482 [kJ/mol]      -0.01465703 [Eh]
    Rotational G           -2.930 [kcal/mol]      -12.257 [kJ/mol]      -0.00466863 [Eh]
    Vibrational G          10.356 [kcal/mol]       43.328 [kJ/mol]       0.01650259 [Eh]
  Correction G             -1.772 [kcal/mol]       -7.412 [kJ/mol]      -0.00282307 [Eh]
  Total G, Free enthalpy at  298.15 [K]                                -93.40241352 [Eh]

    Psi4 stopped on: Tuesday, 27 April 2021 06:12PM
    Psi4 wall time for execution: 0:01:09.19

*** Psi4 exiting successfully. Buy a developer a beer!
