
    -----------------------------------------------------------------------
          Psi4: An Open-Source Ab Initio Electronic Structure Package
                               Psi4 1.3.2 release

                         Git: Rev {HEAD} ecbda83 


    R. M. Parrish, L. A. Burns, D. G. A. Smith, A. C. Simmonett,
    A. E. DePrince III, E. G. Hohenstein, U. Bozkaya, A. Yu. Sokolov,
    R. Di Remigio, R. M. Richard, J. F. Gonthier, A. M. James,
    H. R. McAlexander, A. Kumar, M. Saitow, X. Wang, B. P. Pritchard,
    P. Verma, H. F. Schaefer III, K. Patkowski, R. A. King, E. F. Valeev,
    F. A. Evangelista, J. M. Turney, T. D. Crawford, and C. D. Sherrill,
    J. Chem. Theory Comput. 13(7) pp 3185--3197 (2017).
    (doi: 10.1021/acs.jctc.7b00174)


                         Additional Contributions by
    P. Kraus, H. Kruse, M. H. Lechner, M. C. Schieber, R. A. Shaw,
    A. Alenaizan, R. Galvelis, Z. L. Glick, S. Lehtola, and J. P. Misiewicz

    -----------------------------------------------------------------------


    Psi4 started on: Tuesday, 27 April 2021 06:11PM

    Process ID: 39809
    Host:       bp1-compute00100.data.bp.acrc.priv
    PSIDATADIR: /work/zw18965/.conda/envs/p4env/share/psi4
    Memory:     500.0 MiB
    Threads:    24
    
  ==> Input File <==

--------------------------------------------------------------------------
memory 144 GB

molecule {
0 1
F 0.0000000000 0.0000000000 0.0000000000
H 0.0000000000 0.0000000000 0.9157690000
}

set dynamic_level 1
set basis cc-pV(D+d)Z
 
optimize("wB97M-V")
frequencies("wB97M-V")
--------------------------------------------------------------------------

  Memory set to 134.110 GiB by Python driver.
gradient() will perform gradient computation by finite difference of analytic energies.

         ----------------------------------------------------------
                                   FINDIF
                     R. A. King and Jonathon Misiewicz
         ---------------------------------------------------------

  Using finite-differences of energies to determine gradients.
    Generating geometries for use with 3-point formula.
    Displacement size will be 5.00e-03.
    Number of atoms is 2.
    Number of symmetric SALCs is 1.
    Translations projected? 1. Rotations projected? 1.
    Number of geometries (including reference) is 3.

  //>>>>>>>>>>>>>>>>>>>>>>>>>>>>>>>>>>>//
  //    Loading displacement 1 of 3    //
  //<<<<<<<<<<<<<<<<<<<<<<<<<<<<<<<<<<<//

*** tstart() called on bp1-compute00100.data.bp.acrc.priv
*** at Tue Apr 27 18:11:58 2021

   => Loading Basis Set <=

    Name: CC-PV(D+D)Z
    Role: ORBITAL
    Keyword: BASIS
    atoms 1 entry F          line   237 file /work/zw18965/.conda/envs/p4env/share/psi4/basis/cc-pv_dpd_z.gbs 
    atoms 2 entry H          line    31 file /work/zw18965/.conda/envs/p4env/share/psi4/basis/cc-pv_dpd_z.gbs 


         ---------------------------------------------------------
                                   SCF
               by Justin Turney, Rob Parrish, Andy Simmonett
                          and Daniel G. A. Smith
                              RKS Reference
                       24 Threads, 137329 MiB Core
         ---------------------------------------------------------

  ==> Geometry <==

    Molecular point group: c2v
    Full point group: C_inf_v

    Geometry (in Angstrom), charge = 0, multiplicity = 1:

       Center              X                  Y                   Z               Mass       
    ------------   -----------------  -----------------  -----------------  -----------------
         F            0.000000000000     0.000000000000    -0.046132380024    18.998403162730
         H            0.000000000000     0.000000000000     0.869636619976     1.007825032230

  Running in c2v symmetry.

  Rotational constants: A = ************  B =     21.00330  C =     21.00330 [cm^-1]
  Rotational constants: A = ************  B = 629663.18359  C = 629663.18359 [MHz]
  Nuclear repulsion =    5.200650924010313

  Charge       = 0
  Multiplicity = 1
  Electrons    = 10
  Nalpha       = 5
  Nbeta        = 5

  ==> Algorithm <==

  SCF Algorithm Type is DF.
  DIIS enabled.
  MOM disabled.
  Fractional occupation disabled.
  Guess Type is SAD.
  Energy threshold   = 1.00e-08
  Density threshold  = 1.00e-08
  Integral threshold = 0.00e+00

  ==> Primary Basis <==

  Basis Set: CC-PV(D+D)Z
    Blend: CC-PV(D+D)Z
    Number of shells: 9
    Number of basis function: 19
    Number of Cartesian functions: 20
    Spherical Harmonics?: true
    Max angular momentum: 2

  ==> DFT Potential <==

   => Composite Functional: WB97M-V <= 

    wB97M-V Hyb-GGA Exchange-Correlation Functional

    N. Mardirossian and M. Head-Gordon, J. Chem. Phys. 144, 214110 (2016)

    Deriv               =              1
    GGA                 =           TRUE
    Meta                =           TRUE

    Exchange Hybrid     =           TRUE
    MP2 Hybrid          =          FALSE

   => Exchange-Correlation Functionals <=

    1.0000   wB97M-V exchange-correlation functional

   => Exact (HF) Exchange <=

    0.8500            HF,LR [omega = 0.3000]
    0.1500               HF 

   => VV10 Non-Local Parameters <=

    VV10 B              =     6.0000E+00
    VV10 C              =     1.0000E-02

   => Molecular Quadrature <=

    Radial Scheme          =       TREUTLER
    Pruning Scheme         =           FLAT
    Nuclear Scheme         =       TREUTLER

    BS radius alpha        =              1
    Pruning alpha          =              1
    Radial Points          =             75
    Spherical Points       =            302
    Total Points           =          44141
    Total Blocks           =            393
    Max Points             =            256
    Max Functions          =             19

   => Loading Basis Set <=

    Name: (CC-PV(D+D)Z AUX)
    Role: JKFIT
    Keyword: DF_BASIS_SCF
    atoms 1 entry F          line   271 file /work/zw18965/.conda/envs/p4env/share/psi4/basis/cc-pvdz-jkfit.gbs 
    atoms 2 entry H          line    51 file /work/zw18965/.conda/envs/p4env/share/psi4/basis/cc-pvdz-jkfit.gbs 

  ==> Pre-Iterations <==

   -------------------------------------------------------
    Irrep   Nso     Nmo     Nalpha   Nbeta   Ndocc  Nsocc
   -------------------------------------------------------
     A1        10      10       0       0       0       0
     A2         1       1       0       0       0       0
     B1         4       4       0       0       0       0
     B2         4       4       0       0       0       0
   -------------------------------------------------------
    Total      19      19       5       5       5       0
   -------------------------------------------------------

  ==> Integral Setup <==

  ==> DiskDFJK: Density-Fitted J/K Matrices <==

    J tasked:                  Yes
    K tasked:                  Yes
    wK tasked:                 Yes
    Omega:               3.000E-01
    OpenMP threads:             24
    Integrals threads:          24
    Memory [MiB]:           102937
    Algorithm:                Core
    Integral Cache:           NONE
    Schwarz Cutoff:          1E-12
    Fitting Condition:       1E-10

   => Auxiliary Basis Set <=

  Basis Set: (CC-PV(D+D)Z AUX)
    Blend: CC-PVDZ-JKFIT
    Number of shells: 33
    Number of basis function: 93
    Number of Cartesian functions: 106
    Spherical Harmonics?: true
    Max angular momentum: 3

  Cached 100.0% of DFT collocation blocks in 0.058 [GiB].

  Minimum eigenvalue in the overlap matrix is 4.8960783583E-02.
  Using Symmetric Orthogonalization.

  SCF Guess: Superposition of Atomic Densities via on-the-fly atomic UHF.

  ==> Iterations <==

                           Total Energy        Delta E     RMS |[F,P]|

   @DF-RKS iter SAD:  -100.10325211473435   -1.00103e+02   0.00000e+00 
   @DF-RKS iter   1:  -100.36144109134537   -2.58189e-01   3.10733e-02 DIIS
   @DF-RKS iter   2:  -100.37426506869654   -1.28240e-02   2.88916e-02 DIIS
   @DF-RKS iter   3:  -100.40569646558659   -3.14314e-02   1.01573e-03 DIIS
   @DF-RKS iter   4:  -100.40574954376120   -5.30782e-05   2.62337e-04 DIIS
   @DF-RKS iter   5:  -100.40575434582567   -4.80206e-06   2.81088e-05 DIIS
   @DF-RKS iter   6:  -100.40575444465054   -9.88249e-08   3.29186e-06 DIIS
   @DF-RKS iter   7:  -100.40575444648455   -1.83401e-09   3.93731e-07 DIIS
   @DF-RKS iter   8:  -100.40575444650175   -1.71951e-11   2.29407e-08 DIIS
   @DF-RKS iter   9:  -100.40575444650182   -7.10543e-14   1.43071e-09 DIIS
  Energy and wave function converged.


  ==> Post-Iterations <==

    Orbital Energies [Eh]
    ---------------------

    Doubly Occupied:                                                      

       1A1   -24.880362     2A1    -1.304527     3A1    -0.629246  
       1B2    -0.490710     1B1    -0.490710  

    Virtual:                                                              

       4A1     0.130394     5A1     0.672468     2B1     1.239514  
       2B2     1.239514     6A1     1.261161     3B2     1.463725  
       3B1     1.463725     7A1     1.931652     8A1     2.278622  
       1A2     3.720452     9A1     3.720453     4B2     3.978392  
       4B1     3.978392    10A1     4.720735  

    Final Occupation by Irrep:
             A1    A2    B1    B2 
    DOCC [     3,    0,    1,    1 ]

  @DF-RKS Final Energy:  -100.40575444650182

   => Energetics <=

    Nuclear Repulsion Energy =              5.2006509240103131
    One-Electron Energy =                -150.6634072756738192
    Two-Electron Energy =                  52.9516157890960812
    DFT Exchange-Correlation Energy =      -7.9380790772498564
    Empirical Dispersion Energy =           0.0000000000000000
    VV10 Nonlocal Energy =                  0.0434651933154565
    Total Energy =                       -100.4057544465018168

Computation Completed


Properties will be evaluated at   0.000000,   0.000000,   0.000000 [a0]

Properties computed using the SCF density matrix

  Nuclear Dipole Moment: [e a0]
     X:     0.0000      Y:     0.0000      Z:     0.8588

  Electronic Dipole Moment: [e a0]
     X:     0.0000      Y:     0.0000      Z:    -0.1505

  Dipole Moment: [e a0]
     X:     0.0000      Y:     0.0000      Z:     0.7083     Total:     0.7083

  Dipole Moment: [D]
     X:     0.0000      Y:     0.0000      Z:     1.8004     Total:     1.8004


*** tstop() called on bp1-compute00100.data.bp.acrc.priv at Tue Apr 27 18:12:01 2021
Module time:
	user time   =      44.44 seconds =       0.74 minutes
	system time =       1.68 seconds =       0.03 minutes
	total time  =          3 seconds =       0.05 minutes
Total time:
	user time   =      44.44 seconds =       0.74 minutes
	system time =       1.68 seconds =       0.03 minutes
	total time  =          3 seconds =       0.05 minutes

  //>>>>>>>>>>>>>>>>>>>>>>>>>>>>>>>>>>>//
  //    Loading displacement 2 of 3    //
  //<<<<<<<<<<<<<<<<<<<<<<<<<<<<<<<<<<<//

*** tstart() called on bp1-compute00100.data.bp.acrc.priv
*** at Tue Apr 27 18:12:01 2021

   => Loading Basis Set <=

    Name: CC-PV(D+D)Z
    Role: ORBITAL
    Keyword: BASIS
    atoms 1 entry F          line   237 file /work/zw18965/.conda/envs/p4env/share/psi4/basis/cc-pv_dpd_z.gbs 
    atoms 2 entry H          line    31 file /work/zw18965/.conda/envs/p4env/share/psi4/basis/cc-pv_dpd_z.gbs 


         ---------------------------------------------------------
                                   SCF
               by Justin Turney, Rob Parrish, Andy Simmonett
                          and Daniel G. A. Smith
                              RKS Reference
                       24 Threads, 137329 MiB Core
         ---------------------------------------------------------

  ==> Geometry <==

    Molecular point group: c2v
    Full point group: C_inf_v

    Geometry (in Angstrom), charge = 0, multiplicity = 1:

       Center              X                  Y                   Z               Mass       
    ------------   -----------------  -----------------  -----------------  -----------------
         F            0.000000000000     0.000000000000    -0.046268625644    18.998403162730
         H            0.000000000000     0.000000000000     0.872204971754     1.007825032230

  Running in c2v symmetry.

  Rotational constants: A = ************  B =     20.87979  C =     20.87979 [cm^-1]
  Rotational constants: A = ************  B = 625960.34869  C = 625960.34869 [MHz]
  Nuclear repulsion =    5.185336747319763

  Charge       = 0
  Multiplicity = 1
  Electrons    = 10
  Nalpha       = 5
  Nbeta        = 5

  ==> Algorithm <==

  SCF Algorithm Type is DF.
  DIIS enabled.
  MOM disabled.
  Fractional occupation disabled.
  Guess Type is SAD.
  Energy threshold   = 1.00e-08
  Density threshold  = 1.00e-08
  Integral threshold = 0.00e+00

  ==> Primary Basis <==

  Basis Set: CC-PV(D+D)Z
    Blend: CC-PV(D+D)Z
    Number of shells: 9
    Number of basis function: 19
    Number of Cartesian functions: 20
    Spherical Harmonics?: true
    Max angular momentum: 2

  ==> DFT Potential <==

   => Composite Functional: WB97M-V <= 

    wB97M-V Hyb-GGA Exchange-Correlation Functional

    N. Mardirossian and M. Head-Gordon, J. Chem. Phys. 144, 214110 (2016)

    Deriv               =              1
    GGA                 =           TRUE
    Meta                =           TRUE

    Exchange Hybrid     =           TRUE
    MP2 Hybrid          =          FALSE

   => Exchange-Correlation Functionals <=

    1.0000   wB97M-V exchange-correlation functional

   => Exact (HF) Exchange <=

    0.8500            HF,LR [omega = 0.3000]
    0.1500               HF 

   => VV10 Non-Local Parameters <=

    VV10 B              =     6.0000E+00
    VV10 C              =     1.0000E-02

   => Molecular Quadrature <=

    Radial Scheme          =       TREUTLER
    Pruning Scheme         =           FLAT
    Nuclear Scheme         =       TREUTLER

    BS radius alpha        =              1
    Pruning alpha          =              1
    Radial Points          =             75
    Spherical Points       =            302
    Total Points           =          44141
    Total Blocks           =            393
    Max Points             =            256
    Max Functions          =             19

   => Loading Basis Set <=

    Name: (CC-PV(D+D)Z AUX)
    Role: JKFIT
    Keyword: DF_BASIS_SCF
    atoms 1 entry F          line   271 file /work/zw18965/.conda/envs/p4env/share/psi4/basis/cc-pvdz-jkfit.gbs 
    atoms 2 entry H          line    51 file /work/zw18965/.conda/envs/p4env/share/psi4/basis/cc-pvdz-jkfit.gbs 

  ==> Pre-Iterations <==

   -------------------------------------------------------
    Irrep   Nso     Nmo     Nalpha   Nbeta   Ndocc  Nsocc
   -------------------------------------------------------
     A1        10      10       0       0       0       0
     A2         1       1       0       0       0       0
     B1         4       4       0       0       0       0
     B2         4       4       0       0       0       0
   -------------------------------------------------------
    Total      19      19       5       5       5       0
   -------------------------------------------------------

  ==> Integral Setup <==

  ==> DiskDFJK: Density-Fitted J/K Matrices <==

    J tasked:                  Yes
    K tasked:                  Yes
    wK tasked:                 Yes
    Omega:               3.000E-01
    OpenMP threads:             24
    Integrals threads:          24
    Memory [MiB]:           102937
    Algorithm:                Core
    Integral Cache:           NONE
    Schwarz Cutoff:          1E-12
    Fitting Condition:       1E-10

   => Auxiliary Basis Set <=

  Basis Set: (CC-PV(D+D)Z AUX)
    Blend: CC-PVDZ-JKFIT
    Number of shells: 33
    Number of basis function: 93
    Number of Cartesian functions: 106
    Spherical Harmonics?: true
    Max angular momentum: 3

  Cached 100.0% of DFT collocation blocks in 0.058 [GiB].

  Minimum eigenvalue in the overlap matrix is 4.9306540794E-02.
  Using Symmetric Orthogonalization.

  SCF Guess: Superposition of Atomic Densities via on-the-fly atomic UHF.

  ==> Iterations <==

                           Total Energy        Delta E     RMS |[F,P]|

   @DF-RKS iter SAD:  -100.10177777138553   -1.00102e+02   0.00000e+00 
   @DF-RKS iter   1:  -100.36138434886890   -2.59607e-01   3.10741e-02 DIIS
   @DF-RKS iter   2:  -100.37415666107650   -1.27723e-02   2.89539e-02 DIIS
   @DF-RKS iter   3:  -100.40574255665140   -3.15859e-02   1.02173e-03 DIIS
   @DF-RKS iter   4:  -100.40579626412814   -5.37075e-05   2.65333e-04 DIIS
   @DF-RKS iter   5:  -100.40580117357213   -4.90944e-06   2.84058e-05 DIIS
   @DF-RKS iter   6:  -100.40580127436769   -1.00796e-07   3.31253e-06 DIIS
   @DF-RKS iter   7:  -100.40580127622079   -1.85310e-09   3.97403e-07 DIIS
   @DF-RKS iter   8:  -100.40580127623821   -1.74225e-11   2.33253e-08 DIIS
   @DF-RKS iter   9:  -100.40580127623835   -1.42109e-13   1.44780e-09 DIIS
  Energy and wave function converged.


  ==> Post-Iterations <==

    Orbital Energies [Eh]
    ---------------------

    Doubly Occupied:                                                      

       1A1   -24.880428     2A1    -1.303659     3A1    -0.628587  
       1B2    -0.490468     1B1    -0.490468  

    Virtual:                                                              

       4A1     0.129770     5A1     0.669974     2B2     1.238826  
       2B1     1.238826     6A1     1.261864     3B2     1.463807  
       3B1     1.463807     7A1     1.931706     8A1     2.271782  
       1A2     3.720691     9A1     3.720692     4B2     3.975792  
       4B1     3.975792    10A1     4.716951  

    Final Occupation by Irrep:
             A1    A2    B1    B2 
    DOCC [     3,    0,    1,    1 ]

  @DF-RKS Final Energy:  -100.40580127623835

   => Energetics <=

    Nuclear Repulsion Energy =              5.1853367473197629
    One-Electron Energy =                -150.6374166109875716
    Two-Electron Energy =                  52.9397864368749822
    DFT Exchange-Correlation Energy =      -7.9369719685266240
    Empirical Dispersion Energy =           0.0000000000000000
    VV10 Nonlocal Energy =                  0.0434641190811012
    Total Energy =                       -100.4058012762383498

Computation Completed


Properties will be evaluated at   0.000000,   0.000000,   0.000000 [a0]

Properties computed using the SCF density matrix

  Nuclear Dipole Moment: [e a0]
     X:     0.0000      Y:     0.0000      Z:     0.8613

  Electronic Dipole Moment: [e a0]
     X:     0.0000      Y:     0.0000      Z:    -0.1514

  Dipole Moment: [e a0]
     X:     0.0000      Y:     0.0000      Z:     0.7099     Total:     0.7099

  Dipole Moment: [D]
     X:     0.0000      Y:     0.0000      Z:     1.8044     Total:     1.8044


*** tstop() called on bp1-compute00100.data.bp.acrc.priv at Tue Apr 27 18:12:03 2021
Module time:
	user time   =      46.23 seconds =       0.77 minutes
	system time =       1.61 seconds =       0.03 minutes
	total time  =          2 seconds =       0.03 minutes
Total time:
	user time   =      90.83 seconds =       1.51 minutes
	system time =       3.29 seconds =       0.05 minutes
	total time  =          5 seconds =       0.08 minutes

  //>>>>>>>>>>>>>>>>>>>>>>>>>>>>>>>>>>>//
  //    Loading displacement 3 of 3    //
  //<<<<<<<<<<<<<<<<<<<<<<<<<<<<<<<<<<<//

*** tstart() called on bp1-compute00100.data.bp.acrc.priv
*** at Tue Apr 27 18:12:03 2021

   => Loading Basis Set <=

    Name: CC-PV(D+D)Z
    Role: ORBITAL
    Keyword: BASIS
    atoms 1 entry F          line   237 file /work/zw18965/.conda/envs/p4env/share/psi4/basis/cc-pv_dpd_z.gbs 
    atoms 2 entry H          line    31 file /work/zw18965/.conda/envs/p4env/share/psi4/basis/cc-pv_dpd_z.gbs 


         ---------------------------------------------------------
                                   SCF
               by Justin Turney, Rob Parrish, Andy Simmonett
                          and Daniel G. A. Smith
                              RKS Reference
                       24 Threads, 137329 MiB Core
         ---------------------------------------------------------

  ==> Geometry <==

    Molecular point group: c2v
    Full point group: C_inf_v

    Geometry (in Angstrom), charge = 0, multiplicity = 1:

       Center              X                  Y                   Z               Mass       
    ------------   -----------------  -----------------  -----------------  -----------------
         F            0.000000000000     0.000000000000    -0.045996134404    18.998403162730
         H            0.000000000000     0.000000000000     0.867068268198     1.007825032230

  Running in c2v symmetry.

  Rotational constants: A = ************  B =     21.12792  C =     21.12792 [cm^-1]
  Rotational constants: A = ************  B = 633398.97182  C = 633398.97182 [MHz]
  Nuclear repulsion =    5.216055825259414

  Charge       = 0
  Multiplicity = 1
  Electrons    = 10
  Nalpha       = 5
  Nbeta        = 5

  ==> Algorithm <==

  SCF Algorithm Type is DF.
  DIIS enabled.
  MOM disabled.
  Fractional occupation disabled.
  Guess Type is SAD.
  Energy threshold   = 1.00e-08
  Density threshold  = 1.00e-08
  Integral threshold = 0.00e+00

  ==> Primary Basis <==

  Basis Set: CC-PV(D+D)Z
    Blend: CC-PV(D+D)Z
    Number of shells: 9
    Number of basis function: 19
    Number of Cartesian functions: 20
    Spherical Harmonics?: true
    Max angular momentum: 2

  ==> DFT Potential <==

   => Composite Functional: WB97M-V <= 

    wB97M-V Hyb-GGA Exchange-Correlation Functional

    N. Mardirossian and M. Head-Gordon, J. Chem. Phys. 144, 214110 (2016)

    Deriv               =              1
    GGA                 =           TRUE
    Meta                =           TRUE

    Exchange Hybrid     =           TRUE
    MP2 Hybrid          =          FALSE

   => Exchange-Correlation Functionals <=

    1.0000   wB97M-V exchange-correlation functional

   => Exact (HF) Exchange <=

    0.8500            HF,LR [omega = 0.3000]
    0.1500               HF 

   => VV10 Non-Local Parameters <=

    VV10 B              =     6.0000E+00
    VV10 C              =     1.0000E-02

   => Molecular Quadrature <=

    Radial Scheme          =       TREUTLER
    Pruning Scheme         =           FLAT
    Nuclear Scheme         =       TREUTLER

    BS radius alpha        =              1
    Pruning alpha          =              1
    Radial Points          =             75
    Spherical Points       =            302
    Total Points           =          44141
    Total Blocks           =            393
    Max Points             =            256
    Max Functions          =             19

   => Loading Basis Set <=

    Name: (CC-PV(D+D)Z AUX)
    Role: JKFIT
    Keyword: DF_BASIS_SCF
    atoms 1 entry F          line   271 file /work/zw18965/.conda/envs/p4env/share/psi4/basis/cc-pvdz-jkfit.gbs 
    atoms 2 entry H          line    51 file /work/zw18965/.conda/envs/p4env/share/psi4/basis/cc-pvdz-jkfit.gbs 

  ==> Pre-Iterations <==

   -------------------------------------------------------
    Irrep   Nso     Nmo     Nalpha   Nbeta   Ndocc  Nsocc
   -------------------------------------------------------
     A1        10      10       0       0       0       0
     A2         1       1       0       0       0       0
     B1         4       4       0       0       0       0
     B2         4       4       0       0       0       0
   -------------------------------------------------------
    Total      19      19       5       5       5       0
   -------------------------------------------------------

  ==> Integral Setup <==

  ==> DiskDFJK: Density-Fitted J/K Matrices <==

    J tasked:                  Yes
    K tasked:                  Yes
    wK tasked:                 Yes
    Omega:               3.000E-01
    OpenMP threads:             24
    Integrals threads:          24
    Memory [MiB]:           102937
    Algorithm:                Core
    Integral Cache:           NONE
    Schwarz Cutoff:          1E-12
    Fitting Condition:       1E-10

   => Auxiliary Basis Set <=

  Basis Set: (CC-PV(D+D)Z AUX)
    Blend: CC-PVDZ-JKFIT
    Number of shells: 33
    Number of basis function: 93
    Number of Cartesian functions: 106
    Spherical Harmonics?: true
    Max angular momentum: 3

  Cached 100.0% of DFT collocation blocks in 0.058 [GiB].

  Minimum eigenvalue in the overlap matrix is 4.8616202237E-02.
  Using Symmetric Orthogonalization.

  SCF Guess: Superposition of Atomic Densities via on-the-fly atomic UHF.

  ==> Iterations <==

                           Total Energy        Delta E     RMS |[F,P]|

   @DF-RKS iter SAD:  -100.10471858647885   -1.00105e+02   0.00000e+00 
   @DF-RKS iter   1:  -100.36147861800426   -2.56760e-01   3.10733e-02 DIIS
   @DF-RKS iter   2:  -100.37435400538688   -1.28754e-02   2.88303e-02 DIIS
   @DF-RKS iter   3:  -100.40563367000743   -3.12797e-02   1.00977e-03 DIIS
   @DF-RKS iter   4:  -100.40568612655929   -5.24566e-05   2.59375e-04 DIIS
   @DF-RKS iter   5:  -100.40569082289458   -4.69634e-06   2.78117e-05 DIIS
   @DF-RKS iter   6:  -100.40569091975662   -9.68620e-08   3.27092e-06 DIIS
   @DF-RKS iter   7:  -100.40569092157153   -1.81491e-09   3.90070e-07 DIIS
   @DF-RKS iter   8:  -100.40569092158844   -1.69109e-11   2.25608e-08 DIIS
   @DF-RKS iter   9:  -100.40569092158846   -1.42109e-14   1.41379e-09 DIIS
  Energy and wave function converged.


  ==> Post-Iterations <==

    Orbital Energies [Eh]
    ---------------------

    Doubly Occupied:                                                      

       1A1   -24.880296     2A1    -1.305403     3A1    -0.629906  
       1B1    -0.490952     1B2    -0.490952  

    Virtual:                                                              

       4A1     0.131015     5A1     0.674984     2B2     1.240197  
       2B1     1.240197     6A1     1.260464     3B1     1.463651  
       3B2     1.463651     7A1     1.931587     8A1     2.285525  
       1A2     3.720212     9A1     3.720212     4B1     3.981008  
       4B2     3.981008    10A1     4.724517  

    Final Occupation by Irrep:
             A1    A2    B1    B2 
    DOCC [     3,    0,    1,    1 ]

  @DF-RKS Final Energy:  -100.40569092158846

   => Energetics <=

    Nuclear Repulsion Energy =              5.2160558252594145
    One-Electron Energy =                -150.6895218445104661
    Two-Electron Energy =                  52.9635019352498873
    DFT Exchange-Correlation Energy =      -7.9391931139354854
    Empirical Dispersion Energy =           0.0000000000000000
    VV10 Nonlocal Energy =                  0.0434662763481864
    Total Energy =                       -100.4056909215884588

Computation Completed


Properties will be evaluated at   0.000000,   0.000000,   0.000000 [a0]

Properties computed using the SCF density matrix

  Nuclear Dipole Moment: [e a0]
     X:     0.0000      Y:     0.0000      Z:     0.8562

  Electronic Dipole Moment: [e a0]
     X:     0.0000      Y:     0.0000      Z:    -0.1495

  Dipole Moment: [e a0]
     X:     0.0000      Y:     0.0000      Z:     0.7067     Total:     0.7067

  Dipole Moment: [D]
     X:     0.0000      Y:     0.0000      Z:     1.7963     Total:     1.7963


*** tstop() called on bp1-compute00100.data.bp.acrc.priv at Tue Apr 27 18:12:04 2021
Module time:
	user time   =      42.69 seconds =       0.71 minutes
	system time =       1.50 seconds =       0.02 minutes
	total time  =          1 seconds =       0.02 minutes
Total time:
	user time   =     133.67 seconds =       2.23 minutes
	system time =       4.80 seconds =       0.08 minutes
	total time  =          6 seconds =       0.10 minutes

         ----------------------------------------------------------
                                   FINDIF
                     R. A. King and Jonathon Misiewicz
         ---------------------------------------------------------

  Computing gradient from energies.
    Using 3-point formula.
    Energy without displacement: -100.4057544465
    Check energies below for precision!
    Forces are for mass-weighted, symmetry-adapted cartesians (in au).

     Coord      Energy(-1)        Energy(+1)            Force
        0   -100.4058012762   -100.4056909216      0.0110354650


-------------------------------------------------------------
  ## New Matrix (Symmetry 0) ##
  Irrep: 1 Size: 2 x 3

                 1                   2                   3

    1     0.00000000000000     0.00000000000000     0.01079590734289
    2     0.00000000000000     0.00000000000000    -0.01079590734289




			-----------------------------------------
			 OPTKING 2.0: for geometry optimizations 
			  - R.A. King,  Bethel University        
			-----------------------------------------
	At level 1: Red. Int., RFO, no backsteps, dynamic trust

	Internal coordinates to be generated automatically.
	Detected frag 1 with atoms:  1 2
	---Fragment 1 Bond Connectivity---
	 1 : 2
	 2 : 1

	---Fragment 1 Geometry and Gradient---
	 F           0.0000000000        0.0000000000       -0.0871775638
	 H           0.0000000000        0.0000000000        1.6433750404
	             0.0000000000        0.0000000000        0.0107959073
	             0.0000000000        0.0000000000       -0.0107959073

	Previous optimization step data not found.  Starting new optimization.

	---Fragment 1 Intrafragment Coordinates---
	 - Coordinate -           - BOHR/RAD -       - ANG/DEG -
	 R(1,2)           =         1.730553	       0.915769

	Current energy   :      -100.4057544465

	Generating empirical Hessian (Schlegel '84) for each fragment.
	Taking RFO optimization step.
	Going to follow RFO solution 1.
	Using RFO vector 1.
	Norm of target step-size    0.01631
	Projected energy change by RFO approximation:        -0.0000430802

	Back-transformation to cartesian coordinates...
	Successfully converged to displaced geometry.

	--- Internal Coordinate Step in ANG or DEG, aJ/ANG or AJ/DEG ---
	 ---------------------------------------------------------------------------
	   Coordinate                Previous        Force       Change         New 
	   ----------                --------       ------       ------       ------
	    1 R(1,2)          =      0.915769     0.088944     0.008629     0.924398
	 ---------------------------------------------------------------------------
	Successfully symmetrized geometry.

  ==> Convergence Check <==

  Measures of convergence in internal coordinates in au.
  Criteria marked as inactive (o), active & met (*), and active & unmet ( ).
  --------------------------------------------------------------------------------------------- ~
   Step     Total Energy     Delta E     MAX Force     RMS Force      MAX Disp      RMS Disp    ~
  --------------------------------------------------------------------------------------------- ~
    Convergence Criteria    1.00e-06 *    3.00e-04 *             o    1.20e-03 *             o  ~
  --------------------------------------------------------------------------------------------- ~
      1    -100.40575445   -1.00e+02      1.08e-02      1.08e-02 o    1.63e-02      1.63e-02 o  ~
  ---------------------------------------------------------------------------------------------

	Writing optimization data to binary file.
	Structure for next step:
	Cartesian Geometry (in Angstrom)
	    F     0.0000000000   0.0000000000  -0.0504469320
	    H     0.0000000000   0.0000000000   0.8739511687
			--------------------------
			 OPTKING Finished Execution 
			--------------------------

    Structure for next step:
    Molecular point group: c2v
    Full point group: C_inf_v

    Geometry (in Angstrom), charge = 0, multiplicity = 1:

    F            0.000000000000     0.000000000000    -0.046567076023
    H            0.000000000000     0.000000000000     0.877831028310

gradient() will perform gradient computation by finite difference of analytic energies.

         ----------------------------------------------------------
                                   FINDIF
                     R. A. King and Jonathon Misiewicz
         ---------------------------------------------------------

  Using finite-differences of energies to determine gradients.
    Generating geometries for use with 3-point formula.
    Displacement size will be 5.00e-03.
    Number of atoms is 2.
    Number of symmetric SALCs is 1.
    Translations projected? 1. Rotations projected? 1.
    Number of geometries (including reference) is 3.

  //>>>>>>>>>>>>>>>>>>>>>>>>>>>>>>>>>>>//
  //    Loading displacement 1 of 3    //
  //<<<<<<<<<<<<<<<<<<<<<<<<<<<<<<<<<<<//

*** tstart() called on bp1-compute00100.data.bp.acrc.priv
*** at Tue Apr 27 18:12:04 2021

   => Loading Basis Set <=

    Name: CC-PV(D+D)Z
    Role: ORBITAL
    Keyword: BASIS
    atoms 1 entry F          line   237 file /work/zw18965/.conda/envs/p4env/share/psi4/basis/cc-pv_dpd_z.gbs 
    atoms 2 entry H          line    31 file /work/zw18965/.conda/envs/p4env/share/psi4/basis/cc-pv_dpd_z.gbs 


         ---------------------------------------------------------
                                   SCF
               by Justin Turney, Rob Parrish, Andy Simmonett
                          and Daniel G. A. Smith
                              RKS Reference
                       24 Threads, 137329 MiB Core
         ---------------------------------------------------------

  ==> Geometry <==

    Molecular point group: c2v
    Full point group: C_inf_v

    Geometry (in Angstrom), charge = 0, multiplicity = 1:

       Center              X                  Y                   Z               Mass       
    ------------   -----------------  -----------------  -----------------  -----------------
         F            0.000000000000     0.000000000000    -0.046567076023    18.998403162730
         H            0.000000000000     0.000000000000     0.877831028310     1.007825032230

  Running in c2v symmetry.

  Rotational constants: A = ************  B =     20.61301  C =     20.61301 [cm^-1]
  Rotational constants: A = ************  B = 617962.44730  C = 617962.44730 [MHz]
  Nuclear repulsion =    5.152103702620493

  Charge       = 0
  Multiplicity = 1
  Electrons    = 10
  Nalpha       = 5
  Nbeta        = 5

  ==> Algorithm <==

  SCF Algorithm Type is DF.
  DIIS enabled.
  MOM disabled.
  Fractional occupation disabled.
  Guess Type is READ.
  Energy threshold   = 1.00e-08
  Density threshold  = 1.00e-08
  Integral threshold = 0.00e+00

  ==> Primary Basis <==

  Basis Set: CC-PV(D+D)Z
    Blend: CC-PV(D+D)Z
    Number of shells: 9
    Number of basis function: 19
    Number of Cartesian functions: 20
    Spherical Harmonics?: true
    Max angular momentum: 2

  ==> DFT Potential <==

   => Composite Functional: WB97M-V <= 

    wB97M-V Hyb-GGA Exchange-Correlation Functional

    N. Mardirossian and M. Head-Gordon, J. Chem. Phys. 144, 214110 (2016)

    Deriv               =              1
    GGA                 =           TRUE
    Meta                =           TRUE

    Exchange Hybrid     =           TRUE
    MP2 Hybrid          =          FALSE

   => Exchange-Correlation Functionals <=

    1.0000   wB97M-V exchange-correlation functional

   => Exact (HF) Exchange <=

    0.8500            HF,LR [omega = 0.3000]
    0.1500               HF 

   => VV10 Non-Local Parameters <=

    VV10 B              =     6.0000E+00
    VV10 C              =     1.0000E-02

   => Molecular Quadrature <=

    Radial Scheme          =       TREUTLER
    Pruning Scheme         =           FLAT
    Nuclear Scheme         =       TREUTLER

    BS radius alpha        =              1
    Pruning alpha          =              1
    Radial Points          =             75
    Spherical Points       =            302
    Total Points           =          44141
    Total Blocks           =            393
    Max Points             =            256
    Max Functions          =             19

   => Loading Basis Set <=

    Name: (CC-PV(D+D)Z AUX)
    Role: JKFIT
    Keyword: DF_BASIS_SCF
    atoms 1 entry F          line   271 file /work/zw18965/.conda/envs/p4env/share/psi4/basis/cc-pvdz-jkfit.gbs 
    atoms 2 entry H          line    51 file /work/zw18965/.conda/envs/p4env/share/psi4/basis/cc-pvdz-jkfit.gbs 

   => Loading Basis Set <=

    Name: CC-PV(D+D)Z
    Role: ORBITAL
    Keyword: BASIS
    atoms 1 entry F          line   237 file /work/zw18965/.conda/envs/p4env/share/psi4/basis/cc-pv_dpd_z.gbs 
    atoms 2 entry H          line    31 file /work/zw18965/.conda/envs/p4env/share/psi4/basis/cc-pv_dpd_z.gbs 

  Reading orbitals from file 180, no projection.

  ==> Pre-Iterations <==

   -------------------------------------------------------
    Irrep   Nso     Nmo     Nalpha   Nbeta   Ndocc  Nsocc
   -------------------------------------------------------
     A1        10      10       0       0       0       0
     A2         1       1       0       0       0       0
     B1         4       4       0       0       0       0
     B2         4       4       0       0       0       0
   -------------------------------------------------------
    Total      19      19       5       5       5       0
   -------------------------------------------------------

  ==> Integral Setup <==

  ==> DiskDFJK: Density-Fitted J/K Matrices <==

    J tasked:                  Yes
    K tasked:                  Yes
    wK tasked:                 Yes
    Omega:               3.000E-01
    OpenMP threads:             24
    Integrals threads:          24
    Memory [MiB]:           102937
    Algorithm:                Core
    Integral Cache:           NONE
    Schwarz Cutoff:          1E-12
    Fitting Condition:       1E-10

   => Auxiliary Basis Set <=

  Basis Set: (CC-PV(D+D)Z AUX)
    Blend: CC-PVDZ-JKFIT
    Number of shells: 33
    Number of basis function: 93
    Number of Cartesian functions: 106
    Spherical Harmonics?: true
    Max angular momentum: 3

  Cached 100.0% of DFT collocation blocks in 0.058 [GiB].

  Minimum eigenvalue in the overlap matrix is 5.0068032611E-02.
  Using Symmetric Orthogonalization.

  SCF Guess: Orbitals guess was supplied from a previous computation.

  ==> Iterations <==

                           Total Energy        Delta E     RMS |[F,P]|

   @DF-RKS iter   0:  -100.39912295499708   -1.00399e+02   2.29455e-03 
   @DF-RKS iter   1:  -100.40584091815055   -6.71796e-03   3.76796e-04 DIIS
   @DF-RKS iter   2:  -100.40584467557019   -3.75742e-06   2.55170e-04 DIIS
   @DF-RKS iter   3:  -100.40584701672418   -2.34115e-06   4.06989e-05 DIIS
   @DF-RKS iter   4:  -100.40584709930089   -8.25767e-08   7.55917e-06 DIIS
   @DF-RKS iter   5:  -100.40584710448404   -5.18315e-09   5.10899e-07 DIIS
   @DF-RKS iter   6:  -100.40584710452293   -3.88951e-11   2.74988e-08 DIIS
   @DF-RKS iter   7:  -100.40584710452295   -1.42109e-14   1.63745e-09 DIIS
  Energy and wave function converged.


  ==> Post-Iterations <==

    Orbital Energies [Eh]
    ---------------------

    Doubly Occupied:                                                      

       1A1   -24.880568     2A1    -1.301781     3A1    -0.627148  
       1B1    -0.489943     1B2    -0.489943  

    Virtual:                                                              

       4A1     0.128390     5A1     0.664589     2B2     1.237303  
       2B1     1.237303     6A1     1.263424     3B2     1.464015  
       3B1     1.464015     7A1     1.931778     8A1     2.257025  
       1A2     3.721211     9A1     3.721211     4B1     3.970151  
       4B2     3.970151    10A1     4.708651  

    Final Occupation by Irrep:
             A1    A2    B1    B2 
    DOCC [     3,    0,    1,    1 ]

  @DF-RKS Final Energy:  -100.40584710452295

   => Energetics <=

    Nuclear Repulsion Energy =              5.1521037026204928
    One-Electron Energy =                -150.5809120639971184
    Two-Electron Energy =                  52.9140702228863660
    DFT Exchange-Correlation Energy =      -7.9345707626362492
    Empirical Dispersion Energy =           0.0000000000000000
    VV10 Nonlocal Energy =                  0.0434617966035804
    Total Energy =                       -100.4058471045229481

Computation Completed


Properties will be evaluated at   0.000000,   0.000000,   0.000000 [a0]

Properties computed using the SCF density matrix

  Nuclear Dipole Moment: [e a0]
     X:     0.0000      Y:     0.0000      Z:     0.8669

  Electronic Dipole Moment: [e a0]
     X:     0.0000      Y:     0.0000      Z:    -0.1535

  Dipole Moment: [e a0]
     X:     0.0000      Y:     0.0000      Z:     0.7134     Total:     0.7134

  Dipole Moment: [D]
     X:     0.0000      Y:     0.0000      Z:     1.8132     Total:     1.8132


*** tstop() called on bp1-compute00100.data.bp.acrc.priv at Tue Apr 27 18:12:06 2021
Module time:
	user time   =      32.63 seconds =       0.54 minutes
	system time =       0.92 seconds =       0.02 minutes
	total time  =          2 seconds =       0.03 minutes
Total time:
	user time   =     166.76 seconds =       2.78 minutes
	system time =       5.74 seconds =       0.10 minutes
	total time  =          8 seconds =       0.13 minutes

  //>>>>>>>>>>>>>>>>>>>>>>>>>>>>>>>>>>>//
  //    Loading displacement 2 of 3    //
  //<<<<<<<<<<<<<<<<<<<<<<<<<<<<<<<<<<<//

*** tstart() called on bp1-compute00100.data.bp.acrc.priv
*** at Tue Apr 27 18:12:06 2021

   => Loading Basis Set <=

    Name: CC-PV(D+D)Z
    Role: ORBITAL
    Keyword: BASIS
    atoms 1 entry F          line   237 file /work/zw18965/.conda/envs/p4env/share/psi4/basis/cc-pv_dpd_z.gbs 
    atoms 2 entry H          line    31 file /work/zw18965/.conda/envs/p4env/share/psi4/basis/cc-pv_dpd_z.gbs 


         ---------------------------------------------------------
                                   SCF
               by Justin Turney, Rob Parrish, Andy Simmonett
                          and Daniel G. A. Smith
                              RKS Reference
                       24 Threads, 137329 MiB Core
         ---------------------------------------------------------

  ==> Geometry <==

    Molecular point group: c2v
    Full point group: C_inf_v

    Geometry (in Angstrom), charge = 0, multiplicity = 1:

       Center              X                  Y                   Z               Mass       
    ------------   -----------------  -----------------  -----------------  -----------------
         F            0.000000000000     0.000000000000    -0.046703321643    18.998403162730
         H            0.000000000000     0.000000000000     0.880399380088     1.007825032230

  Running in c2v symmetry.

  Rotational constants: A = ************  B =     20.49292  C =     20.49292 [cm^-1]
  Rotational constants: A = ************  B = 614362.19512  C = 614362.19512 [MHz]
  Nuclear repulsion =    5.137073688964512

  Charge       = 0
  Multiplicity = 1
  Electrons    = 10
  Nalpha       = 5
  Nbeta        = 5

  ==> Algorithm <==

  SCF Algorithm Type is DF.
  DIIS enabled.
  MOM disabled.
  Fractional occupation disabled.
  Guess Type is READ.
  Energy threshold   = 1.00e-08
  Density threshold  = 1.00e-08
  Integral threshold = 0.00e+00

  ==> Primary Basis <==

  Basis Set: CC-PV(D+D)Z
    Blend: CC-PV(D+D)Z
    Number of shells: 9
    Number of basis function: 19
    Number of Cartesian functions: 20
    Spherical Harmonics?: true
    Max angular momentum: 2

  ==> DFT Potential <==

   => Composite Functional: WB97M-V <= 

    wB97M-V Hyb-GGA Exchange-Correlation Functional

    N. Mardirossian and M. Head-Gordon, J. Chem. Phys. 144, 214110 (2016)

    Deriv               =              1
    GGA                 =           TRUE
    Meta                =           TRUE

    Exchange Hybrid     =           TRUE
    MP2 Hybrid          =          FALSE

   => Exchange-Correlation Functionals <=

    1.0000   wB97M-V exchange-correlation functional

   => Exact (HF) Exchange <=

    0.8500            HF,LR [omega = 0.3000]
    0.1500               HF 

   => VV10 Non-Local Parameters <=

    VV10 B              =     6.0000E+00
    VV10 C              =     1.0000E-02

   => Molecular Quadrature <=

    Radial Scheme          =       TREUTLER
    Pruning Scheme         =           FLAT
    Nuclear Scheme         =       TREUTLER

    BS radius alpha        =              1
    Pruning alpha          =              1
    Radial Points          =             75
    Spherical Points       =            302
    Total Points           =          44141
    Total Blocks           =            393
    Max Points             =            256
    Max Functions          =             19

   => Loading Basis Set <=

    Name: (CC-PV(D+D)Z AUX)
    Role: JKFIT
    Keyword: DF_BASIS_SCF
    atoms 1 entry F          line   271 file /work/zw18965/.conda/envs/p4env/share/psi4/basis/cc-pvdz-jkfit.gbs 
    atoms 2 entry H          line    51 file /work/zw18965/.conda/envs/p4env/share/psi4/basis/cc-pvdz-jkfit.gbs 

   => Loading Basis Set <=

    Name: CC-PV(D+D)Z
    Role: ORBITAL
    Keyword: BASIS
    atoms 1 entry F          line   237 file /work/zw18965/.conda/envs/p4env/share/psi4/basis/cc-pv_dpd_z.gbs 
    atoms 2 entry H          line    31 file /work/zw18965/.conda/envs/p4env/share/psi4/basis/cc-pv_dpd_z.gbs 

  Reading orbitals from file 180, no projection.

  ==> Pre-Iterations <==

   -------------------------------------------------------
    Irrep   Nso     Nmo     Nalpha   Nbeta   Ndocc  Nsocc
   -------------------------------------------------------
     A1        10      10       0       0       0       0
     A2         1       1       0       0       0       0
     B1         4       4       0       0       0       0
     B2         4       4       0       0       0       0
   -------------------------------------------------------
    Total      19      19       5       5       5       0
   -------------------------------------------------------

  ==> Integral Setup <==

  ==> DiskDFJK: Density-Fitted J/K Matrices <==

    J tasked:                  Yes
    K tasked:                  Yes
    wK tasked:                 Yes
    Omega:               3.000E-01
    OpenMP threads:             24
    Integrals threads:          24
    Memory [MiB]:           102937
    Algorithm:                Core
    Integral Cache:           NONE
    Schwarz Cutoff:          1E-12
    Fitting Condition:       1E-10

   => Auxiliary Basis Set <=

  Basis Set: (CC-PV(D+D)Z AUX)
    Blend: CC-PVDZ-JKFIT
    Number of shells: 33
    Number of basis function: 93
    Number of Cartesian functions: 106
    Spherical Harmonics?: true
    Max angular momentum: 3

  Cached 100.0% of DFT collocation blocks in 0.058 [GiB].

  Minimum eigenvalue in the overlap matrix is 5.0417528054E-02.
  Using Symmetric Orthogonalization.

  SCF Guess: Orbitals guess was supplied from a previous computation.

  ==> Iterations <==

                           Total Energy        Delta E     RMS |[F,P]|

   @DF-RKS iter   0:  -100.40375234338190   -1.00404e+02   7.06692e-04 
   @DF-RKS iter   1:  -100.40584222566720   -2.08988e-03   1.17075e-04 DIIS
   @DF-RKS iter   2:  -100.40584259122102   -3.65554e-07   7.89416e-05 DIIS
   @DF-RKS iter   3:  -100.40584281508494   -2.23864e-07   1.28053e-05 DIIS
   @DF-RKS iter   4:  -100.40584282324134   -8.15641e-09   2.37254e-06 DIIS
   @DF-RKS iter   5:  -100.40584282374917   -5.07825e-10   1.60190e-07 DIIS
   @DF-RKS iter   6:  -100.40584282375309   -3.92220e-12   8.57004e-09 DIIS
  Energy and wave function converged.


  ==> Post-Iterations <==

    Orbital Energies [Eh]
    ---------------------

    Doubly Occupied:                                                      

       1A1   -24.880631     2A1    -1.300935     3A1    -0.626492  
       1B1    -0.489705     1B2    -0.489705  

    Virtual:                                                              

       4A1     0.127754     5A1     0.662165     2B1     1.236601  
       2B2     1.236601     6A1     1.264145     3B1     1.464121  
       3B2     1.464121     7A1     1.931789     8A1     2.250392  
       1A2     3.721446     9A1     3.721446     4B1     3.967601  
       4B2     3.967601    10A1     4.704857  

    Final Occupation by Irrep:
             A1    A2    B1    B2 
    DOCC [     3,    0,    1,    1 ]

  @DF-RKS Final Energy:  -100.40584282375309

   => Energetics <=

    Nuclear Repulsion Energy =              5.1370736889645121
    One-Electron Energy =                -150.5553110984290583
    Two-Electron Energy =                  52.9024192396806185
    DFT Exchange-Correlation Energy =      -7.9334854042957650
    Empirical Dispersion Energy =           0.0000000000000000
    VV10 Nonlocal Energy =                  0.0434607503266124
    Total Energy =                       -100.4058428237530762

Computation Completed


Properties will be evaluated at   0.000000,   0.000000,   0.000000 [a0]

Properties computed using the SCF density matrix

  Nuclear Dipole Moment: [e a0]
     X:     0.0000      Y:     0.0000      Z:     0.8694

  Electronic Dipole Moment: [e a0]
     X:     0.0000      Y:     0.0000      Z:    -0.1545

  Dipole Moment: [e a0]
     X:     0.0000      Y:     0.0000      Z:     0.7150     Total:     0.7150

  Dipole Moment: [D]
     X:     0.0000      Y:     0.0000      Z:     1.8172     Total:     1.8172


*** tstop() called on bp1-compute00100.data.bp.acrc.priv at Tue Apr 27 18:12:07 2021
Module time:
	user time   =      31.89 seconds =       0.53 minutes
	system time =       0.98 seconds =       0.02 minutes
	total time  =          1 seconds =       0.02 minutes
Total time:
	user time   =     198.78 seconds =       3.31 minutes
	system time =       6.73 seconds =       0.11 minutes
	total time  =          9 seconds =       0.15 minutes

  //>>>>>>>>>>>>>>>>>>>>>>>>>>>>>>>>>>>//
  //    Loading displacement 3 of 3    //
  //<<<<<<<<<<<<<<<<<<<<<<<<<<<<<<<<<<<//

*** tstart() called on bp1-compute00100.data.bp.acrc.priv
*** at Tue Apr 27 18:12:07 2021

   => Loading Basis Set <=

    Name: CC-PV(D+D)Z
    Role: ORBITAL
    Keyword: BASIS
    atoms 1 entry F          line   237 file /work/zw18965/.conda/envs/p4env/share/psi4/basis/cc-pv_dpd_z.gbs 
    atoms 2 entry H          line    31 file /work/zw18965/.conda/envs/p4env/share/psi4/basis/cc-pv_dpd_z.gbs 


         ---------------------------------------------------------
                                   SCF
               by Justin Turney, Rob Parrish, Andy Simmonett
                          and Daniel G. A. Smith
                              RKS Reference
                       24 Threads, 137329 MiB Core
         ---------------------------------------------------------

  ==> Geometry <==

    Molecular point group: c2v
    Full point group: C_inf_v

    Geometry (in Angstrom), charge = 0, multiplicity = 1:

       Center              X                  Y                   Z               Mass       
    ------------   -----------------  -----------------  -----------------  -----------------
         F            0.000000000000     0.000000000000    -0.046430830403    18.998403162730
         H            0.000000000000     0.000000000000     0.875262676532     1.007825032230

  Running in c2v symmetry.

  Rotational constants: A = ************  B =     20.73416  C =     20.73416 [cm^-1]
  Rotational constants: A = ************  B = 621594.43947  C = 621594.43947 [MHz]
  Nuclear repulsion =    5.167221923767396

  Charge       = 0
  Multiplicity = 1
  Electrons    = 10
  Nalpha       = 5
  Nbeta        = 5

  ==> Algorithm <==

  SCF Algorithm Type is DF.
  DIIS enabled.
  MOM disabled.
  Fractional occupation disabled.
  Guess Type is READ.
  Energy threshold   = 1.00e-08
  Density threshold  = 1.00e-08
  Integral threshold = 0.00e+00

  ==> Primary Basis <==

  Basis Set: CC-PV(D+D)Z
    Blend: CC-PV(D+D)Z
    Number of shells: 9
    Number of basis function: 19
    Number of Cartesian functions: 20
    Spherical Harmonics?: true
    Max angular momentum: 2

  ==> DFT Potential <==

   => Composite Functional: WB97M-V <= 

    wB97M-V Hyb-GGA Exchange-Correlation Functional

    N. Mardirossian and M. Head-Gordon, J. Chem. Phys. 144, 214110 (2016)

    Deriv               =              1
    GGA                 =           TRUE
    Meta                =           TRUE

    Exchange Hybrid     =           TRUE
    MP2 Hybrid          =          FALSE

   => Exchange-Correlation Functionals <=

    1.0000   wB97M-V exchange-correlation functional

   => Exact (HF) Exchange <=

    0.8500            HF,LR [omega = 0.3000]
    0.1500               HF 

   => VV10 Non-Local Parameters <=

    VV10 B              =     6.0000E+00
    VV10 C              =     1.0000E-02

   => Molecular Quadrature <=

    Radial Scheme          =       TREUTLER
    Pruning Scheme         =           FLAT
    Nuclear Scheme         =       TREUTLER

    BS radius alpha        =              1
    Pruning alpha          =              1
    Radial Points          =             75
    Spherical Points       =            302
    Total Points           =          44141
    Total Blocks           =            394
    Max Points             =            256
    Max Functions          =             19

   => Loading Basis Set <=

    Name: (CC-PV(D+D)Z AUX)
    Role: JKFIT
    Keyword: DF_BASIS_SCF
    atoms 1 entry F          line   271 file /work/zw18965/.conda/envs/p4env/share/psi4/basis/cc-pvdz-jkfit.gbs 
    atoms 2 entry H          line    51 file /work/zw18965/.conda/envs/p4env/share/psi4/basis/cc-pvdz-jkfit.gbs 

   => Loading Basis Set <=

    Name: CC-PV(D+D)Z
    Role: ORBITAL
    Keyword: BASIS
    atoms 1 entry F          line   237 file /work/zw18965/.conda/envs/p4env/share/psi4/basis/cc-pv_dpd_z.gbs 
    atoms 2 entry H          line    31 file /work/zw18965/.conda/envs/p4env/share/psi4/basis/cc-pv_dpd_z.gbs 

  Reading orbitals from file 180, no projection.

  ==> Pre-Iterations <==

   -------------------------------------------------------
    Irrep   Nso     Nmo     Nalpha   Nbeta   Ndocc  Nsocc
   -------------------------------------------------------
     A1        10      10       0       0       0       0
     A2         1       1       0       0       0       0
     B1         4       4       0       0       0       0
     B2         4       4       0       0       0       0
   -------------------------------------------------------
    Total      19      19       5       5       5       0
   -------------------------------------------------------

  ==> Integral Setup <==

  ==> DiskDFJK: Density-Fitted J/K Matrices <==

    J tasked:                  Yes
    K tasked:                  Yes
    wK tasked:                 Yes
    Omega:               3.000E-01
    OpenMP threads:             24
    Integrals threads:          24
    Memory [MiB]:           102937
    Algorithm:                Core
    Integral Cache:           NONE
    Schwarz Cutoff:          1E-12
    Fitting Condition:       1E-10

   => Auxiliary Basis Set <=

  Basis Set: (CC-PV(D+D)Z AUX)
    Blend: CC-PVDZ-JKFIT
    Number of shells: 33
    Number of basis function: 93
    Number of Cartesian functions: 106
    Spherical Harmonics?: true
    Max angular momentum: 3

  Cached 100.0% of DFT collocation blocks in 0.058 [GiB].

  Minimum eigenvalue in the overlap matrix is 4.9719706439E-02.
  Using Symmetric Orthogonalization.

  SCF Guess: Orbitals guess was supplied from a previous computation.

  ==> Iterations <==

                           Total Energy        Delta E     RMS |[F,P]|

   @DF-RKS iter   0:  -100.40793022453428   -1.00408e+02   7.10742e-04 
   @DF-RKS iter   1:  -100.40583512036648    2.09510e-03   1.16384e-04 DIIS
   @DF-RKS iter   2:  -100.40583548538623   -3.65020e-07   7.79606e-05 DIIS
   @DF-RKS iter   3:  -100.40583570337412   -2.17988e-07   1.27516e-05 DIIS
   @DF-RKS iter   4:  -100.40583571145196   -8.07783e-09   2.36127e-06 DIIS
   @DF-RKS iter   5:  -100.40583571195747   -5.05509e-10   1.58776e-07 DIIS
   @DF-RKS iter   6:  -100.40583571196130   -3.83693e-12   8.55673e-09 DIIS
  Energy and wave function converged.


  ==> Post-Iterations <==

    Orbital Energies [Eh]
    ---------------------

    Doubly Occupied:                                                      

       1A1   -24.880504     2A1    -1.302634     3A1    -0.627804  
       1B2    -0.490182     1B1    -0.490182  

    Virtual:                                                              

       4A1     0.129022     5A1     0.667034     2B2     1.238000  
       2B1     1.238000     6A1     1.262709     3B2     1.463916  
       3B1     1.463916     7A1     1.931753     8A1     2.263723  
       1A2     3.720974     9A1     3.720975     4B1     3.972717  
       4B2     3.972717    10A1     4.712442  

    Final Occupation by Irrep:
             A1    A2    B1    B2 
    DOCC [     3,    0,    1,    1 ]

  @DF-RKS Final Energy:  -100.40583571196130

   => Energetics <=

    Nuclear Repulsion Energy =              5.1672219237673964
    One-Electron Energy =                -150.6066343053597620
    Two-Electron Energy =                  52.9257767084431023
    DFT Exchange-Correlation Energy =      -7.9356628904558422
    Empirical Dispersion Energy =           0.0000000000000000
    VV10 Nonlocal Energy =                  0.0434628516438087
    Total Energy =                       -100.4058357119613163

Computation Completed


Properties will be evaluated at   0.000000,   0.000000,   0.000000 [a0]

Properties computed using the SCF density matrix

  Nuclear Dipole Moment: [e a0]
     X:     0.0000      Y:     0.0000      Z:     0.8643

  Electronic Dipole Moment: [e a0]
     X:     0.0000      Y:     0.0000      Z:    -0.1525

  Dipole Moment: [e a0]
     X:     0.0000      Y:     0.0000      Z:     0.7118     Total:     0.7118

  Dipole Moment: [D]
     X:     0.0000      Y:     0.0000      Z:     1.8092     Total:     1.8092


*** tstop() called on bp1-compute00100.data.bp.acrc.priv at Tue Apr 27 18:12:09 2021
Module time:
	user time   =      30.06 seconds =       0.50 minutes
	system time =       0.93 seconds =       0.02 minutes
	total time  =          2 seconds =       0.03 minutes
Total time:
	user time   =     228.97 seconds =       3.82 minutes
	system time =       7.67 seconds =       0.13 minutes
	total time  =         11 seconds =       0.18 minutes

         ----------------------------------------------------------
                                   FINDIF
                     R. A. King and Jonathon Misiewicz
         ---------------------------------------------------------

  Computing gradient from energies.
    Using 3-point formula.
    Energy without displacement: -100.4058471045
    Check energies below for precision!
    Forces are for mass-weighted, symmetry-adapted cartesians (in au).

     Coord      Energy(-1)        Energy(+1)            Force
        0   -100.4058428238   -100.4058357120      0.0007111792


-------------------------------------------------------------
  ## New Matrix (Symmetry 0) ##
  Irrep: 1 Size: 2 x 3

                 1                   2                   3

    1     0.00000000000000     0.00000000000000     0.00069574091590
    2     0.00000000000000     0.00000000000000    -0.00069574091590




			-----------------------------------------
			 OPTKING 2.0: for geometry optimizations 
			  - R.A. King,  Bethel University        
			-----------------------------------------
	At level 1: Red. Int., RFO, no backsteps, dynamic trust

	Previous internal coordinate definitions found.
	---Fragment 1 Geometry and Gradient---
	 F           0.0000000000        0.0000000000       -0.0879990201
	 H           0.0000000000        0.0000000000        1.6588602279
	             0.0000000000        0.0000000000        0.0006957409
	             0.0000000000        0.0000000000       -0.0006957409

	---Fragment 1 Intrafragment Coordinates---
	 - Coordinate -           - BOHR/RAD -       - ANG/DEG -
	 R(1,2)           =         1.746859	       0.924398

	Current energy   :      -100.4058471045

	Energy change for the previous step:
		Projected    :        -0.0000430802
		Actual       :        -0.0000926580
	Energy ratio indicates good step: Trust radius increased to 1.000e+00.


	Performing BFGS update.
	Previous computed or guess Hessian on step 1.
	Steps to be used in Hessian update: 1
	Taking RFO optimization step.
	Going to follow RFO solution 1.
	Using RFO vector 1.
	Norm of target step-size    0.00112
	Projected energy change by RFO approximation:        -0.0000001506

	Back-transformation to cartesian coordinates...
	Successfully converged to displaced geometry.

	--- Internal Coordinate Step in ANG or DEG, aJ/ANG or AJ/DEG ---
	 ---------------------------------------------------------------------------
	   Coordinate                Previous        Force       Change         New 
	   ----------                --------       ------       ------       ------
	    1 R(1,2)          =      0.924398     0.005732     0.000594     0.924993
	 ---------------------------------------------------------------------------
	Successfully symmetrized geometry.

  ==> Convergence Check <==

  Measures of convergence in internal coordinates in au.
  Criteria marked as inactive (o), active & met (*), and active & unmet ( ).
  ---------------------------------------------------------------------------------------------
   Step     Total Energy     Delta E     MAX Force     RMS Force      MAX Disp      RMS Disp   
  ---------------------------------------------------------------------------------------------
    Convergence Criteria    1.00e-06 *    3.00e-04 *             o    1.20e-03 *             o
  ---------------------------------------------------------------------------------------------
      2    -100.40584710   -9.27e-05      6.96e-04      6.96e-04 o    1.12e-03 *    1.12e-03 o  ~
  ---------------------------------------------------------------------------------------------

	Writing optimization data to binary file.
	Structure for next step:
	Cartesian Geometry (in Angstrom)
	    F     0.0000000000   0.0000000000  -0.0468642795
	    H     0.0000000000   0.0000000000   0.8781282285
			--------------------------
			 OPTKING Finished Execution 
			--------------------------

    Structure for next step:
    Molecular point group: c2v
    Full point group: C_inf_v

    Geometry (in Angstrom), charge = 0, multiplicity = 1:

    F            0.000000000000     0.000000000000    -0.046597019630
    H            0.000000000000     0.000000000000     0.878395492075

gradient() will perform gradient computation by finite difference of analytic energies.

         ----------------------------------------------------------
                                   FINDIF
                     R. A. King and Jonathon Misiewicz
         ---------------------------------------------------------

  Using finite-differences of energies to determine gradients.
    Generating geometries for use with 3-point formula.
    Displacement size will be 5.00e-03.
    Number of atoms is 2.
    Number of symmetric SALCs is 1.
    Translations projected? 1. Rotations projected? 1.
    Number of geometries (including reference) is 3.

  //>>>>>>>>>>>>>>>>>>>>>>>>>>>>>>>>>>>//
  //    Loading displacement 1 of 3    //
  //<<<<<<<<<<<<<<<<<<<<<<<<<<<<<<<<<<<//

*** tstart() called on bp1-compute00100.data.bp.acrc.priv
*** at Tue Apr 27 18:12:09 2021

   => Loading Basis Set <=

    Name: CC-PV(D+D)Z
    Role: ORBITAL
    Keyword: BASIS
    atoms 1 entry F          line   237 file /work/zw18965/.conda/envs/p4env/share/psi4/basis/cc-pv_dpd_z.gbs 
    atoms 2 entry H          line    31 file /work/zw18965/.conda/envs/p4env/share/psi4/basis/cc-pv_dpd_z.gbs 


         ---------------------------------------------------------
                                   SCF
               by Justin Turney, Rob Parrish, Andy Simmonett
                          and Daniel G. A. Smith
                              RKS Reference
                       24 Threads, 137329 MiB Core
         ---------------------------------------------------------

  ==> Geometry <==

    Molecular point group: c2v
    Full point group: C_inf_v

    Geometry (in Angstrom), charge = 0, multiplicity = 1:

       Center              X                  Y                   Z               Mass       
    ------------   -----------------  -----------------  -----------------  -----------------
         F            0.000000000000     0.000000000000    -0.046597019630    18.998403162730
         H            0.000000000000     0.000000000000     0.878395492075     1.007825032230

  Running in c2v symmetry.

  Rotational constants: A = ************  B =     20.58652  C =     20.58652 [cm^-1]
  Rotational constants: A = ************  B = 617168.48755  C = 617168.48755 [MHz]
  Nuclear repulsion =    5.148792920770247

  Charge       = 0
  Multiplicity = 1
  Electrons    = 10
  Nalpha       = 5
  Nbeta        = 5

  ==> Algorithm <==

  SCF Algorithm Type is DF.
  DIIS enabled.
  MOM disabled.
  Fractional occupation disabled.
  Guess Type is READ.
  Energy threshold   = 1.00e-08
  Density threshold  = 1.00e-08
  Integral threshold = 0.00e+00

  ==> Primary Basis <==

  Basis Set: CC-PV(D+D)Z
    Blend: CC-PV(D+D)Z
    Number of shells: 9
    Number of basis function: 19
    Number of Cartesian functions: 20
    Spherical Harmonics?: true
    Max angular momentum: 2

  ==> DFT Potential <==

   => Composite Functional: WB97M-V <= 

    wB97M-V Hyb-GGA Exchange-Correlation Functional

    N. Mardirossian and M. Head-Gordon, J. Chem. Phys. 144, 214110 (2016)

    Deriv               =              1
    GGA                 =           TRUE
    Meta                =           TRUE

    Exchange Hybrid     =           TRUE
    MP2 Hybrid          =          FALSE

   => Exchange-Correlation Functionals <=

    1.0000   wB97M-V exchange-correlation functional

   => Exact (HF) Exchange <=

    0.8500            HF,LR [omega = 0.3000]
    0.1500               HF 

   => VV10 Non-Local Parameters <=

    VV10 B              =     6.0000E+00
    VV10 C              =     1.0000E-02

   => Molecular Quadrature <=

    Radial Scheme          =       TREUTLER
    Pruning Scheme         =           FLAT
    Nuclear Scheme         =       TREUTLER

    BS radius alpha        =              1
    Pruning alpha          =              1
    Radial Points          =             75
    Spherical Points       =            302
    Total Points           =          44141
    Total Blocks           =            393
    Max Points             =            256
    Max Functions          =             19

   => Loading Basis Set <=

    Name: (CC-PV(D+D)Z AUX)
    Role: JKFIT
    Keyword: DF_BASIS_SCF
    atoms 1 entry F          line   271 file /work/zw18965/.conda/envs/p4env/share/psi4/basis/cc-pvdz-jkfit.gbs 
    atoms 2 entry H          line    51 file /work/zw18965/.conda/envs/p4env/share/psi4/basis/cc-pvdz-jkfit.gbs 

   => Loading Basis Set <=

    Name: CC-PV(D+D)Z
    Role: ORBITAL
    Keyword: BASIS
    atoms 1 entry F          line   237 file /work/zw18965/.conda/envs/p4env/share/psi4/basis/cc-pv_dpd_z.gbs 
    atoms 2 entry H          line    31 file /work/zw18965/.conda/envs/p4env/share/psi4/basis/cc-pv_dpd_z.gbs 

  Reading orbitals from file 180, no projection.

  ==> Pre-Iterations <==

   -------------------------------------------------------
    Irrep   Nso     Nmo     Nalpha   Nbeta   Ndocc  Nsocc
   -------------------------------------------------------
     A1        10      10       0       0       0       0
     A2         1       1       0       0       0       0
     B1         4       4       0       0       0       0
     B2         4       4       0       0       0       0
   -------------------------------------------------------
    Total      19      19       5       5       5       0
   -------------------------------------------------------

  ==> Integral Setup <==

  ==> DiskDFJK: Density-Fitted J/K Matrices <==

    J tasked:                  Yes
    K tasked:                  Yes
    wK tasked:                 Yes
    Omega:               3.000E-01
    OpenMP threads:             24
    Integrals threads:          24
    Memory [MiB]:           102937
    Algorithm:                Core
    Integral Cache:           NONE
    Schwarz Cutoff:          1E-12
    Fitting Condition:       1E-10

   => Auxiliary Basis Set <=

  Basis Set: (CC-PV(D+D)Z AUX)
    Blend: CC-PVDZ-JKFIT
    Number of shells: 33
    Number of basis function: 93
    Number of Cartesian functions: 106
    Spherical Harmonics?: true
    Max angular momentum: 3

  Cached 100.0% of DFT collocation blocks in 0.058 [GiB].

  Minimum eigenvalue in the overlap matrix is 5.0144743383E-02.
  Using Symmetric Orthogonalization.

  SCF Guess: Orbitals guess was supplied from a previous computation.

  ==> Iterations <==

                           Total Energy        Delta E     RMS |[F,P]|

   @DF-RKS iter   0:  -100.40538771228216   -1.00405e+02   1.55661e-04 
   @DF-RKS iter   1:  -100.40584746790867   -4.59756e-04   2.56715e-05 DIIS
   @DF-RKS iter   2:  -100.40584748555611   -1.76474e-08   1.72656e-05 DIIS
   @DF-RKS iter   3:  -100.40584749625827   -1.07022e-08   2.80972e-06 DIIS
   @DF-RKS iter   4:  -100.40584749665084   -3.92561e-10   5.20464e-07 DIIS
   @DF-RKS iter   5:  -100.40584749667526   -2.44285e-11   3.50843e-08 DIIS
   @DF-RKS iter   6:  -100.40584749667532   -5.68434e-14   1.88238e-09 DIIS
  Energy and wave function converged.


  ==> Post-Iterations <==

    Orbital Energies [Eh]
    ---------------------

    Doubly Occupied:                                                      

       1A1   -24.880582     2A1    -1.301594     3A1    -0.627004  
       1B2    -0.489891     1B1    -0.489891  

    Virtual:                                                              

       4A1     0.128251     5A1     0.664054     2B1     1.237149  
       2B2     1.237149     6A1     1.263582     3B2     1.464038  
       3B1     1.464038     7A1     1.931782     8A1     2.255561  
       1A2     3.721262     9A1     3.721263     4B1     3.969589  
       4B2     3.969589    10A1     4.707817  

    Final Occupation by Irrep:
             A1    A2    B1    B2 
    DOCC [     3,    0,    1,    1 ]

  @DF-RKS Final Energy:  -100.40584749667532

   => Energetics <=

    Nuclear Repulsion Energy =              5.1487929207702470
    One-Electron Energy =                -150.5752752290881062
    Two-Electron Energy =                  52.9115048973867772
    DFT Exchange-Correlation Energy =      -7.9343316516559117
    Empirical Dispersion Energy =           0.0000000000000000
    VV10 Nonlocal Energy =                  0.0434615659116840
    Total Energy =                       -100.4058474966753209

Computation Completed


Properties will be evaluated at   0.000000,   0.000000,   0.000000 [a0]

Properties computed using the SCF density matrix

  Nuclear Dipole Moment: [e a0]
     X:     0.0000      Y:     0.0000      Z:     0.8674

  Electronic Dipole Moment: [e a0]
     X:     0.0000      Y:     0.0000      Z:    -0.1537

  Dipole Moment: [e a0]
     X:     0.0000      Y:     0.0000      Z:     0.7137     Total:     0.7137

  Dipole Moment: [D]
     X:     0.0000      Y:     0.0000      Z:     1.8141     Total:     1.8141


*** tstop() called on bp1-compute00100.data.bp.acrc.priv at Tue Apr 27 18:12:10 2021
Module time:
	user time   =      29.87 seconds =       0.50 minutes
	system time =       0.95 seconds =       0.02 minutes
	total time  =          1 seconds =       0.02 minutes
Total time:
	user time   =     259.17 seconds =       4.32 minutes
	system time =       8.63 seconds =       0.14 minutes
	total time  =         12 seconds =       0.20 minutes

  //>>>>>>>>>>>>>>>>>>>>>>>>>>>>>>>>>>>//
  //    Loading displacement 2 of 3    //
  //<<<<<<<<<<<<<<<<<<<<<<<<<<<<<<<<<<<//

*** tstart() called on bp1-compute00100.data.bp.acrc.priv
*** at Tue Apr 27 18:12:10 2021

   => Loading Basis Set <=

    Name: CC-PV(D+D)Z
    Role: ORBITAL
    Keyword: BASIS
    atoms 1 entry F          line   237 file /work/zw18965/.conda/envs/p4env/share/psi4/basis/cc-pv_dpd_z.gbs 
    atoms 2 entry H          line    31 file /work/zw18965/.conda/envs/p4env/share/psi4/basis/cc-pv_dpd_z.gbs 


         ---------------------------------------------------------
                                   SCF
               by Justin Turney, Rob Parrish, Andy Simmonett
                          and Daniel G. A. Smith
                              RKS Reference
                       24 Threads, 137329 MiB Core
         ---------------------------------------------------------

  ==> Geometry <==

    Molecular point group: c2v
    Full point group: C_inf_v

    Geometry (in Angstrom), charge = 0, multiplicity = 1:

       Center              X                  Y                   Z               Mass       
    ------------   -----------------  -----------------  -----------------  -----------------
         F            0.000000000000     0.000000000000    -0.046733265250    18.998403162730
         H            0.000000000000     0.000000000000     0.880963843853     1.007825032230

  Running in c2v symmetry.

  Rotational constants: A = ************  B =     20.46666  C =     20.46666 [cm^-1]
  Rotational constants: A = ************  B = 613575.16146  C = 613575.16146 [MHz]
  Nuclear repulsion =    5.133782189574794

  Charge       = 0
  Multiplicity = 1
  Electrons    = 10
  Nalpha       = 5
  Nbeta        = 5

  ==> Algorithm <==

  SCF Algorithm Type is DF.
  DIIS enabled.
  MOM disabled.
  Fractional occupation disabled.
  Guess Type is READ.
  Energy threshold   = 1.00e-08
  Density threshold  = 1.00e-08
  Integral threshold = 0.00e+00

  ==> Primary Basis <==

  Basis Set: CC-PV(D+D)Z
    Blend: CC-PV(D+D)Z
    Number of shells: 9
    Number of basis function: 19
    Number of Cartesian functions: 20
    Spherical Harmonics?: true
    Max angular momentum: 2

  ==> DFT Potential <==

   => Composite Functional: WB97M-V <= 

    wB97M-V Hyb-GGA Exchange-Correlation Functional

    N. Mardirossian and M. Head-Gordon, J. Chem. Phys. 144, 214110 (2016)

    Deriv               =              1
    GGA                 =           TRUE
    Meta                =           TRUE

    Exchange Hybrid     =           TRUE
    MP2 Hybrid          =          FALSE

   => Exchange-Correlation Functionals <=

    1.0000   wB97M-V exchange-correlation functional

   => Exact (HF) Exchange <=

    0.8500            HF,LR [omega = 0.3000]
    0.1500               HF 

   => VV10 Non-Local Parameters <=

    VV10 B              =     6.0000E+00
    VV10 C              =     1.0000E-02

   => Molecular Quadrature <=

    Radial Scheme          =       TREUTLER
    Pruning Scheme         =           FLAT
    Nuclear Scheme         =       TREUTLER

    BS radius alpha        =              1
    Pruning alpha          =              1
    Radial Points          =             75
    Spherical Points       =            302
    Total Points           =          44141
    Total Blocks           =            393
    Max Points             =            256
    Max Functions          =             19

   => Loading Basis Set <=

    Name: (CC-PV(D+D)Z AUX)
    Role: JKFIT
    Keyword: DF_BASIS_SCF
    atoms 1 entry F          line   271 file /work/zw18965/.conda/envs/p4env/share/psi4/basis/cc-pvdz-jkfit.gbs 
    atoms 2 entry H          line    51 file /work/zw18965/.conda/envs/p4env/share/psi4/basis/cc-pvdz-jkfit.gbs 

   => Loading Basis Set <=

    Name: CC-PV(D+D)Z
    Role: ORBITAL
    Keyword: BASIS
    atoms 1 entry F          line   237 file /work/zw18965/.conda/envs/p4env/share/psi4/basis/cc-pv_dpd_z.gbs 
    atoms 2 entry H          line    31 file /work/zw18965/.conda/envs/p4env/share/psi4/basis/cc-pv_dpd_z.gbs 

  Reading orbitals from file 180, no projection.

  ==> Pre-Iterations <==

   -------------------------------------------------------
    Irrep   Nso     Nmo     Nalpha   Nbeta   Ndocc  Nsocc
   -------------------------------------------------------
     A1        10      10       0       0       0       0
     A2         1       1       0       0       0       0
     B1         4       4       0       0       0       0
     B2         4       4       0       0       0       0
   -------------------------------------------------------
    Total      19      19       5       5       5       0
   -------------------------------------------------------

  ==> Integral Setup <==

  ==> DiskDFJK: Density-Fitted J/K Matrices <==

    J tasked:                  Yes
    K tasked:                  Yes
    wK tasked:                 Yes
    Omega:               3.000E-01
    OpenMP threads:             24
    Integrals threads:          24
    Memory [MiB]:           102937
    Algorithm:                Core
    Integral Cache:           NONE
    Schwarz Cutoff:          1E-12
    Fitting Condition:       1E-10

   => Auxiliary Basis Set <=

  Basis Set: (CC-PV(D+D)Z AUX)
    Blend: CC-PVDZ-JKFIT
    Number of shells: 33
    Number of basis function: 93
    Number of Cartesian functions: 106
    Spherical Harmonics?: true
    Max angular momentum: 3

  Cached 100.0% of DFT collocation blocks in 0.058 [GiB].

  Minimum eigenvalue in the overlap matrix is 5.0494495484E-02.
  Using Symmetric Orthogonalization.

  SCF Guess: Orbitals guess was supplied from a previous computation.

  ==> Iterations <==

                           Total Energy        Delta E     RMS |[F,P]|

   @DF-RKS iter   0:  -100.40375082760470   -1.00404e+02   7.05534e-04 
   @DF-RKS iter   1:  -100.40583921481766   -2.08839e-03   1.17055e-04 DIIS
   @DF-RKS iter   2:  -100.40583958015857   -3.65341e-07   7.89432e-05 DIIS
   @DF-RKS iter   3:  -100.40583980404386   -2.23885e-07   1.28126e-05 DIIS
   @DF-RKS iter   4:  -100.40583981220914   -8.16527e-09   2.37360e-06 DIIS
   @DF-RKS iter   5:  -100.40583981271709   -5.07953e-10   1.60301e-07 DIIS
   @DF-RKS iter   6:  -100.40583981272087   -3.78009e-12   8.56761e-09 DIIS
  Energy and wave function converged.


  ==> Post-Iterations <==

    Orbital Energies [Eh]
    ---------------------

    Doubly Occupied:                                                      

       1A1   -24.880645     2A1    -1.300750     3A1    -0.626349  
       1B1    -0.489653     1B2    -0.489653  

    Virtual:                                                              

       4A1     0.127614     5A1     0.661636     2B1     1.236447  
       2B2     1.236447     6A1     1.264305     3B2     1.464146  
       3B1     1.464146     7A1     1.931789     8A1     2.248943  
       1A2     3.721497     9A1     3.721498     4B2     3.967042  
       4B1     3.967042    10A1     4.704023  

    Final Occupation by Irrep:
             A1    A2    B1    B2 
    DOCC [     3,    0,    1,    1 ]

  @DF-RKS Final Energy:  -100.40583981272087

   => Energetics <=

    Nuclear Repulsion Energy =              5.1337821895747942
    One-Electron Energy =                -150.5497007594975116
    Two-Electron Energy =                  52.8998660049237088
    DFT Exchange-Correlation Energy =      -7.9332477692754599
    Empirical Dispersion Energy =           0.0000000000000000
    VV10 Nonlocal Energy =                  0.0434605215536135
    Total Energy =                       -100.4058398127208562

Computation Completed


Properties will be evaluated at   0.000000,   0.000000,   0.000000 [a0]

Properties computed using the SCF density matrix

  Nuclear Dipole Moment: [e a0]
     X:     0.0000      Y:     0.0000      Z:     0.8700

  Electronic Dipole Moment: [e a0]
     X:     0.0000      Y:     0.0000      Z:    -0.1547

[...]
   -------------------------------------------------------

  ==> Integral Setup <==

  ==> DiskDFJK: Density-Fitted J/K Matrices <==

    J tasked:                  Yes
    K tasked:                  Yes
    wK tasked:                 Yes
    Omega:               3.000E-01
    OpenMP threads:             24
    Integrals threads:          24
    Memory [MiB]:           102937
    Algorithm:                Core
    Integral Cache:           NONE
    Schwarz Cutoff:          1E-12
    Fitting Condition:       1E-10

   => Auxiliary Basis Set <=

  Basis Set: (CC-PV(D+D)Z AUX)
    Blend: CC-PVDZ-JKFIT
    Number of shells: 33
    Number of basis function: 93
    Number of Cartesian functions: 106
    Spherical Harmonics?: true
    Max angular momentum: 3

  Cached 100.0% of DFT collocation blocks in 0.058 [GiB].

  Minimum eigenvalue in the overlap matrix is 5.0494495484E-02.
  Using Symmetric Orthogonalization.

  SCF Guess: Superposition of Atomic Densities via on-the-fly atomic UHF.

  ==> Iterations <==

                           Total Energy        Delta E     RMS |[F,P]|

   @DF-RKS iter SAD:  -100.09669492681579   -1.00097e+02   0.00000e+00 
   @DF-RKS iter   1:  -100.36105090096838   -2.64356e-01   3.10823e-02 DIIS
   @DF-RKS iter   2:  -100.37364469666275   -1.25938e-02   2.91743e-02 DIIS
   @DF-RKS iter   3:  -100.40577850267697   -3.21338e-02   1.04247e-03 DIIS
   @DF-RKS iter   4:  -100.40583441510464   -5.59124e-05   2.75792e-04 DIIS
   @DF-RKS iter   5:  -100.40583970321926   -5.28811e-06   2.94167e-05 DIIS
   @DF-RKS iter   6:  -100.40583981078582   -1.07567e-07   3.38105e-06 DIIS
   @DF-RKS iter   7:  -100.40583981270257   -1.91675e-09   4.09983e-07 DIIS
   @DF-RKS iter   8:  -100.40583981272088   -1.83178e-11   2.46716e-08 DIIS
   @DF-RKS iter   9:  -100.40583981272098   -9.94760e-14   1.50758e-09 DIIS
   @DF-RKS iter  10:  -100.40583981272088    9.94760e-14   1.00452e-10 DIIS
   @DF-RKS iter  11:  -100.40583981272098   -9.94760e-14   4.00997e-12 DIIS
  Energy and wave function converged.


  ==> Post-Iterations <==

    Orbital Energies [Eh]
    ---------------------

    Doubly Occupied:                                                      

       1A1   -24.880645     2A1    -1.300750     3A1    -0.626349  
       1B1    -0.489653     1B2    -0.489653  

    Virtual:                                                              

       4A1     0.127614     5A1     0.661636     2B1     1.236447  
       2B2     1.236447     6A1     1.264304     3B2     1.464146  
       3B1     1.464146     7A1     1.931789     8A1     2.248943  
       1A2     3.721497     9A1     3.721498     4B2     3.967042  
       4B1     3.967042    10A1     4.704023  

    Final Occupation by Irrep:
             A1    A2    B1    B2 
    DOCC [     3,    0,    1,    1 ]

  @DF-RKS Final Energy:  -100.40583981272098

   => Energetics <=

    Nuclear Repulsion Energy =              5.1337821895747942
    One-Electron Energy =                -150.5497007446784608
    Two-Electron Energy =                  52.8998659955734780
    DFT Exchange-Correlation Energy =      -7.9332477747640642
    Empirical Dispersion Energy =           0.0000000000000000
    VV10 Nonlocal Energy =                  0.0434605215732788
    Total Energy =                       -100.4058398127209841

Computation Completed


Properties will be evaluated at   0.000000,   0.000000,   0.000000 [a0]

Properties computed using the SCF density matrix

  Nuclear Dipole Moment: [e a0]
     X:     0.0000      Y:     0.0000      Z:     0.8700

  Electronic Dipole Moment: [e a0]
     X:     0.0000      Y:     0.0000      Z:    -0.1547

  Dipole Moment: [e a0]
     X:     0.0000      Y:     0.0000      Z:     0.7153     Total:     0.7153

  Dipole Moment: [D]
     X:     0.0000      Y:     0.0000      Z:     1.8181     Total:     1.8181


*** tstop() called on bp1-compute00100.data.bp.acrc.priv at Tue Apr 27 18:12:22 2021
Module time:
	user time   =      47.45 seconds =       0.79 minutes
	system time =       1.47 seconds =       0.02 minutes
	total time  =          2 seconds =       0.03 minutes
Total time:
	user time   =     544.27 seconds =       9.07 minutes
	system time =      17.64 seconds =       0.29 minutes
	total time  =         24 seconds =       0.40 minutes

  //>>>>>>>>>>>>>>>>>>>>>>>>>>>>>>>>>>>//
  //    Loading displacement 3 of 3    //
  //<<<<<<<<<<<<<<<<<<<<<<<<<<<<<<<<<<<//

*** tstart() called on bp1-compute00100.data.bp.acrc.priv
*** at Tue Apr 27 18:12:22 2021

   => Loading Basis Set <=

    Name: CC-PV(D+D)Z
    Role: ORBITAL
    Keyword: BASIS
    atoms 1 entry F          line   237 file /work/zw18965/.conda/envs/p4env/share/psi4/basis/cc-pv_dpd_z.gbs 
    atoms 2 entry H          line    31 file /work/zw18965/.conda/envs/p4env/share/psi4/basis/cc-pv_dpd_z.gbs 


         ---------------------------------------------------------
                                   SCF
               by Justin Turney, Rob Parrish, Andy Simmonett
                          and Daniel G. A. Smith
                              RKS Reference
                       24 Threads, 137329 MiB Core
         ---------------------------------------------------------

  ==> Geometry <==

    Molecular point group: c2v
    Full point group: C_inf_v

    Geometry (in Angstrom), charge = 0, multiplicity = 1:

       Center              X                  Y                   Z               Mass       
    ------------   -----------------  -----------------  -----------------  -----------------
         F            0.000000000000     0.000000000000    -0.046460774010    18.998403162730
         H            0.000000000000     0.000000000000     0.875827140297     1.007825032230

  Running in c2v symmetry.

  Rotational constants: A = ************  B =     20.70744  C =     20.70744 [cm^-1]
  Rotational constants: A = ************  B = 620793.47212  C = 620793.47212 [MHz]
  Nuclear repulsion =    5.163891689516451

  Charge       = 0
  Multiplicity = 1
  Electrons    = 10
  Nalpha       = 5
  Nbeta        = 5

  ==> Algorithm <==

  SCF Algorithm Type is DF.
  DIIS enabled.
  MOM disabled.
  Fractional occupation disabled.
  Guess Type is SAD.
  Energy threshold   = 1.00e-10
  Density threshold  = 1.00e-10
  Integral threshold = 0.00e+00

  ==> Primary Basis <==

  Basis Set: CC-PV(D+D)Z
    Blend: CC-PV(D+D)Z
    Number of shells: 9
    Number of basis function: 19
    Number of Cartesian functions: 20
    Spherical Harmonics?: true
    Max angular momentum: 2

  ==> DFT Potential <==

   => Composite Functional: WB97M-V <= 

    wB97M-V Hyb-GGA Exchange-Correlation Functional

    N. Mardirossian and M. Head-Gordon, J. Chem. Phys. 144, 214110 (2016)

    Deriv               =              1
    GGA                 =           TRUE
    Meta                =           TRUE

    Exchange Hybrid     =           TRUE
    MP2 Hybrid          =          FALSE

   => Exchange-Correlation Functionals <=

    1.0000   wB97M-V exchange-correlation functional

   => Exact (HF) Exchange <=

    0.8500            HF,LR [omega = 0.3000]
    0.1500               HF 

   => VV10 Non-Local Parameters <=

    VV10 B              =     6.0000E+00
    VV10 C              =     1.0000E-02

   => Molecular Quadrature <=

    Radial Scheme          =       TREUTLER
    Pruning Scheme         =           FLAT
    Nuclear Scheme         =       TREUTLER

    BS radius alpha        =              1
    Pruning alpha          =              1
    Radial Points          =             75
    Spherical Points       =            302
    Total Points           =          44141
    Total Blocks           =            394
    Max Points             =            256
    Max Functions          =             19

   => Loading Basis Set <=

    Name: (CC-PV(D+D)Z AUX)
    Role: JKFIT
    Keyword: DF_BASIS_SCF
    atoms 1 entry F          line   271 file /work/zw18965/.conda/envs/p4env/share/psi4/basis/cc-pvdz-jkfit.gbs 
    atoms 2 entry H          line    51 file /work/zw18965/.conda/envs/p4env/share/psi4/basis/cc-pvdz-jkfit.gbs 

  ==> Pre-Iterations <==

   -------------------------------------------------------
    Irrep   Nso     Nmo     Nalpha   Nbeta   Ndocc  Nsocc
   -------------------------------------------------------
     A1        10      10       0       0       0       0
     A2         1       1       0       0       0       0
     B1         4       4       0       0       0       0
     B2         4       4       0       0       0       0
   -------------------------------------------------------
    Total      19      19       5       5       5       0
   -------------------------------------------------------

  ==> Integral Setup <==

  ==> DiskDFJK: Density-Fitted J/K Matrices <==

    J tasked:                  Yes
    K tasked:                  Yes
    wK tasked:                 Yes
    Omega:               3.000E-01
    OpenMP threads:             24
    Integrals threads:          24
    Memory [MiB]:           102937
    Algorithm:                Core
    Integral Cache:           NONE
    Schwarz Cutoff:          1E-12
    Fitting Condition:       1E-10

   => Auxiliary Basis Set <=

  Basis Set: (CC-PV(D+D)Z AUX)
    Blend: CC-PVDZ-JKFIT
    Number of shells: 33
    Number of basis function: 93
    Number of Cartesian functions: 106
    Spherical Harmonics?: true
    Max angular momentum: 3

  Cached 100.0% of DFT collocation blocks in 0.058 [GiB].

  Minimum eigenvalue in the overlap matrix is 4.9796160033E-02.
  Using Symmetric Orthogonalization.

  SCF Guess: Superposition of Atomic Densities via on-the-fly atomic UHF.

  ==> Iterations <==

                           Total Energy        Delta E     RMS |[F,P]|

   @DF-RKS iter SAD:  -100.09968573507298   -1.00100e+02   0.00000e+00 
   @DF-RKS iter   1:  -100.36127232181715   -2.61587e-01   3.10764e-02 DIIS
   @DF-RKS iter   2:  -100.37397127909648   -1.26990e-02   2.90435e-02 DIIS
   @DF-RKS iter   3:  -100.40577979806365   -3.18085e-02   1.03025e-03 DIIS
   @DF-RKS iter   4:  -100.40583440625495   -5.46082e-05   2.69612e-04 DIIS
   @DF-RKS iter   5:  -100.40583946995163   -5.06370e-06   2.88242e-05 DIIS
   @DF-RKS iter   6:  -100.40583957353829   -1.03587e-07   3.34123e-06 DIIS
   @DF-RKS iter   7:  -100.40583957541803   -1.87974e-09   4.02596e-07 DIIS
   @DF-RKS iter   8:  -100.40583957543581   -1.77778e-11   2.38756e-08 DIIS
   @DF-RKS iter   9:  -100.40583957543595   -1.42109e-13   1.47223e-09 DIIS
   @DF-RKS iter  10:  -100.40583957543589    5.68434e-14   1.00274e-10 DIIS
   @DF-RKS iter  11:  -100.40583957543595   -5.68434e-14   3.94309e-12 DIIS
  Energy and wave function converged.


  ==> Post-Iterations <==

    Orbital Energies [Eh]
    ---------------------

    Doubly Occupied:                                                      

       1A1   -24.880519     2A1    -1.302446     3A1    -0.627660  
       1B1    -0.490130     1B2    -0.490130  

    Virtual:                                                              

       4A1     0.128883     5A1     0.666495     2B2     1.237847  
       2B1     1.237847     6A1     1.262866     3B1     1.463937  
       3B2     1.463937     7A1     1.931760     8A1     2.262245  
       1A2     3.721026     9A1     3.721027     4B2     3.972152  
       4B1     3.972152    10A1     4.711609  

    Final Occupation by Irrep:
             A1    A2    B1    B2 
    DOCC [     3,    0,    1,    1 ]

  @DF-RKS Final Energy:  -100.40583957543595

   => Energetics <=

    Nuclear Repulsion Energy =              5.1638916895164506
    One-Electron Energy =                -150.6009707360505274
    Two-Electron Energy =                  52.9231991322676407
    DFT Exchange-Correlation Energy =      -7.9354222801749712
    Empirical Dispersion Energy =           0.0000000000000000
    VV10 Nonlocal Energy =                  0.0434626190054546
    Total Energy =                       -100.4058395754359623

Computation Completed


Properties will be evaluated at   0.000000,   0.000000,   0.000000 [a0]

Properties computed using the SCF density matrix

  Nuclear Dipole Moment: [e a0]
     X:     0.0000      Y:     0.0000      Z:     0.8649

  Electronic Dipole Moment: [e a0]
     X:     0.0000      Y:     0.0000      Z:    -0.1528

  Dipole Moment: [e a0]
     X:     0.0000      Y:     0.0000      Z:     0.7121     Total:     0.7121

  Dipole Moment: [D]
     X:     0.0000      Y:     0.0000      Z:     1.8101     Total:     1.8101


*** tstop() called on bp1-compute00100.data.bp.acrc.priv at Tue Apr 27 18:12:24 2021
Module time:
	user time   =      47.82 seconds =       0.80 minutes
	system time =       1.48 seconds =       0.02 minutes
	total time  =          2 seconds =       0.03 minutes
Total time:
	user time   =     592.22 seconds =       9.87 minutes
	system time =      19.12 seconds =       0.32 minutes
	total time  =         26 seconds =       0.43 minutes

         ----------------------------------------------------------
                                   FINDIF
                     R. A. King and Jonathon Misiewicz
         ---------------------------------------------------------

  Computing second-derivative from energies using projected, 
  symmetry-adapted, cartesian coordinates.

  3 energies passed in, including the reference geometry.
    Using 3-point formula.
    Energy without displacement: -100.4058474967
    Check energies below for precision!
    0: -1 :      -100.4058398127
    0: 1  :      -100.4058395754

-------------------------------------------------------------


  ==> Harmonic Vibrational Analysis <==

  non-mass-weighted Hessian:       Symmetric? True   Hermitian? True   Lin Dep Dim?  5 (0)
  projection of translations (True) and rotations (True) removed 5 degrees of freedom (5)
  total projector:                 Symmetric? True   Hermitian? True   Lin Dep Dim?  5 (5)
  mass-weighted Hessian:           Symmetric? True   Hermitian? True   Lin Dep Dim?  5 (0)
  pre-proj  low-frequency mode:    0.0000  [cm^-1]
  pre-proj  low-frequency mode:    0.0000  [cm^-1]
  pre-proj  low-frequency mode:    0.0000  [cm^-1]
  pre-proj  low-frequency mode:    0.0000  [cm^-1]
  pre-proj  low-frequency mode:    0.0000  [cm^-1]
  pre-proj  all modes:['0.0000' '0.0000' '0.0000' '0.0000' '0.0000' '4061.3354']
  projected mass-weighted Hessian: Symmetric? True   Hermitian? True   Lin Dep Dim?  5 (5)
  post-proj low-frequency mode:    0.0000  [cm^-1] (TR)
  post-proj low-frequency mode:    0.0000  [cm^-1] (TR)
  post-proj low-frequency mode:    0.0000  [cm^-1] (TR)
  post-proj low-frequency mode:    0.0000  [cm^-1] (TR)
  post-proj low-frequency mode:    0.0000  [cm^-1] (TR)
  post-proj  all modes:['0.0000' '0.0000' '0.0000' '0.0000' '0.0000' '4061.3354']

  Vibration                       6           
  Freq [cm^-1]                4061.3354       
  Irrep                           A1          
  Reduced mass [u]              1.0583        
  Force const [mDyne/A]        10.2849        
  Turning point v=0 [a0]        0.1674        
  RMS dev v=0 [a0 u^1/2]        0.1217        
  Char temp [K]               5843.3574       
  ----------------------------------------------------------------------------------
      1   F                0.00  0.00 -0.05   
      2   H                0.00  0.00  1.00   

  ==> Thermochemistry Components <==

  Entropy, S
    Electronic S            0.000 [cal/(mol K)]        0.000 [J/(mol K)]       0.00000000 [mEh/K] (multiplicity = 1)
    Translational S        34.921 [cal/(mol K)]      146.112 [J/(mol K)]       0.05565095 [mEh/K] (mol. weight = 20.0062 [u], P = 101325.00 [Pa])
    Rotational S            6.576 [cal/(mol K)]       27.514 [J/(mol K)]       0.01047950 [mEh/K] (symmetry no. = 1)
    Vibrational S           0.000 [cal/(mol K)]        0.000 [J/(mol K)]       0.00000000 [mEh/K]
  Total S                  41.497 [cal/(mol K)]      173.625 [J/(mol K)]       0.06613045 [mEh/K]
  Correction S              0.000 [cal/(mol K)]        0.000 [J/(mol K)]       0.00000000 [mEh/K]

  Constant volume heat capacity, Cv
    Electronic Cv           0.000 [cal/(mol K)]        0.000 [J/(mol K)]       0.00000000 [mEh/K]
    Translational Cv        2.981 [cal/(mol K)]       12.472 [J/(mol K)]       0.00475022 [mEh/K]
    Rotational Cv           1.987 [cal/(mol K)]        8.314 [J/(mol K)]       0.00316681 [mEh/K]
    Vibrational Cv          0.000 [cal/(mol K)]        0.000 [J/(mol K)]       0.00000000 [mEh/K]
  Total Cv                  4.968 [cal/(mol K)]       20.786 [J/(mol K)]       0.00791703 [mEh/K]
  Correction Cv             0.000 [cal/(mol K)]        0.000 [J/(mol K)]       0.00000000 [mEh/K]

  Constant pressure heat capacity, Cp
    Electronic Cp           0.000 [cal/(mol K)]        0.000 [J/(mol K)]       0.00000000 [mEh/K]
    Translational Cp        4.968 [cal/(mol K)]       20.786 [J/(mol K)]       0.00791703 [mEh/K]
    Rotational Cp           1.987 [cal/(mol K)]        8.314 [J/(mol K)]       0.00316681 [mEh/K]
    Vibrational Cp          0.000 [cal/(mol K)]        0.000 [J/(mol K)]       0.00000000 [mEh/K]
  Total Cp                  6.955 [cal/(mol K)]       29.101 [J/(mol K)]       0.01108384 [mEh/K]
  Correction Cp             0.000 [cal/(mol K)]        0.000 [J/(mol K)]       0.00000000 [mEh/K]

  ==> Thermochemistry Energy Analysis <==

  Raw electronic energy, E0
  Total E0, Electronic energy at well bottom at 0 [K]                 -100.40584750 [Eh]

  Zero-point energy, ZPE_vib = Sum_i nu_i / 2
    Electronic ZPE          0.000 [kcal/mol]        0.000 [kJ/mol]       0.00000000 [Eh]
    Translational ZPE       0.000 [kcal/mol]        0.000 [kJ/mol]       0.00000000 [Eh]
    Rotational ZPE          0.000 [kcal/mol]        0.000 [kJ/mol]       0.00000000 [Eh]
    Vibrational ZPE         5.806 [kcal/mol]       24.292 [kJ/mol]       0.00925240 [Eh]        2030.668 [cm^-1]
  Correction ZPE            5.806 [kcal/mol]       24.292 [kJ/mol]       0.00925240 [Eh]        2030.668 [cm^-1]
  Total ZPE, Electronic energy at 0 [K]                               -100.39659509 [Eh]

  Thermal Energy, E (includes ZPE)
    Electronic E            0.000 [kcal/mol]        0.000 [kJ/mol]       0.00000000 [Eh]
    Translational E         0.889 [kcal/mol]        3.718 [kJ/mol]       0.00141628 [Eh]
    Rotational E            0.592 [kcal/mol]        2.479 [kJ/mol]       0.00094418 [Eh]
    Vibrational E           5.806 [kcal/mol]       24.292 [kJ/mol]       0.00925240 [Eh]
  Correction E              7.287 [kcal/mol]       30.490 [kJ/mol]       0.01161286 [Eh]
  Total E, Electronic energy at  298.15 [K]                           -100.39423463 [Eh]

  Enthalpy, H_trans = E_trans + k_B * T
    Electronic H            0.000 [kcal/mol]        0.000 [kJ/mol]       0.00000000 [Eh]
    Translational H         1.481 [kcal/mol]        6.197 [kJ/mol]       0.00236046 [Eh]
    Rotational H            0.592 [kcal/mol]        2.479 [kJ/mol]       0.00094418 [Eh]
    Vibrational H           5.806 [kcal/mol]       24.292 [kJ/mol]       0.00925240 [Eh]
  Correction H              7.880 [kcal/mol]       32.969 [kJ/mol]       0.01255705 [Eh]
  Total H, Enthalpy at  298.15 [K]                                    -100.39329045 [Eh]

  Gibbs free energy, G = H - T * S
    Electronic G            0.000 [kcal/mol]        0.000 [kJ/mol]       0.00000000 [Eh]
    Translational G        -8.931 [kcal/mol]      -37.366 [kJ/mol]      -0.01423187 [Eh]
    Rotational G           -1.368 [kcal/mol]       -5.724 [kJ/mol]      -0.00218028 [Eh]
    Vibrational G           5.806 [kcal/mol]       24.292 [kJ/mol]       0.00925240 [Eh]
  Correction G             -4.493 [kcal/mol]      -18.798 [kJ/mol]      -0.00715975 [Eh]
  Total G, Free enthalpy at  298.15 [K]                               -100.41300724 [Eh]

    Psi4 stopped on: Tuesday, 27 April 2021 06:12PM
    Psi4 wall time for execution: 0:00:26.17

*** Psi4 exiting successfully. Buy a developer a beer!
