
    -----------------------------------------------------------------------
          Psi4: An Open-Source Ab Initio Electronic Structure Package
                               Psi4 1.3.2 release

                         Git: Rev {HEAD} ecbda83 


    R. M. Parrish, L. A. Burns, D. G. A. Smith, A. C. Simmonett,
    A. E. DePrince III, E. G. Hohenstein, U. Bozkaya, A. Yu. Sokolov,
    R. Di Remigio, R. M. Richard, J. F. Gonthier, A. M. James,
    H. R. McAlexander, A. Kumar, M. Saitow, X. Wang, B. P. Pritchard,
    P. Verma, H. F. Schaefer III, K. Patkowski, R. A. King, E. F. Valeev,
    F. A. Evangelista, J. M. Turney, T. D. Crawford, and C. D. Sherrill,
    J. Chem. Theory Comput. 13(7) pp 3185--3197 (2017).
    (doi: 10.1021/acs.jctc.7b00174)


                         Additional Contributions by
    P. Kraus, H. Kruse, M. H. Lechner, M. C. Schieber, R. A. Shaw,
    A. Alenaizan, R. Galvelis, Z. L. Glick, S. Lehtola, and J. P. Misiewicz

    -----------------------------------------------------------------------


    Psi4 started on: Tuesday, 27 April 2021 06:12PM

    Process ID: 201176
    Host:       bp1-compute00115.data.bp.acrc.priv
    PSIDATADIR: /work/zw18965/.conda/envs/p4env/share/psi4
    Memory:     500.0 MiB
    Threads:    24
    
  ==> Input File <==

--------------------------------------------------------------------------
memory 144 GB

molecule {
0 1
N 0.0000000000 0.0000000000 0.0000000000
H 0.0000000000 0.0000000000 1.0124000000
H 0.9722998620 0.0000000000 -0.2821112163
H -0.3756003142 0.8968229622 -0.2821112163
}

set dynamic_level 1
set basis cc-pV(D+d)Z
 
optimize("wB97M-V")
frequencies("wB97M-V")
--------------------------------------------------------------------------

  Memory set to 134.110 GiB by Python driver.
gradient() will perform gradient computation by finite difference of analytic energies.

         ----------------------------------------------------------
                                   FINDIF
                     R. A. King and Jonathon Misiewicz
         ---------------------------------------------------------

  Using finite-differences of energies to determine gradients.
    Generating geometries for use with 3-point formula.
    Displacement size will be 5.00e-03.
    Number of atoms is 4.
    Number of symmetric SALCs is 4.
    Translations projected? 1. Rotations projected? 1.
    Number of geometries (including reference) is 9.

  //>>>>>>>>>>>>>>>>>>>>>>>>>>>>>>>>>>>//
  //    Loading displacement 1 of 9    //
  //<<<<<<<<<<<<<<<<<<<<<<<<<<<<<<<<<<<//

*** tstart() called on bp1-compute00115.data.bp.acrc.priv
*** at Tue Apr 27 18:12:48 2021

   => Loading Basis Set <=

    Name: CC-PV(D+D)Z
    Role: ORBITAL
    Keyword: BASIS
    atoms 1   entry N          line   177 file /work/zw18965/.conda/envs/p4env/share/psi4/basis/cc-pv_dpd_z.gbs 
    atoms 2-4 entry H          line    31 file /work/zw18965/.conda/envs/p4env/share/psi4/basis/cc-pv_dpd_z.gbs 


         ---------------------------------------------------------
                                   SCF
               by Justin Turney, Rob Parrish, Andy Simmonett
                          and Daniel G. A. Smith
                              RKS Reference
                       24 Threads, 137329 MiB Core
         ---------------------------------------------------------

  ==> Geometry <==

    Molecular point group: cs
    Full point group: C3v

    Geometry (in Angstrom), charge = 0, multiplicity = 1:

       Center              X                  Y                   Z               Mass       
    ------------   -----------------  -----------------  -----------------  -----------------
         N           -0.044172539916    -0.053084193715     0.000000000000    14.003074004430
         H            0.563834188921    -0.053084193715     0.809494643400     1.007825032230
         H            0.563834188921    -0.053084193715    -0.809494643400     1.007825032230
         H           -0.513919636117     0.843738768485     0.000000000000     1.007825032230

  Running in cs symmetry.

  Rotational constants: A =      9.93436  B =      9.93436  C =      6.38151 [cm^-1]
  Rotational constants: A = 297824.55791  B = 297824.55789  C = 191312.83542 [MHz]
  Nuclear repulsion =   11.957181014327382

  Charge       = 0
  Multiplicity = 1
  Electrons    = 10
  Nalpha       = 5
  Nbeta        = 5

  ==> Algorithm <==

  SCF Algorithm Type is DF.
  DIIS enabled.
  MOM disabled.
  Fractional occupation disabled.
  Guess Type is SAD.
  Energy threshold   = 1.00e-08
  Density threshold  = 1.00e-08
  Integral threshold = 0.00e+00

  ==> Primary Basis <==

  Basis Set: CC-PV(D+D)Z
    Blend: CC-PV(D+D)Z
    Number of shells: 15
    Number of basis function: 29
    Number of Cartesian functions: 30
    Spherical Harmonics?: true
    Max angular momentum: 2

  ==> DFT Potential <==

   => Composite Functional: WB97M-V <= 

    wB97M-V Hyb-GGA Exchange-Correlation Functional

    N. Mardirossian and M. Head-Gordon, J. Chem. Phys. 144, 214110 (2016)

    Deriv               =              1
    GGA                 =           TRUE
    Meta                =           TRUE

    Exchange Hybrid     =           TRUE
    MP2 Hybrid          =          FALSE

   => Exchange-Correlation Functionals <=

    1.0000   wB97M-V exchange-correlation functional

   => Exact (HF) Exchange <=

    0.8500            HF,LR [omega = 0.3000]
    0.1500               HF 

   => VV10 Non-Local Parameters <=

    VV10 B              =     6.0000E+00
    VV10 C              =     1.0000E-02

   => Molecular Quadrature <=

    Radial Scheme          =       TREUTLER
    Pruning Scheme         =           FLAT
    Nuclear Scheme         =       TREUTLER

    BS radius alpha        =              1
    Pruning alpha          =              1
    Radial Points          =             75
    Spherical Points       =            302
    Total Points           =          88863
    Total Blocks           =            732
    Max Points             =            256
    Max Functions          =             29

   => Loading Basis Set <=

    Name: (CC-PV(D+D)Z AUX)
    Role: JKFIT
    Keyword: DF_BASIS_SCF
    atoms 1   entry N          line   171 file /work/zw18965/.conda/envs/p4env/share/psi4/basis/cc-pvdz-jkfit.gbs 
    atoms 2-4 entry H          line    51 file /work/zw18965/.conda/envs/p4env/share/psi4/basis/cc-pvdz-jkfit.gbs 

  ==> Pre-Iterations <==

   -------------------------------------------------------
    Irrep   Nso     Nmo     Nalpha   Nbeta   Ndocc  Nsocc
   -------------------------------------------------------
     A'        19      19       0       0       0       0
     A"        10      10       0       0       0       0
   -------------------------------------------------------
    Total      29      29       5       5       5       0
   -------------------------------------------------------

  ==> Integral Setup <==

  ==> DiskDFJK: Density-Fitted J/K Matrices <==

    J tasked:                  Yes
    K tasked:                  Yes
    wK tasked:                 Yes
    Omega:               3.000E-01
    OpenMP threads:             24
    Integrals threads:          24
    Memory [MiB]:           102811
    Algorithm:                Core
    Integral Cache:           NONE
    Schwarz Cutoff:          1E-12
    Fitting Condition:       1E-10

   => Auxiliary Basis Set <=

  Basis Set: (CC-PV(D+D)Z AUX)
    Blend: CC-PVDZ-JKFIT
    Number of shells: 51
    Number of basis function: 139
    Number of Cartesian functions: 156
    Spherical Harmonics?: true
    Max angular momentum: 3

  Cached 100.0% of DFT collocation blocks in 0.181 [GiB].

  Minimum eigenvalue in the overlap matrix is 2.9132537331E-02.
  Using Symmetric Orthogonalization.

  SCF Guess: Superposition of Atomic Densities via on-the-fly atomic UHF.

  ==> Iterations <==

                           Total Energy        Delta E     RMS |[F,P]|

   @DF-RKS iter SAD:   -56.09034523358900   -5.60903e+01   0.00000e+00 
   @DF-RKS iter   1:   -56.38522080826012   -2.94876e-01   2.54199e-02 DIIS
   @DF-RKS iter   2:   -56.42606962065400   -4.08488e-02   2.18371e-02 DIIS
   @DF-RKS iter   3:   -56.51807240514244   -9.20028e-02   6.92335e-04 DIIS
   @DF-RKS iter   4:   -56.51829708292861   -2.24678e-04   2.05346e-04 DIIS
   @DF-RKS iter   5:   -56.51831271399520   -1.56311e-05   3.68274e-05 DIIS
   @DF-RKS iter   6:   -56.51831394543880   -1.23144e-06   1.08680e-05 DIIS
   @DF-RKS iter   7:   -56.51831410918319   -1.63744e-07   1.76453e-06 DIIS
   @DF-RKS iter   8:   -56.51831411336703   -4.18384e-09   1.18318e-07 DIIS
   @DF-RKS iter   9:   -56.51831411337363   -6.60094e-12   1.25551e-08 DIIS
   @DF-RKS iter  10:   -56.51831411337370   -6.39488e-14   8.88543e-10 DIIS
  Energy and wave function converged.


  ==> Post-Iterations <==

    Orbital Energies [Eh]
    ---------------------

    Doubly Occupied:                                                      

       1Ap   -14.482507     2Ap    -0.961366     3Ap    -0.549198  
       1App   -0.549197     4Ap    -0.353954  

    Virtual:                                                              

       5Ap     0.138348     6Ap     0.219239     2App    0.219240  
       7Ap     0.613737     3App    0.613737     8Ap     0.738359  
       9Ap     0.861769    10Ap     0.925210     4App    0.925211  
       5App    1.176336    11Ap     1.176336    12Ap     1.242552  
       6App    1.600098    13Ap     1.749237    14Ap     1.787029  
       7App    1.787031    15Ap     2.090797     8App    2.090797  
      16Ap     2.343548    17Ap     2.600677     9App    2.600678  
      18Ap     2.704491    19Ap     3.035747    10App    3.035747  

    Final Occupation by Irrep:
             Ap   App 
    DOCC [     4,    1 ]

  @DF-RKS Final Energy:   -56.51831411337370

   => Energetics <=

    Nuclear Repulsion Energy =             11.9571810143273822
    One-Electron Energy =                 -99.7150442468146281
    Two-Electron Energy =                  36.7650865002236671
    DFT Exchange-Correlation Energy =      -5.5674730315572063
    Empirical Dispersion Energy =           0.0000000000000000
    VV10 Nonlocal Energy =                  0.0419356504470820
    Total Energy =                        -56.5183141133736981

Computation Completed


Properties will be evaluated at   0.000000,   0.000000,   0.000000 [a0]

Properties computed using the SCF density matrix

  Nuclear Dipole Moment: [e a0]
     X:     0.5755      Y:     0.6916      Z:     0.0000

  Electronic Dipole Moment: [e a0]
     X:    -0.1681      Y:    -0.2021      Z:     0.0000

  Dipole Moment: [e a0]
     X:     0.4074      Y:     0.4896      Z:     0.0000     Total:     0.6369

  Dipole Moment: [D]
     X:     1.0354      Y:     1.2443      Z:     0.0000     Total:     1.6188


*** tstop() called on bp1-compute00115.data.bp.acrc.priv at Tue Apr 27 18:12:52 2021
Module time:
	user time   =      74.91 seconds =       1.25 minutes
	system time =       2.79 seconds =       0.05 minutes
	total time  =          4 seconds =       0.07 minutes
Total time:
	user time   =      74.91 seconds =       1.25 minutes
	system time =       2.79 seconds =       0.05 minutes
	total time  =          4 seconds =       0.07 minutes

  //>>>>>>>>>>>>>>>>>>>>>>>>>>>>>>>>>>>//
  //    Loading displacement 2 of 9    //
  //<<<<<<<<<<<<<<<<<<<<<<<<<<<<<<<<<<<//

*** tstart() called on bp1-compute00115.data.bp.acrc.priv
*** at Tue Apr 27 18:12:52 2021

   => Loading Basis Set <=

    Name: CC-PV(D+D)Z
    Role: ORBITAL
    Keyword: BASIS
    atoms 1   entry N          line   177 file /work/zw18965/.conda/envs/p4env/share/psi4/basis/cc-pv_dpd_z.gbs 
    atoms 2-4 entry H          line    31 file /work/zw18965/.conda/envs/p4env/share/psi4/basis/cc-pv_dpd_z.gbs 


         ---------------------------------------------------------
                                   SCF
               by Justin Turney, Rob Parrish, Andy Simmonett
                          and Daniel G. A. Smith
                              RKS Reference
                       24 Threads, 137329 MiB Core
         ---------------------------------------------------------

  ==> Geometry <==

    Molecular point group: cs
    Full point group: Cs

    Geometry (in Angstrom), charge = 0, multiplicity = 1:

       Center              X                  Y                   Z               Mass       
    ------------   -----------------  -----------------  -----------------  -----------------
         N           -0.044450300625    -0.053119022022     0.000000000000    14.003074004430
         H            0.565356326971    -0.052639632675     0.809494643400     1.007825032230
         H            0.565356326971    -0.052639632675    -0.809494643400     1.007825032230
         H           -0.513104607633     0.843333563103     0.000000000000     1.007825032230

  Running in cs symmetry.

  Rotational constants: A =      9.92134  B =      9.92130  C =      6.38149 [cm^-1]
  Rotational constants: A = 297434.35468  B = 297433.04179  C = 191312.29224 [MHz]
  Nuclear repulsion =   11.952387408110855

  Charge       = 0
  Multiplicity = 1
  Electrons    = 10
  Nalpha       = 5
  Nbeta        = 5

  ==> Algorithm <==

  SCF Algorithm Type is DF.
  DIIS enabled.
  MOM disabled.
  Fractional occupation disabled.
  Guess Type is SAD.
  Energy threshold   = 1.00e-08
  Density threshold  = 1.00e-08
  Integral threshold = 0.00e+00

  ==> Primary Basis <==

  Basis Set: CC-PV(D+D)Z
    Blend: CC-PV(D+D)Z
    Number of shells: 15
    Number of basis function: 29
    Number of Cartesian functions: 30
    Spherical Harmonics?: true
    Max angular momentum: 2

  ==> DFT Potential <==

   => Composite Functional: WB97M-V <= 

    wB97M-V Hyb-GGA Exchange-Correlation Functional

    N. Mardirossian and M. Head-Gordon, J. Chem. Phys. 144, 214110 (2016)

    Deriv               =              1
    GGA                 =           TRUE
    Meta                =           TRUE

    Exchange Hybrid     =           TRUE
    MP2 Hybrid          =          FALSE

   => Exchange-Correlation Functionals <=

    1.0000   wB97M-V exchange-correlation functional

   => Exact (HF) Exchange <=

    0.8500            HF,LR [omega = 0.3000]
    0.1500               HF 

   => VV10 Non-Local Parameters <=

    VV10 B              =     6.0000E+00
    VV10 C              =     1.0000E-02

   => Molecular Quadrature <=

    Radial Scheme          =       TREUTLER
    Pruning Scheme         =           FLAT
    Nuclear Scheme         =       TREUTLER

    BS radius alpha        =              1
    Pruning alpha          =              1
    Radial Points          =             75
    Spherical Points       =            302
    Total Points           =          88863
    Total Blocks           =            731
    Max Points             =            256
    Max Functions          =             29

   => Loading Basis Set <=

    Name: (CC-PV(D+D)Z AUX)
    Role: JKFIT
    Keyword: DF_BASIS_SCF
    atoms 1   entry N          line   171 file /work/zw18965/.conda/envs/p4env/share/psi4/basis/cc-pvdz-jkfit.gbs 
    atoms 2-4 entry H          line    51 file /work/zw18965/.conda/envs/p4env/share/psi4/basis/cc-pvdz-jkfit.gbs 

  ==> Pre-Iterations <==

   -------------------------------------------------------
    Irrep   Nso     Nmo     Nalpha   Nbeta   Ndocc  Nsocc
   -------------------------------------------------------
     A'        19      19       0       0       0       0
     A"        10      10       0       0       0       0
   -------------------------------------------------------
    Total      29      29       5       5       5       0
   -------------------------------------------------------

  ==> Integral Setup <==

  ==> DiskDFJK: Density-Fitted J/K Matrices <==

    J tasked:                  Yes
    K tasked:                  Yes
    wK tasked:                 Yes
    Omega:               3.000E-01
    OpenMP threads:             24
    Integrals threads:          24
    Memory [MiB]:           102811
    Algorithm:                Core
    Integral Cache:           NONE
    Schwarz Cutoff:          1E-12
    Fitting Condition:       1E-10

   => Auxiliary Basis Set <=

  Basis Set: (CC-PV(D+D)Z AUX)
    Blend: CC-PVDZ-JKFIT
    Number of shells: 51
    Number of basis function: 139
    Number of Cartesian functions: 156
    Spherical Harmonics?: true
    Max angular momentum: 3

  Cached 100.0% of DFT collocation blocks in 0.181 [GiB].

  Minimum eigenvalue in the overlap matrix is 2.9126911236E-02.
  Using Symmetric Orthogonalization.

  SCF Guess: Superposition of Atomic Densities via on-the-fly atomic UHF.

  ==> Iterations <==

                           Total Energy        Delta E     RMS |[F,P]|

   @DF-RKS iter SAD:   -56.08989931616155   -5.60899e+01   0.00000e+00 
   @DF-RKS iter   1:   -56.38526534373968   -2.95366e-01   2.54122e-02 DIIS
   @DF-RKS iter   2:   -56.42603302673389   -4.07677e-02   2.18416e-02 DIIS
   @DF-RKS iter   3:   -56.51809764150865   -9.20646e-02   6.93029e-04 DIIS
   @DF-RKS iter   4:   -56.51832260911669   -2.24968e-04   2.05751e-04 DIIS
   @DF-RKS iter   5:   -56.51833829863499   -1.56895e-05   3.68847e-05 DIIS
   @DF-RKS iter   6:   -56.51833953195662   -1.23332e-06   1.08675e-05 DIIS
   @DF-RKS iter   7:   -56.51833969575175   -1.63795e-07   1.76656e-06 DIIS
   @DF-RKS iter   8:   -56.51833969994430   -4.19255e-09   1.18497e-07 DIIS
   @DF-RKS iter   9:   -56.51833969995091   -6.60805e-12   1.28008e-08 DIIS
   @DF-RKS iter  10:   -56.51833969995097   -6.39488e-14   1.32695e-09 DIIS
  Energy and wave function converged.


  ==> Post-Iterations <==

    Orbital Energies [Eh]
    ---------------------

    Doubly Occupied:                                                      

       1Ap   -14.482700     2Ap    -0.961316     3Ap    -0.549366  
       1App   -0.548622     4Ap    -0.354130  

    Virtual:                                                              

       5Ap     0.138245     2App    0.219078     6Ap     0.219249  
       3App    0.612847     7Ap     0.613970     8Ap     0.738272  
       9Ap     0.861864     4App    0.925118    10Ap     0.925217  
      11Ap     1.175628     5App    1.176305    12Ap     1.242455  
       6App    1.600146    13Ap     1.748702    14Ap     1.786691  
       7App    1.786713     8App    2.088487    15Ap     2.091051  
      16Ap     2.344223    17Ap     2.599604     9App    2.599979  
      18Ap     2.702645    10App    3.035265    19Ap     3.036039  

    Final Occupation by Irrep:
             Ap   App 
    DOCC [     4,    1 ]

  @DF-RKS Final Energy:   -56.51833969995097

   => Energetics <=

    Nuclear Repulsion Energy =             11.9523874081108552
    One-Electron Energy =                 -99.7059304394981609
    Two-Electron Energy =                  36.7603153724422711
    DFT Exchange-Correlation Energy =      -5.5670470887037995
    Empirical Dispersion Energy =           0.0000000000000000
    VV10 Nonlocal Energy =                  0.0419350476978656
    Total Energy =                        -56.5183396999509782

Computation Completed


Properties will be evaluated at   0.000000,   0.000000,   0.000000 [a0]

Properties computed using the SCF density matrix

  Nuclear Dipole Moment: [e a0]
     X:     0.5791      Y:     0.6921      Z:     0.0000

  Electronic Dipole Moment: [e a0]
     X:    -0.1708      Y:    -0.2018      Z:     0.0000

  Dipole Moment: [e a0]
     X:     0.4083      Y:     0.4903      Z:     0.0000     Total:     0.6380

  Dipole Moment: [D]
     X:     1.0378      Y:     1.2461      Z:     0.0000     Total:     1.6217


*** tstop() called on bp1-compute00115.data.bp.acrc.priv at Tue Apr 27 18:12:55 2021
Module time:
	user time   =      72.27 seconds =       1.20 minutes
	system time =       2.25 seconds =       0.04 minutes
	total time  =          3 seconds =       0.05 minutes
Total time:
	user time   =     147.32 seconds =       2.46 minutes
	system time =       5.05 seconds =       0.08 minutes
	total time  =          7 seconds =       0.12 minutes

  //>>>>>>>>>>>>>>>>>>>>>>>>>>>>>>>>>>>//
  //    Loading displacement 3 of 9    //
  //<<<<<<<<<<<<<<<<<<<<<<<<<<<<<<<<<<<//

*** tstart() called on bp1-compute00115.data.bp.acrc.priv
*** at Tue Apr 27 18:12:55 2021

   => Loading Basis Set <=

    Name: CC-PV(D+D)Z
    Role: ORBITAL
    Keyword: BASIS
    atoms 1   entry N          line   177 file /work/zw18965/.conda/envs/p4env/share/psi4/basis/cc-pv_dpd_z.gbs 
    atoms 2-4 entry H          line    31 file /work/zw18965/.conda/envs/p4env/share/psi4/basis/cc-pv_dpd_z.gbs 


         ---------------------------------------------------------
                                   SCF
               by Justin Turney, Rob Parrish, Andy Simmonett
                          and Daniel G. A. Smith
                              RKS Reference
                       24 Threads, 137329 MiB Core
         ---------------------------------------------------------

  ==> Geometry <==

    Molecular point group: cs
    Full point group: Cs

    Geometry (in Angstrom), charge = 0, multiplicity = 1:

       Center              X                  Y                   Z               Mass       
    ------------   -----------------  -----------------  -----------------  -----------------
         N           -0.043894779207    -0.053049365408     0.000000000000    14.003074004430
         H            0.562312050870    -0.053528754755     0.809494643400     1.007825032230
         H            0.562312050870    -0.053528754755    -0.809494643400     1.007825032230
         H           -0.514734664601     0.844143973867     0.000000000000     1.007825032230

  Running in cs symmetry.

  Rotational constants: A =      9.94741  B =      9.94737  C =      6.38149 [cm^-1]
  Rotational constants: A = 298215.95345  B = 298214.64224  C = 191312.29578 [MHz]
  Nuclear repulsion =   11.961977288575349

  Charge       = 0
  Multiplicity = 1
  Electrons    = 10
  Nalpha       = 5
  Nbeta        = 5

  ==> Algorithm <==

  SCF Algorithm Type is DF.
  DIIS enabled.
  MOM disabled.
  Fractional occupation disabled.
  Guess Type is SAD.
  Energy threshold   = 1.00e-08
  Density threshold  = 1.00e-08
  Integral threshold = 0.00e+00

  ==> Primary Basis <==

  Basis Set: CC-PV(D+D)Z
    Blend: CC-PV(D+D)Z
    Number of shells: 15
    Number of basis function: 29
    Number of Cartesian functions: 30
    Spherical Harmonics?: true
    Max angular momentum: 2

  ==> DFT Potential <==

   => Composite Functional: WB97M-V <= 

    wB97M-V Hyb-GGA Exchange-Correlation Functional

    N. Mardirossian and M. Head-Gordon, J. Chem. Phys. 144, 214110 (2016)

    Deriv               =              1
    GGA                 =           TRUE
    Meta                =           TRUE

    Exchange Hybrid     =           TRUE
    MP2 Hybrid          =          FALSE

   => Exchange-Correlation Functionals <=

    1.0000   wB97M-V exchange-correlation functional

   => Exact (HF) Exchange <=

    0.8500            HF,LR [omega = 0.3000]
    0.1500               HF 

   => VV10 Non-Local Parameters <=

    VV10 B              =     6.0000E+00
    VV10 C              =     1.0000E-02

   => Molecular Quadrature <=

    Radial Scheme          =       TREUTLER
    Pruning Scheme         =           FLAT
    Nuclear Scheme         =       TREUTLER

    BS radius alpha        =              1
    Pruning alpha          =              1
    Radial Points          =             75
    Spherical Points       =            302
    Total Points           =          88863
    Total Blocks           =            738
    Max Points             =            256
    Max Functions          =             29

   => Loading Basis Set <=

    Name: (CC-PV(D+D)Z AUX)
    Role: JKFIT
    Keyword: DF_BASIS_SCF
    atoms 1   entry N          line   171 file /work/zw18965/.conda/envs/p4env/share/psi4/basis/cc-pvdz-jkfit.gbs 
    atoms 2-4 entry H          line    51 file /work/zw18965/.conda/envs/p4env/share/psi4/basis/cc-pvdz-jkfit.gbs 

  ==> Pre-Iterations <==

   -------------------------------------------------------
    Irrep   Nso     Nmo     Nalpha   Nbeta   Ndocc  Nsocc
   -------------------------------------------------------
     A'        19      19       0       0       0       0
     A"        10      10       0       0       0       0
   -------------------------------------------------------
    Total      29      29       5       5       5       0
   -------------------------------------------------------

  ==> Integral Setup <==

  ==> DiskDFJK: Density-Fitted J/K Matrices <==

    J tasked:                  Yes
    K tasked:                  Yes
    wK tasked:                 Yes
    Omega:               3.000E-01
    OpenMP threads:             24
    Integrals threads:          24
    Memory [MiB]:           102811
    Algorithm:                Core
    Integral Cache:           NONE
    Schwarz Cutoff:          1E-12
    Fitting Condition:       1E-10

   => Auxiliary Basis Set <=

  Basis Set: (CC-PV(D+D)Z AUX)
    Blend: CC-PVDZ-JKFIT
    Number of shells: 51
    Number of basis function: 139
    Number of Cartesian functions: 156
    Spherical Harmonics?: true
    Max angular momentum: 3

  Cached 100.0% of DFT collocation blocks in 0.181 [GiB].

  Minimum eigenvalue in the overlap matrix is 2.9137908166E-02.
  Using Symmetric Orthogonalization.

  SCF Guess: Superposition of Atomic Densities via on-the-fly atomic UHF.

  ==> Iterations <==

                           Total Energy        Delta E     RMS |[F,P]|

   @DF-RKS iter SAD:   -56.09078576847475   -5.60908e+01   0.00000e+00 
   @DF-RKS iter   1:   -56.38516858525846   -2.94383e-01   2.54277e-02 DIIS
   @DF-RKS iter   2:   -56.42609821364439   -4.09296e-02   2.18328e-02 DIIS
   @DF-RKS iter   3:   -56.51804153605003   -9.19433e-02   6.91646e-04 DIIS
   @DF-RKS iter   4:   -56.51826592558506   -2.24390e-04   2.04943e-04 DIIS
   @DF-RKS iter   5:   -56.51828149840762   -1.55728e-05   3.67698e-05 DIIS
   @DF-RKS iter   6:   -56.51828272791255   -1.22950e-06   1.08683e-05 DIIS
   @DF-RKS iter   7:   -56.51828289159889   -1.63686e-07   1.76271e-06 DIIS
   @DF-RKS iter   8:   -56.51828289577496   -4.17607e-09   1.18370e-07 DIIS
   @DF-RKS iter   9:   -56.51828289578151   -6.55120e-12   1.27735e-08 DIIS
   @DF-RKS iter  10:   -56.51828289578161   -9.94760e-14   1.31730e-09 DIIS
  Energy and wave function converged.


  ==> Post-Iterations <==

    Orbital Energies [Eh]
    ---------------------

    Doubly Occupied:                                                      

       1Ap   -14.482314     2Ap    -0.961416     1App   -0.549773  
       3Ap    -0.549028     4Ap    -0.353778  

    Virtual:                                                              

       5Ap     0.138451     6Ap     0.219229     2App    0.219399  
       7Ap     0.613502     3App    0.614632     8Ap     0.738443  
       9Ap     0.861671    10Ap     0.925207     4App    0.925306  
       5App    1.176369    11Ap     1.177044    12Ap     1.242648  
       6App    1.600048    13Ap     1.749766     7App    1.787346  
      14Ap     1.787367    15Ap     2.090538     8App    2.093113  
      16Ap     2.342875     9App    2.601379    17Ap     2.601708  
      18Ap     2.706361    19Ap     3.035486    10App    3.036226  

    Final Occupation by Irrep:
             Ap   App 
    DOCC [     4,    1 ]

  @DF-RKS Final Energy:   -56.51828289578161

   => Energetics <=

    Nuclear Repulsion Energy =             11.9619772885753495
    One-Electron Energy =                 -99.7241499728623779
    Two-Electron Energy =                  36.7698524965501505
    DFT Exchange-Correlation Energy =      -5.5678989608450831
    Empirical Dispersion Energy =           0.0000000000000000
    VV10 Nonlocal Energy =                  0.0419362528003495
    Total Energy =                        -56.5182828957816099

Computation Completed


Properties will be evaluated at   0.000000,   0.000000,   0.000000 [a0]

Properties computed using the SCF density matrix

  Nuclear Dipole Moment: [e a0]
     X:     0.5719      Y:     0.6912      Z:     0.0000

  Electronic Dipole Moment: [e a0]
     X:    -0.1655      Y:    -0.2023      Z:     0.0000

  Dipole Moment: [e a0]
     X:     0.4064      Y:     0.4888      Z:     0.0000     Total:     0.6357

  Dipole Moment: [D]
     X:     1.0330      Y:     1.2425      Z:     0.0000     Total:     1.6158


*** tstop() called on bp1-compute00115.data.bp.acrc.priv at Tue Apr 27 18:12:58 2021
Module time:
	user time   =      72.98 seconds =       1.22 minutes
	system time =       1.87 seconds =       0.03 minutes
	total time  =          3 seconds =       0.05 minutes
Total time:
	user time   =     220.45 seconds =       3.67 minutes
	system time =       6.92 seconds =       0.12 minutes
	total time  =         10 seconds =       0.17 minutes

  //>>>>>>>>>>>>>>>>>>>>>>>>>>>>>>>>>>>//
  //    Loading displacement 4 of 9    //
  //<<<<<<<<<<<<<<<<<<<<<<<<<<<<<<<<<<<//

*** tstart() called on bp1-compute00115.data.bp.acrc.priv
*** at Tue Apr 27 18:12:58 2021

   => Loading Basis Set <=

    Name: CC-PV(D+D)Z
    Role: ORBITAL
    Keyword: BASIS
    atoms 1   entry N          line   177 file /work/zw18965/.conda/envs/p4env/share/psi4/basis/cc-pv_dpd_z.gbs 
    atoms 2-4 entry H          line    31 file /work/zw18965/.conda/envs/p4env/share/psi4/basis/cc-pv_dpd_z.gbs 


         ---------------------------------------------------------
                                   SCF
               by Justin Turney, Rob Parrish, Andy Simmonett
                          and Daniel G. A. Smith
                              RKS Reference
                       24 Threads, 137329 MiB Core
         ---------------------------------------------------------

  ==> Geometry <==

    Molecular point group: cs
    Full point group: Cs

    Geometry (in Angstrom), charge = 0, multiplicity = 1:

       Center              X                  Y                   Z               Mass       
    ------------   -----------------  -----------------  -----------------  -----------------
         N           -0.044172539916    -0.053366175490     0.000000000000    14.003074004430
         H            0.563611878713    -0.052045369706     0.809494643400     1.007825032230
         H            0.563611878713    -0.052045369706    -0.809494643400     1.007825032230
         H           -0.513475015702     0.845579074011     0.000000000000     1.007825032230

  Running in cs symmetry.

  Rotational constants: A =      9.92055  B =      9.92052  C =      6.38149 [cm^-1]
  Rotational constants: A = 297410.72974  B = 297409.56176  C = 191312.35212 [MHz]
  Nuclear repulsion =   11.952097444212807

  Charge       = 0
  Multiplicity = 1
  Electrons    = 10
  Nalpha       = 5
  Nbeta        = 5

  ==> Algorithm <==

  SCF Algorithm Type is DF.
  DIIS enabled.
  MOM disabled.
  Fractional occupation disabled.
  Guess Type is SAD.
  Energy threshold   = 1.00e-08
  Density threshold  = 1.00e-08
  Integral threshold = 0.00e+00

  ==> Primary Basis <==

  Basis Set: CC-PV(D+D)Z
    Blend: CC-PV(D+D)Z
    Number of shells: 15
    Number of basis function: 29
    Number of Cartesian functions: 30
    Spherical Harmonics?: true
    Max angular momentum: 2

  ==> DFT Potential <==

   => Composite Functional: WB97M-V <= 

    wB97M-V Hyb-GGA Exchange-Correlation Functional

    N. Mardirossian and M. Head-Gordon, J. Chem. Phys. 144, 214110 (2016)

    Deriv               =              1
    GGA                 =           TRUE
    Meta                =           TRUE

    Exchange Hybrid     =           TRUE
    MP2 Hybrid          =          FALSE

   => Exchange-Correlation Functionals <=

    1.0000   wB97M-V exchange-correlation functional

   => Exact (HF) Exchange <=

    0.8500            HF,LR [omega = 0.3000]
    0.1500               HF 

   => VV10 Non-Local Parameters <=

    VV10 B              =     6.0000E+00
    VV10 C              =     1.0000E-02

   => Molecular Quadrature <=

    Radial Scheme          =       TREUTLER
    Pruning Scheme         =           FLAT
    Nuclear Scheme         =       TREUTLER

    BS radius alpha        =              1
    Pruning alpha          =              1
    Radial Points          =             75
    Spherical Points       =            302
    Total Points           =          88863
    Total Blocks           =            735
    Max Points             =            256
    Max Functions          =             29

   => Loading Basis Set <=

    Name: (CC-PV(D+D)Z AUX)
    Role: JKFIT
    Keyword: DF_BASIS_SCF
    atoms 1   entry N          line   171 file /work/zw18965/.conda/envs/p4env/share/psi4/basis/cc-pvdz-jkfit.gbs 
    atoms 2-4 entry H          line    51 file /work/zw18965/.conda/envs/p4env/share/psi4/basis/cc-pvdz-jkfit.gbs 

  ==> Pre-Iterations <==

   -------------------------------------------------------
    Irrep   Nso     Nmo     Nalpha   Nbeta   Ndocc  Nsocc
   -------------------------------------------------------
     A'        19      19       0       0       0       0
     A"        10      10       0       0       0       0
   -------------------------------------------------------
    Total      29      29       5       5       5       0
   -------------------------------------------------------

  ==> Integral Setup <==

  ==> DiskDFJK: Density-Fitted J/K Matrices <==

    J tasked:                  Yes
    K tasked:                  Yes
    wK tasked:                 Yes
    Omega:               3.000E-01
    OpenMP threads:             24
    Integrals threads:          24
    Memory [MiB]:           102811
    Algorithm:                Core
    Integral Cache:           NONE
    Schwarz Cutoff:          1E-12
    Fitting Condition:       1E-10

   => Auxiliary Basis Set <=

  Basis Set: (CC-PV(D+D)Z AUX)
    Blend: CC-PVDZ-JKFIT
    Number of shells: 51
    Number of basis function: 139
    Number of Cartesian functions: 156
    Spherical Harmonics?: true
    Max angular momentum: 3

  Cached 100.0% of DFT collocation blocks in 0.181 [GiB].

  Minimum eigenvalue in the overlap matrix is 2.9126583626E-02.
  Using Symmetric Orthogonalization.

  SCF Guess: Superposition of Atomic Densities via on-the-fly atomic UHF.

  ==> Iterations <==

                           Total Energy        Delta E     RMS |[F,P]|

   @DF-RKS iter SAD:   -56.08987268973799   -5.60899e+01   0.00000e+00 
   @DF-RKS iter   1:   -56.38526853363115   -2.95396e-01   2.54118e-02 DIIS
   @DF-RKS iter   2:   -56.42603131278555   -4.07628e-02   2.18419e-02 DIIS
   @DF-RKS iter   3:   -56.51809951442812   -9.20682e-02   6.93071e-04 DIIS
   @DF-RKS iter   4:   -56.51832449928430   -2.24985e-04   2.05776e-04 DIIS
   @DF-RKS iter   5:   -56.51834019232698   -1.56930e-05   3.68882e-05 DIIS
   @DF-RKS iter   6:   -56.51834142576180   -1.23343e-06   1.08675e-05 DIIS
   @DF-RKS iter   7:   -56.51834158956016   -1.63798e-07   1.76666e-06 DIIS
   @DF-RKS iter   8:   -56.51834159375318   -4.19303e-09   1.18486e-07 DIIS
   @DF-RKS iter   9:   -56.51834159375977   -6.58673e-12   1.27723e-08 DIIS
   @DF-RKS iter  10:   -56.51834159375989   -1.13687e-13   1.28247e-09 DIIS
  Energy and wave function converged.


  ==> Post-Iterations <==

    Orbital Energies [Eh]
    ---------------------

    Doubly Occupied:                                                      

       1Ap   -14.482712     2Ap    -0.961313     1App   -0.549333  
       3Ap    -0.548631     4Ap    -0.354141  

    Virtual:                                                              

       5Ap     0.138238     6Ap     0.219078     2App    0.219240  
       7Ap     0.612858     3App    0.613919     8Ap     0.738267  
       9Ap     0.861870    10Ap     0.925119     4App    0.925211  
       5App    1.175625    11Ap     1.176264    12Ap     1.242449  
       6App    1.600149    13Ap     1.748670     7App    1.786674  
      14Ap     1.786691    15Ap     2.088495     8App    2.090920  
      16Ap     2.344264     9App    2.599577    17Ap     2.599901  
      18Ap     2.702532    19Ap     3.035293    10App    3.035997  

    Final Occupation by Irrep:
             Ap   App 
    DOCC [     4,    1 ]

  @DF-RKS Final Energy:   -56.51834159375989

   => Energetics <=

    Nuclear Repulsion Energy =             11.9520974442128072
    One-Electron Energy =                 -99.7053801196876179
    Two-Electron Energy =                  36.7600274050199332
    DFT Exchange-Correlation Energy =      -5.5670213236179009
    Empirical Dispersion Energy =           0.0000000000000000
    VV10 Nonlocal Energy =                  0.0419350003128873
    Total Energy =                        -56.5183415937598852

Computation Completed


Properties will be evaluated at   0.000000,   0.000000,   0.000000 [a0]

Properties computed using the SCF density matrix

  Nuclear Dipole Moment: [e a0]
     X:     0.5755      Y:     0.6953      Z:     0.0000

  Electronic Dipole Moment: [e a0]
     X:    -0.1675      Y:    -0.2046      Z:     0.0000

  Dipole Moment: [e a0]
     X:     0.4080      Y:     0.4907      Z:     0.0000     Total:     0.6381

  Dipole Moment: [D]
     X:     1.0369      Y:     1.2471      Z:     0.0000     Total:     1.6219


*** tstop() called on bp1-compute00115.data.bp.acrc.priv at Tue Apr 27 18:13:01 2021
Module time:
	user time   =      71.87 seconds =       1.20 minutes
	system time =       1.88 seconds =       0.03 minutes
	total time  =          3 seconds =       0.05 minutes
Total time:
	user time   =     292.46 seconds =       4.87 minutes
	system time =       8.81 seconds =       0.15 minutes
	total time  =         13 seconds =       0.22 minutes

  //>>>>>>>>>>>>>>>>>>>>>>>>>>>>>>>>>>>//
  //    Loading displacement 5 of 9    //
  //<<<<<<<<<<<<<<<<<<<<<<<<<<<<<<<<<<<//

*** tstart() called on bp1-compute00115.data.bp.acrc.priv
*** at Tue Apr 27 18:13:01 2021

   => Loading Basis Set <=

    Name: CC-PV(D+D)Z
    Role: ORBITAL
    Keyword: BASIS
    atoms 1   entry N          line   177 file /work/zw18965/.conda/envs/p4env/share/psi4/basis/cc-pv_dpd_z.gbs 
    atoms 2-4 entry H          line    31 file /work/zw18965/.conda/envs/p4env/share/psi4/basis/cc-pv_dpd_z.gbs 


         ---------------------------------------------------------
                                   SCF
               by Justin Turney, Rob Parrish, Andy Simmonett
                          and Daniel G. A. Smith
                              RKS Reference
                       24 Threads, 137329 MiB Core
         ---------------------------------------------------------

  ==> Geometry <==

    Molecular point group: cs
    Full point group: Cs

    Geometry (in Angstrom), charge = 0, multiplicity = 1:

       Center              X                  Y                   Z               Mass       
    ------------   -----------------  -----------------  -----------------  -----------------
         N           -0.044172539916    -0.052802211941     0.000000000000    14.003074004430
         H            0.564056499128    -0.054123017724     0.809494643400     1.007825032230
         H            0.564056499128    -0.054123017724    -0.809494643400     1.007825032230
         H           -0.514364256532     0.841898462958     0.000000000000     1.007825032230

  Running in cs symmetry.

  Rotational constants: A =      9.94820  B =      9.94816  C =      6.38149 [cm^-1]
  Rotational constants: A = 298239.41596  B = 298238.24957  C = 191312.35545 [MHz]
  Nuclear repulsion =   11.962265102565624

  Charge       = 0
  Multiplicity = 1
  Electrons    = 10
  Nalpha       = 5
  Nbeta        = 5

  ==> Algorithm <==

  SCF Algorithm Type is DF.
  DIIS enabled.
  MOM disabled.
  Fractional occupation disabled.
  Guess Type is SAD.
  Energy threshold   = 1.00e-08
  Density threshold  = 1.00e-08
  Integral threshold = 0.00e+00

  ==> Primary Basis <==

  Basis Set: CC-PV(D+D)Z
    Blend: CC-PV(D+D)Z
    Number of shells: 15
    Number of basis function: 29
    Number of Cartesian functions: 30
    Spherical Harmonics?: true
    Max angular momentum: 2

  ==> DFT Potential <==

   => Composite Functional: WB97M-V <= 

    wB97M-V Hyb-GGA Exchange-Correlation Functional

    N. Mardirossian and M. Head-Gordon, J. Chem. Phys. 144, 214110 (2016)

    Deriv               =              1
    GGA                 =           TRUE
    Meta                =           TRUE

    Exchange Hybrid     =           TRUE
    MP2 Hybrid          =          FALSE

   => Exchange-Correlation Functionals <=

    1.0000   wB97M-V exchange-correlation functional

   => Exact (HF) Exchange <=

    0.8500            HF,LR [omega = 0.3000]
    0.1500               HF 

   => VV10 Non-Local Parameters <=

    VV10 B              =     6.0000E+00
    VV10 C              =     1.0000E-02

   => Molecular Quadrature <=

    Radial Scheme          =       TREUTLER
    Pruning Scheme         =           FLAT
    Nuclear Scheme         =       TREUTLER

    BS radius alpha        =              1
    Pruning alpha          =              1
    Radial Points          =             75
    Spherical Points       =            302
    Total Points           =          88863
    Total Blocks           =            732
    Max Points             =            255
    Max Functions          =             29

   => Loading Basis Set <=

    Name: (CC-PV(D+D)Z AUX)
    Role: JKFIT
    Keyword: DF_BASIS_SCF
    atoms 1   entry N          line   171 file /work/zw18965/.conda/envs/p4env/share/psi4/basis/cc-pvdz-jkfit.gbs 
    atoms 2-4 entry H          line    51 file /work/zw18965/.conda/envs/p4env/share/psi4/basis/cc-pvdz-jkfit.gbs 

  ==> Pre-Iterations <==

   -------------------------------------------------------
    Irrep   Nso     Nmo     Nalpha   Nbeta   Ndocc  Nsocc
   -------------------------------------------------------
     A'        19      19       0       0       0       0
     A"        10      10       0       0       0       0
   -------------------------------------------------------
    Total      29      29       5       5       5       0
   -------------------------------------------------------

  ==> Integral Setup <==

  ==> DiskDFJK: Density-Fitted J/K Matrices <==

    J tasked:                  Yes
    K tasked:                  Yes
    wK tasked:                 Yes
    Omega:               3.000E-01
    OpenMP threads:             24
    Integrals threads:          24
    Memory [MiB]:           102811
    Algorithm:                Core
    Integral Cache:           NONE
    Schwarz Cutoff:          1E-12
    Fitting Condition:       1E-10

   => Auxiliary Basis Set <=

  Basis Set: (CC-PV(D+D)Z AUX)
    Blend: CC-PVDZ-JKFIT
    Number of shells: 51
    Number of basis function: 139
    Number of Cartesian functions: 156
    Spherical Harmonics?: true
    Max angular momentum: 3

  Cached 100.0% of DFT collocation blocks in 0.181 [GiB].

  Minimum eigenvalue in the overlap matrix is 2.9138242215E-02.
  Using Symmetric Orthogonalization.

  SCF Guess: Superposition of Atomic Densities via on-the-fly atomic UHF.

  ==> Iterations <==

                           Total Energy        Delta E     RMS |[F,P]|

   @DF-RKS iter SAD:   -56.09081256635901   -5.60908e+01   0.00000e+00 
   @DF-RKS iter   1:   -56.38516596073124   -2.94353e-01   2.54282e-02 DIIS
   @DF-RKS iter   2:   -56.42610045179237   -4.09345e-02   2.18326e-02 DIIS
   @DF-RKS iter   3:   -56.51804003623851   -9.19396e-02   6.91604e-04 DIIS
   @DF-RKS iter   4:   -56.51826440800446   -2.24372e-04   2.04919e-04 DIIS
   @DF-RKS iter   5:   -56.51827997726779   -1.55693e-05   3.67662e-05 DIIS
   @DF-RKS iter   6:   -56.51828120665287   -1.22939e-06   1.08683e-05 DIIS
   @DF-RKS iter   7:   -56.51828137033527   -1.63682e-07   1.76259e-06 DIIS
   @DF-RKS iter   8:   -56.51828137451071   -4.17544e-09   1.18355e-07 DIIS
   @DF-RKS iter   9:   -56.51828137451739   -6.67910e-12   1.27512e-08 DIIS
   @DF-RKS iter  10:   -56.51828137451744   -4.97380e-14   1.28471e-09 DIIS
  Energy and wave function converged.


  ==> Post-Iterations <==

    Orbital Energies [Eh]
    ---------------------

    Doubly Occupied:                                                      

       1Ap   -14.482302     2Ap    -0.961419     3Ap    -0.549764  
       1App   -0.549061     4Ap    -0.353767  

    Virtual:                                                              

       5Ap     0.138457     2App    0.219239     6Ap     0.219399  
       3App    0.613555     7Ap     0.614619     8Ap     0.738448  
       9Ap     0.861666     4App    0.925211    10Ap     0.925306  
      11Ap     1.176411     5App    1.177047    12Ap     1.242654  
       6App    1.600046    13Ap     1.749799    14Ap     1.787364  
       7App    1.787388     8App    2.090677    15Ap     2.093098  
      16Ap     2.342835    17Ap     2.601427     9App    2.601766  
      18Ap     2.706472    10App    3.035500    19Ap     3.036223  

    Final Occupation by Irrep:
             Ap   App 
    DOCC [     4,    1 ]

  @DF-RKS Final Energy:   -56.51828137451744

   => Energetics <=

    Nuclear Repulsion Energy =             11.9622651025656239
    One-Electron Energy =                 -99.7246971216160318
    Two-Electron Energy =                  36.7701388779382299
    DFT Exchange-Correlation Energy =      -5.5679245332700678
    Empirical Dispersion Energy =           0.0000000000000000
    VV10 Nonlocal Energy =                  0.0419362998648036
    Total Energy =                        -56.5182813745174428

Computation Completed


Properties will be evaluated at   0.000000,   0.000000,   0.000000 [a0]

Properties computed using the SCF density matrix

  Nuclear Dipole Moment: [e a0]
     X:     0.5755      Y:     0.6879      Z:     0.0000

  Electronic Dipole Moment: [e a0]
     X:    -0.1687      Y:    -0.1995      Z:     0.0000

  Dipole Moment: [e a0]
     X:     0.4068      Y:     0.4884      Z:     0.0000     Total:     0.6356

  Dipole Moment: [D]
     X:     1.0339      Y:     1.2415      Z:     0.0000     Total:     1.6156


*** tstop() called on bp1-compute00115.data.bp.acrc.priv at Tue Apr 27 18:13:04 2021
Module time:
	user time   =      71.65 seconds =       1.19 minutes
	system time =       1.92 seconds =       0.03 minutes
	total time  =          3 seconds =       0.05 minutes
Total time:
	user time   =     364.24 seconds =       6.07 minutes
	system time =      10.74 seconds =       0.18 minutes
	total time  =         16 seconds =       0.27 minutes

  //>>>>>>>>>>>>>>>>>>>>>>>>>>>>>>>>>>>//
  //    Loading displacement 6 of 9    //
  //<<<<<<<<<<<<<<<<<<<<<<<<<<<<<<<<<<<//

*** tstart() called on bp1-compute00115.data.bp.acrc.priv
*** at Tue Apr 27 18:13:04 2021

   => Loading Basis Set <=

    Name: CC-PV(D+D)Z
    Role: ORBITAL
    Keyword: BASIS
    atoms 1   entry N          line   177 file /work/zw18965/.conda/envs/p4env/share/psi4/basis/cc-pv_dpd_z.gbs 
    atoms 2-4 entry H          line    31 file /work/zw18965/.conda/envs/p4env/share/psi4/basis/cc-pv_dpd_z.gbs 


         ---------------------------------------------------------
                                   SCF
               by Justin Turney, Rob Parrish, Andy Simmonett
                          and Daniel G. A. Smith
                              RKS Reference
                       24 Threads, 137329 MiB Core
         ---------------------------------------------------------

  ==> Geometry <==

    Molecular point group: cs
    Full point group: Cs

    Geometry (in Angstrom), charge = 0, multiplicity = 1:

       Center              X                  Y                   Z               Mass       
    ------------   -----------------  -----------------  -----------------  -----------------
         N           -0.044172539916    -0.053084193715     0.000000000000    14.003074004430
         H            0.563007108181    -0.052395961410     0.809494643400     1.007825032230
         H            0.563007108181    -0.052395961410    -0.809494643400     1.007825032230
         H           -0.512265474637     0.842362303875     0.000000000000     1.007825032230

  Running in cs symmetry.

  Rotational constants: A =      9.97005  B =      9.93436  C =      6.39622 [cm^-1]
  Rotational constants: A = 298894.55792  B = 297824.55789  C = 191753.78946 [MHz]
  Nuclear repulsion =   11.969093647182326

  Charge       = 0
  Multiplicity = 1
  Electrons    = 10
  Nalpha       = 5
  Nbeta        = 5

  ==> Algorithm <==

  SCF Algorithm Type is DF.
  DIIS enabled.
  MOM disabled.
  Fractional occupation disabled.
  Guess Type is SAD.
  Energy threshold   = 1.00e-08
  Density threshold  = 1.00e-08
  Integral threshold = 0.00e+00

  ==> Primary Basis <==

  Basis Set: CC-PV(D+D)Z
    Blend: CC-PV(D+D)Z
    Number of shells: 15
    Number of basis function: 29
    Number of Cartesian functions: 30
    Spherical Harmonics?: true
    Max angular momentum: 2

  ==> DFT Potential <==

   => Composite Functional: WB97M-V <= 

    wB97M-V Hyb-GGA Exchange-Correlation Functional

    N. Mardirossian and M. Head-Gordon, J. Chem. Phys. 144, 214110 (2016)

    Deriv               =              1
    GGA                 =           TRUE
    Meta                =           TRUE

    Exchange Hybrid     =           TRUE
    MP2 Hybrid          =          FALSE

   => Exchange-Correlation Functionals <=

    1.0000   wB97M-V exchange-correlation functional

   => Exact (HF) Exchange <=

    0.8500            HF,LR [omega = 0.3000]
    0.1500               HF 

   => VV10 Non-Local Parameters <=

    VV10 B              =     6.0000E+00
    VV10 C              =     1.0000E-02

   => Molecular Quadrature <=

    Radial Scheme          =       TREUTLER
    Pruning Scheme         =           FLAT
    Nuclear Scheme         =       TREUTLER

    BS radius alpha        =              1
    Pruning alpha          =              1
    Radial Points          =             75
    Spherical Points       =            302
    Total Points           =          88863
    Total Blocks           =            733
    Max Points             =            256
    Max Functions          =             29

   => Loading Basis Set <=

    Name: (CC-PV(D+D)Z AUX)
    Role: JKFIT
    Keyword: DF_BASIS_SCF
    atoms 1   entry N          line   171 file /work/zw18965/.conda/envs/p4env/share/psi4/basis/cc-pvdz-jkfit.gbs 
    atoms 2-4 entry H          line    51 file /work/zw18965/.conda/envs/p4env/share/psi4/basis/cc-pvdz-jkfit.gbs 

  ==> Pre-Iterations <==

   -------------------------------------------------------
    Irrep   Nso     Nmo     Nalpha   Nbeta   Ndocc  Nsocc
   -------------------------------------------------------
     A'        19      19       0       0       0       0
     A"        10      10       0       0       0       0
   -------------------------------------------------------
    Total      29      29       5       5       5       0
   -------------------------------------------------------

  ==> Integral Setup <==

  ==> DiskDFJK: Density-Fitted J/K Matrices <==

    J tasked:                  Yes
    K tasked:                  Yes
    wK tasked:                 Yes
    Omega:               3.000E-01
    OpenMP threads:             24
    Integrals threads:          24
    Memory [MiB]:           102811
    Algorithm:                Core
    Integral Cache:           NONE
    Schwarz Cutoff:          1E-12
    Fitting Condition:       1E-10

   => Auxiliary Basis Set <=

  Basis Set: (CC-PV(D+D)Z AUX)
    Blend: CC-PVDZ-JKFIT
    Number of shells: 51
    Number of basis function: 139
    Number of Cartesian functions: 156
    Spherical Harmonics?: true
    Max angular momentum: 3

  Cached 100.0% of DFT collocation blocks in 0.181 [GiB].

  Minimum eigenvalue in the overlap matrix is 2.9074798027E-02.
  Using Symmetric Orthogonalization.

  SCF Guess: Superposition of Atomic Densities via on-the-fly atomic UHF.

  ==> Iterations <==

                           Total Energy        Delta E     RMS |[F,P]|

   @DF-RKS iter SAD:   -56.09178228847395   -5.60918e+01   0.00000e+00 
   @DF-RKS iter   1:   -56.38507764209488   -2.93295e-01   2.54383e-02 DIIS
   @DF-RKS iter   2:   -56.42611965161841   -4.10420e-02   2.18323e-02 DIIS
   @DF-RKS iter   3:   -56.51803335894648   -9.19137e-02   6.91664e-04 DIIS
   @DF-RKS iter   4:   -56.51825748388882   -2.24125e-04   2.04733e-04 DIIS
   @DF-RKS iter   5:   -56.51827300554994   -1.55217e-05   3.67021e-05 DIIS
   @DF-RKS iter   6:   -56.51827422803922   -1.22249e-06   1.08364e-05 DIIS
   @DF-RKS iter   7:   -56.51827439067620   -1.62637e-07   1.75848e-06 DIIS
   @DF-RKS iter   8:   -56.51827439482987   -4.15367e-09   1.18022e-07 DIIS
   @DF-RKS iter   9:   -56.51827439483643   -6.55831e-12   1.25905e-08 DIIS
   @DF-RKS iter  10:   -56.51827439483654   -1.06581e-13   1.05268e-09 DIIS
  Energy and wave function converged.


  ==> Post-Iterations <==

    Orbital Energies [Eh]
    ---------------------

    Doubly Occupied:                                                      

       1Ap   -14.482238     2Ap    -0.961834     1App   -0.549519  
       3Ap    -0.549415     4Ap    -0.354051  

    Virtual:                                                              

       5Ap     0.138508     2App    0.219283     6Ap     0.219493  
       7Ap     0.614009     3App    0.614218     8Ap     0.739369  
       9Ap     0.861884     4App    0.925280    10Ap     0.925503  
       5App    1.175722    11Ap     1.176763    12Ap     1.242417  
       6App    1.601251    13Ap     1.749751     7App    1.787442  
      14Ap     1.788503     8App    2.091789    15Ap     2.093046  
      16Ap     2.345456    17Ap     2.601317     9App    2.602362  
      18Ap     2.706228    10App    3.036005    19Ap     3.038271  

    Final Occupation by Irrep:
             Ap   App 
    DOCC [     4,    1 ]

  @DF-RKS Final Energy:   -56.51827439483654

   => Energetics <=

    Nuclear Repulsion Energy =             11.9690936471823264
    One-Electron Energy =                 -99.7365052946634023
    Two-Electron Energy =                  36.7757006879124333
    DFT Exchange-Correlation Energy =      -5.5685005021350538
    Empirical Dispersion Energy =           0.0000000000000000
    VV10 Nonlocal Energy =                  0.0419370668671661
    Total Energy =                        -56.5182743948365385

Computation Completed


Properties will be evaluated at   0.000000,   0.000000,   0.000000 [a0]

Properties computed using the SCF density matrix

  Nuclear Dipole Moment: [e a0]
     X:     0.5755      Y:     0.6916      Z:     0.0000

  Electronic Dipole Moment: [e a0]
     X:    -0.1680      Y:    -0.2015      Z:     0.0000

  Dipole Moment: [e a0]
     X:     0.4075      Y:     0.4901      Z:     0.0000     Total:     0.6374

  Dipole Moment: [D]
     X:     1.0357      Y:     1.2458      Z:     0.0000     Total:     1.6201


*** tstop() called on bp1-compute00115.data.bp.acrc.priv at Tue Apr 27 18:13:07 2021
Module time:
	user time   =      70.00 seconds =       1.17 minutes
	system time =       1.97 seconds =       0.03 minutes
	total time  =          3 seconds =       0.05 minutes
Total time:
	user time   =     434.38 seconds =       7.24 minutes
	system time =      12.72 seconds =       0.21 minutes
	total time  =         19 seconds =       0.32 minutes

  //>>>>>>>>>>>>>>>>>>>>>>>>>>>>>>>>>>>//
  //    Loading displacement 7 of 9    //
  //<<<<<<<<<<<<<<<<<<<<<<<<<<<<<<<<<<<//

*** tstart() called on bp1-compute00115.data.bp.acrc.priv
*** at Tue Apr 27 18:13:07 2021

   => Loading Basis Set <=

    Name: CC-PV(D+D)Z
    Role: ORBITAL
    Keyword: BASIS
    atoms 1   entry N          line   177 file /work/zw18965/.conda/envs/p4env/share/psi4/basis/cc-pv_dpd_z.gbs 
    atoms 2-4 entry H          line    31 file /work/zw18965/.conda/envs/p4env/share/psi4/basis/cc-pv_dpd_z.gbs 


         ---------------------------------------------------------
                                   SCF
               by Justin Turney, Rob Parrish, Andy Simmonett
                          and Daniel G. A. Smith
                              RKS Reference
                       24 Threads, 137329 MiB Core
         ---------------------------------------------------------

  ==> Geometry <==

    Molecular point group: cs
    Full point group: Cs

    Geometry (in Angstrom), charge = 0, multiplicity = 1:

       Center              X                  Y                   Z               Mass       
    ------------   -----------------  -----------------  -----------------  -----------------
         N           -0.044172539916    -0.053084193715     0.000000000000    14.003074004430
         H            0.564661269661    -0.053772426020     0.809494643400     1.007825032230
         H            0.564661269661    -0.053772426020    -0.809494643400     1.007825032230
         H           -0.515573797597     0.845115233095     0.000000000000     1.007825032230

  Running in cs symmetry.

  Rotational constants: A =      9.93436  B =      9.89884  C =      6.36683 [cm^-1]
  Rotational constants: A = 297824.55789  B = 296759.75159  C = 190872.89538 [MHz]
  Nuclear repulsion =   11.945294393117610

  Charge       = 0
  Multiplicity = 1
  Electrons    = 10
  Nalpha       = 5
  Nbeta        = 5

  ==> Algorithm <==

  SCF Algorithm Type is DF.
  DIIS enabled.
  MOM disabled.
  Fractional occupation disabled.
  Guess Type is SAD.
  Energy threshold   = 1.00e-08
  Density threshold  = 1.00e-08
  Integral threshold = 0.00e+00

  ==> Primary Basis <==

  Basis Set: CC-PV(D+D)Z
    Blend: CC-PV(D+D)Z
    Number of shells: 15
    Number of basis function: 29
    Number of Cartesian functions: 30
    Spherical Harmonics?: true
    Max angular momentum: 2

  ==> DFT Potential <==

   => Composite Functional: WB97M-V <= 

    wB97M-V Hyb-GGA Exchange-Correlation Functional

    N. Mardirossian and M. Head-Gordon, J. Chem. Phys. 144, 214110 (2016)

    Deriv               =              1
    GGA                 =           TRUE
    Meta                =           TRUE

    Exchange Hybrid     =           TRUE
    MP2 Hybrid          =          FALSE

   => Exchange-Correlation Functionals <=

    1.0000   wB97M-V exchange-correlation functional

   => Exact (HF) Exchange <=

    0.8500            HF,LR [omega = 0.3000]
    0.1500               HF 

   => VV10 Non-Local Parameters <=

    VV10 B              =     6.0000E+00
    VV10 C              =     1.0000E-02

   => Molecular Quadrature <=

    Radial Scheme          =       TREUTLER
    Pruning Scheme         =           FLAT
    Nuclear Scheme         =       TREUTLER

    BS radius alpha        =              1
    Pruning alpha          =              1
    Radial Points          =             75
    Spherical Points       =            302
    Total Points           =          88869
    Total Blocks           =            735
    Max Points             =            256
    Max Functions          =             29

   => Loading Basis Set <=

    Name: (CC-PV(D+D)Z AUX)
    Role: JKFIT
    Keyword: DF_BASIS_SCF
    atoms 1   entry N          line   171 file /work/zw18965/.conda/envs/p4env/share/psi4/basis/cc-pvdz-jkfit.gbs 
    atoms 2-4 entry H          line    51 file /work/zw18965/.conda/envs/p4env/share/psi4/basis/cc-pvdz-jkfit.gbs 

  ==> Pre-Iterations <==

   -------------------------------------------------------
    Irrep   Nso     Nmo     Nalpha   Nbeta   Ndocc  Nsocc
   -------------------------------------------------------
     A'        19      19       0       0       0       0
     A"        10      10       0       0       0       0
   -------------------------------------------------------
    Total      29      29       5       5       5       0
   -------------------------------------------------------

  ==> Integral Setup <==

  ==> DiskDFJK: Density-Fitted J/K Matrices <==

    J tasked:                  Yes
    K tasked:                  Yes
    wK tasked:                 Yes
    Omega:               3.000E-01
    OpenMP threads:             24
    Integrals threads:          24
    Memory [MiB]:           102811
    Algorithm:                Core
    Integral Cache:           NONE
    Schwarz Cutoff:          1E-12
    Fitting Condition:       1E-10

   => Auxiliary Basis Set <=

  Basis Set: (CC-PV(D+D)Z AUX)
    Blend: CC-PVDZ-JKFIT
    Number of shells: 51
    Number of basis function: 139
    Number of Cartesian functions: 156
    Spherical Harmonics?: true
    Max angular momentum: 3

  Cached 100.0% of DFT collocation blocks in 0.181 [GiB].

  Minimum eigenvalue in the overlap matrix is 2.9190194551E-02.
  Using Symmetric Orthogonalization.

  SCF Guess: Superposition of Atomic Densities via on-the-fly atomic UHF.

  ==> Iterations <==

                           Total Energy        Delta E     RMS |[F,P]|

   @DF-RKS iter SAD:   -56.08890364159801   -5.60889e+01   0.00000e+00 
   @DF-RKS iter   1:   -56.38535320226378   -2.96450e-01   2.54017e-02 DIIS
   @DF-RKS iter   2:   -56.42600911519192   -4.06559e-02   2.18421e-02 DIIS
   @DF-RKS iter   3:   -56.51810262563516   -9.20935e-02   6.93011e-04 DIIS
   @DF-RKS iter   4:   -56.51832786315048   -2.25238e-04   2.05964e-04 DIIS
   @DF-RKS iter   5:   -56.51834360519037   -1.57420e-05   3.69545e-05 DIIS
   @DF-RKS iter   6:   -56.51834484576361   -1.24057e-06   1.09002e-05 DIIS
   @DF-RKS iter   7:   -56.51834501063765   -1.64874e-07   1.77069e-06 DIIS
   @DF-RKS iter   8:   -56.51834501485225   -4.21460e-09   1.18692e-07 DIIS
   @DF-RKS iter   9:   -56.51834501485888   -6.62936e-12   1.26510e-08 DIIS
   @DF-RKS iter  10:   -56.51834501485896   -7.81597e-14   1.05335e-09 DIIS
  Energy and wave function converged.


  ==> Post-Iterations <==

    Orbital Energies [Eh]
    ---------------------

    Doubly Occupied:                                                      

       1Ap   -14.482775     2Ap    -0.960900     3Ap    -0.548980  
       1App   -0.548876     4Ap    -0.353856  

    Virtual:                                                              

       5Ap     0.138187     6Ap     0.218985     2App    0.219196  
       3App    0.613259     7Ap     0.613457     8Ap     0.737358  
       9Ap     0.861655    10Ap     0.924921     4App    0.925141  
      11Ap     1.175912     5App    1.176950    12Ap     1.242688  
       6App    1.598942    13Ap     1.748712    14Ap     1.785552  
       7App    1.786630    15Ap     2.088551     8App    2.089805  
      16Ap     2.341644     9App    2.598986    17Ap     2.600030  
      18Ap     2.702778    19Ap     3.033244    10App    3.035488  

    Final Occupation by Irrep:
             Ap   App 
    DOCC [     4,    1 ]

  @DF-RKS Final Energy:   -56.51834501485896

   => Energetics <=

    Nuclear Repulsion Energy =             11.9452943931176101
    One-Electron Energy =                 -99.6936140536226674
    Two-Electron Energy =                  36.7544879689646820
    DFT Exchange-Correlation Energy =      -5.5664475598036471
    Empirical Dispersion Energy =           0.0000000000000000
    VV10 Nonlocal Energy =                  0.0419342364850668
    Total Energy =                        -56.5183450148589586

Computation Completed


Properties will be evaluated at   0.000000,   0.000000,   0.000000 [a0]

Properties computed using the SCF density matrix

  Nuclear Dipole Moment: [e a0]
     X:     0.5755      Y:     0.6916      Z:     0.0000

  Electronic Dipole Moment: [e a0]
     X:    -0.1683      Y:    -0.2026      Z:     0.0000

  Dipole Moment: [e a0]
     X:     0.4072      Y:     0.4890      Z:     0.0000     Total:     0.6363

  Dipole Moment: [D]
     X:     1.0351      Y:     1.2428      Z:     0.0000     Total:     1.6174


*** tstop() called on bp1-compute00115.data.bp.acrc.priv at Tue Apr 27 18:13:10 2021
Module time:
	user time   =      70.42 seconds =       1.17 minutes
	system time =       1.93 seconds =       0.03 minutes
	total time  =          3 seconds =       0.05 minutes
Total time:
	user time   =     504.93 seconds =       8.42 minutes
	system time =      14.65 seconds =       0.24 minutes
	total time  =         22 seconds =       0.37 minutes

  //>>>>>>>>>>>>>>>>>>>>>>>>>>>>>>>>>>>//
  //    Loading displacement 8 of 9    //
  //<<<<<<<<<<<<<<<<<<<<<<<<<<<<<<<<<<<//

*** tstart() called on bp1-compute00115.data.bp.acrc.priv
*** at Tue Apr 27 18:13:10 2021

   => Loading Basis Set <=

    Name: CC-PV(D+D)Z
    Role: ORBITAL
    Keyword: BASIS
    atoms 1   entry N          line   177 file /work/zw18965/.conda/envs/p4env/share/psi4/basis/cc-pv_dpd_z.gbs 
    atoms 2-4 entry H          line    31 file /work/zw18965/.conda/envs/p4env/share/psi4/basis/cc-pv_dpd_z.gbs 


         ---------------------------------------------------------
                                   SCF
               by Justin Turney, Rob Parrish, Andy Simmonett
                          and Daniel G. A. Smith
                              RKS Reference
                       24 Threads, 137329 MiB Core
         ---------------------------------------------------------

  ==> Geometry <==

    Molecular point group: cs
    Full point group: Cs

    Geometry (in Angstrom), charge = 0, multiplicity = 1:

       Center              X                  Y                   Z               Mass       
    ------------   -----------------  -----------------  -----------------  -----------------
         N           -0.044172539916    -0.053084193715     0.000000000000    14.003074004430
         H            0.563834188921    -0.053084193715     0.807630996768     1.007825032230
         H            0.563834188921    -0.053084193715    -0.807630996768     1.007825032230
         H           -0.513919636117     0.843738768485     0.000000000000     1.007825032230

  Running in cs symmetry.

  Rotational constants: A =      9.97005  B =      9.93436  C =      6.39622 [cm^-1]
  Rotational constants: A = 298894.55790  B = 297824.55791  C = 191753.78946 [MHz]
  Nuclear repulsion =   11.969093636052165

  Charge       = 0
  Multiplicity = 1
  Electrons    = 10
  Nalpha       = 5
  Nbeta        = 5

  ==> Algorithm <==

  SCF Algorithm Type is DF.
  DIIS enabled.
  MOM disabled.
  Fractional occupation disabled.
  Guess Type is SAD.
  Energy threshold   = 1.00e-08
  Density threshold  = 1.00e-08
  Integral threshold = 0.00e+00

  ==> Primary Basis <==

  Basis Set: CC-PV(D+D)Z
    Blend: CC-PV(D+D)Z
    Number of shells: 15
    Number of basis function: 29
    Number of Cartesian functions: 30
    Spherical Harmonics?: true
    Max angular momentum: 2

  ==> DFT Potential <==

   => Composite Functional: WB97M-V <= 

    wB97M-V Hyb-GGA Exchange-Correlation Functional

    N. Mardirossian and M. Head-Gordon, J. Chem. Phys. 144, 214110 (2016)

    Deriv               =              1
    GGA                 =           TRUE
    Meta                =           TRUE

    Exchange Hybrid     =           TRUE
    MP2 Hybrid          =          FALSE

   => Exchange-Correlation Functionals <=

    1.0000   wB97M-V exchange-correlation functional

   => Exact (HF) Exchange <=

    0.8500            HF,LR [omega = 0.3000]
    0.1500               HF 

   => VV10 Non-Local Parameters <=

    VV10 B              =     6.0000E+00
    VV10 C              =     1.0000E-02

   => Molecular Quadrature <=

    Radial Scheme          =       TREUTLER
    Pruning Scheme         =           FLAT
    Nuclear Scheme         =       TREUTLER

    BS radius alpha        =              1
    Pruning alpha          =              1
    Radial Points          =             75
    Spherical Points       =            302
    Total Points           =          88863
    Total Blocks           =            732
    Max Points             =            256
    Max Functions          =             29

   => Loading Basis Set <=

    Name: (CC-PV(D+D)Z AUX)
    Role: JKFIT
    Keyword: DF_BASIS_SCF
    atoms 1   entry N          line   171 file /work/zw18965/.conda/envs/p4env/share/psi4/basis/cc-pvdz-jkfit.gbs 
    atoms 2-4 entry H          line    51 file /work/zw18965/.conda/envs/p4env/share/psi4/basis/cc-pvdz-jkfit.gbs 

  ==> Pre-Iterations <==

   -------------------------------------------------------
    Irrep   Nso     Nmo     Nalpha   Nbeta   Ndocc  Nsocc
   -------------------------------------------------------
     A'        19      19       0       0       0       0
     A"        10      10       0       0       0       0
   -------------------------------------------------------
    Total      29      29       5       5       5       0
   -------------------------------------------------------

  ==> Integral Setup <==

  ==> DiskDFJK: Density-Fitted J/K Matrices <==

    J tasked:                  Yes
    K tasked:                  Yes
    wK tasked:                 Yes
    Omega:               3.000E-01
    OpenMP threads:             24
    Integrals threads:          24
    Memory [MiB]:           102811
    Algorithm:                Core
    Integral Cache:           NONE
    Schwarz Cutoff:          1E-12
    Fitting Condition:       1E-10

   => Auxiliary Basis Set <=

  Basis Set: (CC-PV(D+D)Z AUX)
    Blend: CC-PVDZ-JKFIT
    Number of shells: 51
    Number of basis function: 139
    Number of Cartesian functions: 156
    Spherical Harmonics?: true
    Max angular momentum: 3

  Cached 100.0% of DFT collocation blocks in 0.181 [GiB].

  Minimum eigenvalue in the overlap matrix is 2.9074798505E-02.
  Using Symmetric Orthogonalization.

  SCF Guess: Superposition of Atomic Densities via on-the-fly atomic UHF.

  ==> Iterations <==

                           Total Energy        Delta E     RMS |[F,P]|

   @DF-RKS iter SAD:   -56.09178227831737   -5.60918e+01   0.00000e+00 
   @DF-RKS iter   1:   -56.38507763721317   -2.93295e-01   2.54383e-02 DIIS
   @DF-RKS iter   2:   -56.42611964377878   -4.10420e-02   2.18323e-02 DIIS
   @DF-RKS iter   3:   -56.51803335690730   -9.19137e-02   6.91664e-04 DIIS
   @DF-RKS iter   4:   -56.51825748181237   -2.24125e-04   2.04733e-04 DIIS
   @DF-RKS iter   5:   -56.51827300346689   -1.55217e-05   3.67021e-05 DIIS
   @DF-RKS iter   6:   -56.51827422595488   -1.22249e-06   1.08364e-05 DIIS
   @DF-RKS iter   7:   -56.51827438859176   -1.62637e-07   1.75848e-06 DIIS
   @DF-RKS iter   8:   -56.51827439274540   -4.15365e-09   1.18021e-07 DIIS
   @DF-RKS iter   9:   -56.51827439275195   -6.54410e-12   1.25898e-08 DIIS
   @DF-RKS iter  10:   -56.51827439275210   -1.49214e-13   1.05164e-09 DIIS
  Energy and wave function converged.


  ==> Post-Iterations <==

    Orbital Energies [Eh]
    ---------------------

    Doubly Occupied:                                                      

       1Ap   -14.482238     2Ap    -0.961834     3Ap    -0.549520  
       1App   -0.549414     4Ap    -0.354051  

    Virtual:                                                              

       5Ap     0.138508     6Ap     0.219283     2App    0.219493  
       3App    0.614014     7Ap     0.614214     8Ap     0.739369  
       9Ap     0.861884    10Ap     0.925279     4App    0.925503  
      11Ap     1.175722     5App    1.176764    12Ap     1.242417  
       6App    1.601251    13Ap     1.749751    14Ap     1.787431  
       7App    1.788514    15Ap     2.091791     8App    2.093045  
      16Ap     2.345456     9App    2.601320    17Ap     2.602359  
      18Ap     2.706228    19Ap     3.036009    10App    3.038267  

    Final Occupation by Irrep:
             Ap   App 
    DOCC [     4,    1 ]

  @DF-RKS Final Energy:   -56.51827439275210

   => Energetics <=

    Nuclear Repulsion Energy =             11.9690936360521647
    One-Electron Energy =                 -99.7365053198323039
    Two-Electron Energy =                  36.7757007267213396
    DFT Exchange-Correlation Energy =      -5.5685005028779706
    Empirical Dispersion Energy =           0.0000000000000000
    VV10 Nonlocal Energy =                  0.0419370671846704
    Total Energy =                        -56.5182743927520974

Computation Completed


Properties will be evaluated at   0.000000,   0.000000,   0.000000 [a0]

Properties computed using the SCF density matrix

  Nuclear Dipole Moment: [e a0]
     X:     0.5755      Y:     0.6916      Z:     0.0000

  Electronic Dipole Moment: [e a0]
     X:    -0.1676      Y:    -0.2018      Z:     0.0000

  Dipole Moment: [e a0]
     X:     0.4079      Y:     0.4898      Z:     0.0000     Total:     0.6374

  Dipole Moment: [D]
     X:     1.0368      Y:     1.2449      Z:     0.0000     Total:     1.6201


*** tstop() called on bp1-compute00115.data.bp.acrc.priv at Tue Apr 27 18:13:13 2021
Module time:
	user time   =      70.19 seconds =       1.17 minutes
	system time =       1.83 seconds =       0.03 minutes
	total time  =          3 seconds =       0.05 minutes
Total time:
	user time   =     575.26 seconds =       9.59 minutes
	system time =      16.48 seconds =       0.27 minutes
	total time  =         25 seconds =       0.42 minutes

  //>>>>>>>>>>>>>>>>>>>>>>>>>>>>>>>>>>>//
  //    Loading displacement 9 of 9    //
  //<<<<<<<<<<<<<<<<<<<<<<<<<<<<<<<<<<<//

*** tstart() called on bp1-compute00115.data.bp.acrc.priv
*** at Tue Apr 27 18:13:13 2021

   => Loading Basis Set <=

    Name: CC-PV(D+D)Z
    Role: ORBITAL
    Keyword: BASIS
    atoms 1   entry N          line   177 file /work/zw18965/.conda/envs/p4env/share/psi4/basis/cc-pv_dpd_z.gbs 
    atoms 2-4 entry H          line    31 file /work/zw18965/.conda/envs/p4env/share/psi4/basis/cc-pv_dpd_z.gbs 


         ---------------------------------------------------------
                                   SCF
               by Justin Turney, Rob Parrish, Andy Simmonett
                          and Daniel G. A. Smith
                              RKS Reference
                       24 Threads, 137329 MiB Core
         ---------------------------------------------------------

  ==> Geometry <==

    Molecular point group: cs
    Full point group: Cs

    Geometry (in Angstrom), charge = 0, multiplicity = 1:

       Center              X                  Y                   Z               Mass       
    ------------   -----------------  -----------------  -----------------  -----------------
         N           -0.044172539916    -0.053084193715     0.000000000000    14.003074004430
         H            0.563834188921    -0.053084193715     0.811358290031     1.007825032230
         H            0.563834188921    -0.053084193715    -0.811358290031     1.007825032230
         H           -0.513919636117     0.843738768485     0.000000000000     1.007825032230

  Running in cs symmetry.

  Rotational constants: A =      9.93436  B =      9.89884  C =      6.36683 [cm^-1]
  Rotational constants: A = 297824.55791  B = 296759.75157  C = 190872.89538 [MHz]
  Nuclear repulsion =   11.945294404176435

  Charge       = 0
  Multiplicity = 1
  Electrons    = 10
  Nalpha       = 5
  Nbeta        = 5

  ==> Algorithm <==

  SCF Algorithm Type is DF.
  DIIS enabled.
  MOM disabled.
  Fractional occupation disabled.
  Guess Type is SAD.
  Energy threshold   = 1.00e-08
  Density threshold  = 1.00e-08
  Integral threshold = 0.00e+00

  ==> Primary Basis <==

  Basis Set: CC-PV(D+D)Z
    Blend: CC-PV(D+D)Z
    Number of shells: 15
    Number of basis function: 29
    Number of Cartesian functions: 30
    Spherical Harmonics?: true
    Max angular momentum: 2

  ==> DFT Potential <==

   => Composite Functional: WB97M-V <= 

    wB97M-V Hyb-GGA Exchange-Correlation Functional

    N. Mardirossian and M. Head-Gordon, J. Chem. Phys. 144, 214110 (2016)

    Deriv               =              1
    GGA                 =           TRUE
    Meta                =           TRUE

    Exchange Hybrid     =           TRUE
    MP2 Hybrid          =          FALSE

   => Exchange-Correlation Functionals <=

    1.0000   wB97M-V exchange-correlation functional

   => Exact (HF) Exchange <=

    0.8500            HF,LR [omega = 0.3000]
    0.1500               HF 

   => VV10 Non-Local Parameters <=

    VV10 B              =     6.0000E+00
    VV10 C              =     1.0000E-02

   => Molecular Quadrature <=

    Radial Scheme          =       TREUTLER
    Pruning Scheme         =           FLAT
    Nuclear Scheme         =       TREUTLER

    BS radius alpha        =              1
    Pruning alpha          =              1
    Radial Points          =             75
    Spherical Points       =            302
    Total Points           =          88863
    Total Blocks           =            732
    Max Points             =            256
    Max Functions          =             29

   => Loading Basis Set <=

    Name: (CC-PV(D+D)Z AUX)
    Role: JKFIT
    Keyword: DF_BASIS_SCF
    atoms 1   entry N          line   171 file /work/zw18965/.conda/envs/p4env/share/psi4/basis/cc-pvdz-jkfit.gbs 
    atoms 2-4 entry H          line    51 file /work/zw18965/.conda/envs/p4env/share/psi4/basis/cc-pvdz-jkfit.gbs 

  ==> Pre-Iterations <==

   -------------------------------------------------------
    Irrep   Nso     Nmo     Nalpha   Nbeta   Ndocc  Nsocc
   -------------------------------------------------------
     A'        19      19       0       0       0       0
     A"        10      10       0       0       0       0
   -------------------------------------------------------
    Total      29      29       5       5       5       0
   -------------------------------------------------------

  ==> Integral Setup <==

  ==> DiskDFJK: Density-Fitted J/K Matrices <==

    J tasked:                  Yes
    K tasked:                  Yes
    wK tasked:                 Yes
    Omega:               3.000E-01
    OpenMP threads:             24
    Integrals threads:          24
    Memory [MiB]:           102811
    Algorithm:                Core
    Integral Cache:           NONE
    Schwarz Cutoff:          1E-12
    Fitting Condition:       1E-10

   => Auxiliary Basis Set <=

  Basis Set: (CC-PV(D+D)Z AUX)
    Blend: CC-PVDZ-JKFIT
    Number of shells: 51
    Number of basis function: 139
    Number of Cartesian functions: 156
    Spherical Harmonics?: true
    Max angular momentum: 3

  Cached 100.0% of DFT collocation blocks in 0.181 [GiB].

  Minimum eigenvalue in the overlap matrix is 2.9190194076E-02.
  Using Symmetric Orthogonalization.

  SCF Guess: Superposition of Atomic Densities via on-the-fly atomic UHF.

  ==> Iterations <==

                           Total Energy        Delta E     RMS |[F,P]|

   @DF-RKS iter SAD:   -56.08890365165437   -5.60889e+01   0.00000e+00 
   @DF-RKS iter   1:   -56.38535320717466   -2.96450e-01   2.54017e-02 DIIS
   @DF-RKS iter   2:   -56.42600912292500   -4.06559e-02   2.18421e-02 DIIS
   @DF-RKS iter   3:   -56.51810262774409   -9.20935e-02   6.93011e-04 DIIS
   @DF-RKS iter   4:   -56.51832786529802   -2.25238e-04   2.05964e-04 DIIS
   @DF-RKS iter   5:   -56.51834360734403   -1.57420e-05   3.69545e-05 DIIS
   @DF-RKS iter   6:   -56.51834484791847   -1.24057e-06   1.09002e-05 DIIS
   @DF-RKS iter   7:   -56.51834501279267   -1.64874e-07   1.77069e-06 DIIS
   @DF-RKS iter   8:   -56.51834501700726   -4.21459e-09   1.18692e-07 DIIS
   @DF-RKS iter   9:   -56.51834501701390   -6.63647e-12   1.26517e-08 DIIS
   @DF-RKS iter  10:   -56.51834501701396   -5.68434e-14   1.05446e-09 DIIS
  Energy and wave function converged.


  ==> Post-Iterations <==

    Orbital Energies [Eh]
    ---------------------

    Doubly Occupied:                                                      

       1Ap   -14.482775     2Ap    -0.960900     1App   -0.548979  
       3Ap    -0.548876     4Ap    -0.353856  

    Virtual:                                                              

       5Ap     0.138187     2App    0.218986     6Ap     0.219195  
[...]
    Empirical Dispersion Energy =           0.0000000000000000
    VV10 Nonlocal Energy =                  0.0419211625946624
    Total Energy =                        -56.5186881780952177

Computation Completed


Properties will be evaluated at   0.000000,   0.000000,   0.000000 [a0]

Properties computed using the SCF density matrix

  Nuclear Dipole Moment: [e a0]
     X:     0.6261      Y:     0.7524      Z:    -0.0034

  Electronic Dipole Moment: [e a0]
     X:    -0.1969      Y:    -0.2367      Z:     0.0027

  Dipole Moment: [e a0]
     X:     0.4291      Y:     0.5157      Z:    -0.0007     Total:     0.6709

  Dipole Moment: [D]
     X:     1.0908      Y:     1.3108      Z:    -0.0017     Total:     1.7053


*** tstop() called on bp1-compute00115.data.bp.acrc.priv at Tue Apr 27 18:15:40 2021
Module time:
	user time   =      75.82 seconds =       1.26 minutes
	system time =       1.87 seconds =       0.03 minutes
	total time  =          3 seconds =       0.05 minutes
Total time:
	user time   =    4003.17 seconds =      66.72 minutes
	system time =     102.92 seconds =       1.72 minutes
	total time  =        172 seconds =       2.87 minutes

  //>>>>>>>>>>>>>>>>>>>>>>>>>>>>>>>>>>>//
  //   Loading displacement 25 of 25   //
  //<<<<<<<<<<<<<<<<<<<<<<<<<<<<<<<<<<<//

*** tstart() called on bp1-compute00115.data.bp.acrc.priv
*** at Tue Apr 27 18:15:40 2021

   => Loading Basis Set <=

    Name: CC-PV(D+D)Z
    Role: ORBITAL
    Keyword: BASIS
    atoms 1   entry N          line   177 file /work/zw18965/.conda/envs/p4env/share/psi4/basis/cc-pv_dpd_z.gbs 
    atoms 2-4 entry H          line    31 file /work/zw18965/.conda/envs/p4env/share/psi4/basis/cc-pv_dpd_z.gbs 


         ---------------------------------------------------------
                                   SCF
               by Justin Turney, Rob Parrish, Andy Simmonett
                          and Daniel G. A. Smith
                              RKS Reference
                       24 Threads, 137329 MiB Core
         ---------------------------------------------------------

  ==> Geometry <==

    Molecular point group: c1
    Full point group: C1

    Geometry (in Angstrom), charge = 0, multiplicity = 1:

       Center              X                  Y                   Z               Mass       
    ------------   -----------------  -----------------  -----------------  -----------------
         N           -0.048055216969    -0.057750281828    -0.000257445577    14.003074004430
         H            0.580096963061    -0.028822012794     0.806984067231     1.007825032230
         H            0.580922690094    -0.031950160273    -0.806121037445     1.007825032230
         H           -0.493323636494     0.863174816735     0.002714009230     1.007825032230

  Running in c1 symmetry.

  Rotational constants: A =      9.62165  B =      9.57481  C =      6.42811 [cm^-1]
  Rotational constants: A = 288449.69555  B = 287045.71907  C = 192709.98651 [MHz]
  Nuclear repulsion =   11.847829742950806

  Charge       = 0
  Multiplicity = 1
  Electrons    = 10
  Nalpha       = 5
  Nbeta        = 5

  ==> Algorithm <==

  SCF Algorithm Type is DF.
  DIIS enabled.
  MOM disabled.
  Fractional occupation disabled.
  Guess Type is SAD.
  Energy threshold   = 1.00e-10
  Density threshold  = 1.00e-10
  Integral threshold = 0.00e+00

  ==> Primary Basis <==

  Basis Set: CC-PV(D+D)Z
    Blend: CC-PV(D+D)Z
    Number of shells: 15
    Number of basis function: 29
    Number of Cartesian functions: 30
    Spherical Harmonics?: true
    Max angular momentum: 2

  ==> DFT Potential <==

   => Composite Functional: WB97M-V <= 

    wB97M-V Hyb-GGA Exchange-Correlation Functional

    N. Mardirossian and M. Head-Gordon, J. Chem. Phys. 144, 214110 (2016)

    Deriv               =              1
    GGA                 =           TRUE
    Meta                =           TRUE

    Exchange Hybrid     =           TRUE
    MP2 Hybrid          =          FALSE

   => Exchange-Correlation Functionals <=

    1.0000   wB97M-V exchange-correlation functional

   => Exact (HF) Exchange <=

    0.8500            HF,LR [omega = 0.3000]
    0.1500               HF 

   => VV10 Non-Local Parameters <=

    VV10 B              =     6.0000E+00
    VV10 C              =     1.0000E-02

   => Molecular Quadrature <=

    Radial Scheme          =       TREUTLER
    Pruning Scheme         =           FLAT
    Nuclear Scheme         =       TREUTLER

    BS radius alpha        =              1
    Pruning alpha          =              1
    Radial Points          =             75
    Spherical Points       =            302
    Total Points           =          88874
    Total Blocks           =            721
    Max Points             =            255
    Max Functions          =             29

   => Loading Basis Set <=

    Name: (CC-PV(D+D)Z AUX)
    Role: JKFIT
    Keyword: DF_BASIS_SCF
    atoms 1   entry N          line   171 file /work/zw18965/.conda/envs/p4env/share/psi4/basis/cc-pvdz-jkfit.gbs 
    atoms 2-4 entry H          line    51 file /work/zw18965/.conda/envs/p4env/share/psi4/basis/cc-pvdz-jkfit.gbs 

  ==> Pre-Iterations <==

   -------------------------------------------------------
    Irrep   Nso     Nmo     Nalpha   Nbeta   Ndocc  Nsocc
   -------------------------------------------------------
     A         29      29       0       0       0       0
   -------------------------------------------------------
    Total      29      29       5       5       5       0
   -------------------------------------------------------

  ==> Integral Setup <==

  ==> DiskDFJK: Density-Fitted J/K Matrices <==

    J tasked:                  Yes
    K tasked:                  Yes
    wK tasked:                 Yes
    Omega:               3.000E-01
    OpenMP threads:             24
    Integrals threads:          24
    Memory [MiB]:           102811
    Algorithm:                Core
    Integral Cache:           NONE
    Schwarz Cutoff:          1E-12
    Fitting Condition:       1E-10

   => Auxiliary Basis Set <=

  Basis Set: (CC-PV(D+D)Z AUX)
    Blend: CC-PVDZ-JKFIT
    Number of shells: 51
    Number of basis function: 139
    Number of Cartesian functions: 156
    Spherical Harmonics?: true
    Max angular momentum: 3

  Cached 100.0% of DFT collocation blocks in 0.181 [GiB].

  Minimum eigenvalue in the overlap matrix is 2.8751218833E-02.
  Using Symmetric Orthogonalization.

  SCF Guess: Superposition of Atomic Densities via on-the-fly atomic UHF.

  ==> Iterations <==

                           Total Energy        Delta E     RMS |[F,P]|

   @DF-RKS iter SAD:   -56.08102237822855   -5.60810e+01   0.00000e+00 
   @DF-RKS iter   1:   -56.38583054743857   -3.04808e-01   1.86913e-02 DIIS
   @DF-RKS iter   2:   -56.42472124126084   -3.88907e-02   1.62653e-02 DIIS
   @DF-RKS iter   3:   -56.51843903356095   -9.37178e-02   5.26398e-04 DIIS
   @DF-RKS iter   4:   -56.51866982509205   -2.30792e-04   1.59405e-04 DIIS
   @DF-RKS iter   5:   -56.51868678037144   -1.69553e-05   2.80546e-05 DIIS
   @DF-RKS iter   6:   -56.51868801460146   -1.23423e-06   7.90413e-06 DIIS
   @DF-RKS iter   7:   -56.51868817373230   -1.59131e-07   1.33619e-06 DIIS
   @DF-RKS iter   8:   -56.51868817808552   -4.35322e-09   8.80840e-08 DIIS
   @DF-RKS iter   9:   -56.51868817809206   -6.53699e-12   9.60493e-09 DIIS
   @DF-RKS iter  10:   -56.51868817809217   -1.13687e-13   8.50175e-10 DIIS
   @DF-RKS iter  11:   -56.51868817809218   -1.42109e-14   1.99865e-10 DIIS
   @DF-RKS iter  12:   -56.51868817809213    5.68434e-14   2.75533e-11 DIIS
  Energy and wave function converged.


  ==> Post-Iterations <==

    Orbital Energies [Eh]
    ---------------------

    Doubly Occupied:                                                      

       1A    -14.487581     2A     -0.961177     3A     -0.544421  
       4A     -0.543255     5A     -0.359674  

    Virtual:                                                              

       6A      0.135702     7A      0.217296     8A      0.217337  
       9A      0.604183    10A      0.605876    11A      0.738125  
      12A      0.865424    13A      0.924384    14A      0.924567  
      15A      1.164092    16A      1.166542    17A      1.238448  
      18A      1.605242    19A      1.734878    20A      1.779180  
      21A      1.780563    22A      2.065266    23A      2.066795  
      24A      2.368684    25A      2.575604    26A      2.576137  
      27A      2.655330    28A      3.036063    29A      3.037859  

    Final Occupation by Irrep:
              A 
    DOCC [     5 ]

  @DF-RKS Final Energy:   -56.51868817809213

   => Energetics <=

    Nuclear Repulsion Energy =             11.8478297429508057
    One-Electron Energy =                 -99.5030214993792583
    Two-Electron Energy =                  36.6521862651794876
    DFT Exchange-Correlation Energy =      -5.5576038494378279
    Empirical Dispersion Energy =           0.0000000000000000
    VV10 Nonlocal Energy =                  0.0419211625946623
    Total Energy =                        -56.5186881780921269

Computation Completed


Properties will be evaluated at   0.000000,   0.000000,   0.000000 [a0]

Properties computed using the SCF density matrix

  Nuclear Dipole Moment: [e a0]
     X:     0.6261      Y:     0.7524      Z:     0.0034

  Electronic Dipole Moment: [e a0]
     X:    -0.1969      Y:    -0.2367      Z:    -0.0027

  Dipole Moment: [e a0]
     X:     0.4291      Y:     0.5157      Z:     0.0007     Total:     0.6709

  Dipole Moment: [D]
     X:     1.0908      Y:     1.3108      Z:     0.0017     Total:     1.7053


*** tstop() called on bp1-compute00115.data.bp.acrc.priv at Tue Apr 27 18:15:43 2021
Module time:
	user time   =      76.37 seconds =       1.27 minutes
	system time =       2.06 seconds =       0.03 minutes
	total time  =          3 seconds =       0.05 minutes
Total time:
	user time   =    4079.67 seconds =      67.99 minutes
	system time =     104.99 seconds =       1.75 minutes
	total time  =        175 seconds =       2.92 minutes

         ----------------------------------------------------------
                                   FINDIF
                     R. A. King and Jonathon Misiewicz
         ---------------------------------------------------------

  Computing second-derivative from energies using projected, 
  symmetry-adapted, cartesian coordinates.

  25 energies passed in, including the reference geometry.
    Using 3-point formula.
    Energy without displacement:  -56.5186902520
    Check energies below for precision!
    0: -1        :       -56.5186874609
    0: 1         :       -56.5186875421
    1: -1        :       -56.5186875619
    1: 1         :       -56.5186876524
    2: -1        :       -56.5186855977
    2: 1         :       -56.5186866602
    3: -1        :       -56.5186855962
    3: 1         :       -56.5186866619
    0: 1, 1: 1   :       -56.5186877717
    0: -1, 1: -1 :       -56.5186875718
    0: 1, 2: 1   :       -56.5186832993
    0: -1, 2: -1 :       -56.5186821147
    1: 1, 2: 1   :       -56.5186881096
    1: -1, 2: -1 :       -56.5186869704
    0: 1, 3: 1   :       -56.5186880216
    0: -1, 3: -1 :       -56.5186868921
    1: 1, 3: 1   :       -56.5186835430
    1: -1, 3: -1 :       -56.5186823877
    2: 1, 3: 1   :       -56.5186813671
    2: -1, 3: -1 :       -56.5186792090
    4: -1        :       -56.5186861447
    5: -1        :       -56.5186876242
    4: 1, 5: 1   :       -56.5186881781
    4: -1, 5: -1 :       -56.5186881781

-------------------------------------------------------------


  ==> Harmonic Vibrational Analysis <==

  non-mass-weighted Hessian:       Symmetric? True   Hermitian? True   Lin Dep Dim?  6 (0)
  projection of translations (True) and rotations (True) removed 6 degrees of freedom (6)
  total projector:                 Symmetric? True   Hermitian? True   Lin Dep Dim?  6 (6)
  mass-weighted Hessian:           Symmetric? True   Hermitian? True   Lin Dep Dim?  6 (0)
  pre-proj  low-frequency mode:    0.0000i [cm^-1]
  pre-proj  low-frequency mode:    0.0000i [cm^-1]
  pre-proj  low-frequency mode:    0.0000i [cm^-1]
  pre-proj  low-frequency mode:    0.0000i [cm^-1]
  pre-proj  low-frequency mode:    0.0000  [cm^-1]
  pre-proj  low-frequency mode:    0.0000  [cm^-1]
  pre-proj  all modes:['0.0000i' '0.0000i' '0.0000i' '0.0000i' '0.0000' '0.0000' '1127.2063'
 '1396.3564' '1667.7958' '3462.1229' '3505.4143' '3577.5116']
  projected mass-weighted Hessian: Symmetric? True   Hermitian? True   Lin Dep Dim?  6 (6)
  post-proj low-frequency mode:    0.0001i [cm^-1] (TR)
  post-proj low-frequency mode:    0.0000i [cm^-1] (TR)
  post-proj low-frequency mode:    0.0000i [cm^-1] (TR)
  post-proj low-frequency mode:    0.0000  [cm^-1] (TR)
  post-proj low-frequency mode:    0.0000  [cm^-1] (TR)
  post-proj low-frequency mode:    0.0000  [cm^-1] (TR)
  post-proj  all modes:['0.0001i' '0.0000i' '0.0000i' '0.0000' '0.0000' '0.0000' '1127.2063'
 '1396.3564' '1667.7958' '3462.1229' '3505.4143' '3577.5116']

  Vibration                       7                   8                   9           
  Freq [cm^-1]                1127.2063           1396.3564           1667.7958       
  Irrep                           Ap                 App                  Ap          
  Reduced mass [u]              1.1752              1.0530              1.0615        
  Force const [mDyne/A]         0.8798              1.2097              1.7397        
  Turning point v=0 [a0]        0.3015              0.2862              0.2608        
  RMS dev v=0 [a0 u^1/2]        0.2311              0.2076              0.1900        
  Char temp [K]               1621.7988           2009.0460           2399.5868       
  ----------------------------------------------------------------------------------
      1   N               -0.07 -0.09 -0.00   -0.00  0.00 -0.06   -0.05  0.04 -0.00   
      2   H                0.25  0.48 -0.20   -0.18  0.43  0.03    0.49 -0.23 -0.39   
      3   H                0.25  0.48  0.20    0.18 -0.43  0.03    0.49 -0.23  0.39   
      4   H                0.51  0.26 -0.00    0.00  0.00  0.75   -0.29 -0.11 -0.00   

  Vibration                       10                  11                  12          
  Freq [cm^-1]                3462.1229           3505.4143           3577.5116       
  Irrep                           Ap                 App                  Ap          
  Reduced mass [u]              1.0309              1.0956              1.0865        
  Force const [mDyne/A]         7.2802              7.9321              8.1933        
  Turning point v=0 [a0]        0.1837              0.1771              0.1760        
  RMS dev v=0 [a0 u^1/2]        0.1319              0.1310              0.1297        
  Char temp [K]               4981.2241           5043.5107           5147.2426       
  ----------------------------------------------------------------------------------
      1   N               -0.03 -0.03  0.00   -0.00 -0.00 -0.08    0.06 -0.05 -0.00   
      2   H                0.33 -0.02  0.47    0.43  0.03  0.56   -0.23 -0.02 -0.33   
      3   H                0.33 -0.02 -0.47   -0.43 -0.03  0.56   -0.23 -0.02  0.33   
      4   H               -0.29  0.50 -0.00   -0.00  0.00  0.03   -0.36  0.73  0.00   

  ==> Thermochemistry Components <==

  Entropy, S
    Electronic S            0.000 [cal/(mol K)]        0.000 [J/(mol K)]       0.00000000 [mEh/K] (multiplicity = 1)
    Translational S        34.441 [cal/(mol K)]      144.100 [J/(mol K)]       0.05488488 [mEh/K] (mol. weight = 17.0265 [u], P = 101325.00 [Pa])
    Rotational S           13.674 [cal/(mol K)]       57.213 [J/(mol K)]       0.02179130 [mEh/K] (symmetry no. = 1)
    Vibrational S           0.080 [cal/(mol K)]        0.334 [J/(mol K)]       0.00012712 [mEh/K]
  Total S                  48.195 [cal/(mol K)]      201.647 [J/(mol K)]       0.07680330 [mEh/K]
  Correction S              0.000 [cal/(mol K)]        0.000 [J/(mol K)]       0.00000000 [mEh/K]

  Constant volume heat capacity, Cv
    Electronic Cv           0.000 [cal/(mol K)]        0.000 [J/(mol K)]       0.00000000 [mEh/K]
    Translational Cv        2.981 [cal/(mol K)]       12.472 [J/(mol K)]       0.00475022 [mEh/K]
    Rotational Cv           2.981 [cal/(mol K)]       12.472 [J/(mol K)]       0.00475022 [mEh/K]
    Vibrational Cv          0.406 [cal/(mol K)]        1.698 [J/(mol K)]       0.00064683 [mEh/K]
  Total Cv                  6.368 [cal/(mol K)]       26.642 [J/(mol K)]       0.01014726 [mEh/K]
  Correction Cv             0.000 [cal/(mol K)]        0.000 [J/(mol K)]       0.00000000 [mEh/K]

  Constant pressure heat capacity, Cp
    Electronic Cp           0.000 [cal/(mol K)]        0.000 [J/(mol K)]       0.00000000 [mEh/K]
    Translational Cp        4.968 [cal/(mol K)]       20.786 [J/(mol K)]       0.00791703 [mEh/K]
    Rotational Cp           2.981 [cal/(mol K)]       12.472 [J/(mol K)]       0.00475022 [mEh/K]
    Vibrational Cp          0.406 [cal/(mol K)]        1.698 [J/(mol K)]       0.00064683 [mEh/K]
  Total Cp                  8.355 [cal/(mol K)]       34.956 [J/(mol K)]       0.01331407 [mEh/K]
  Correction Cp             0.000 [cal/(mol K)]        0.000 [J/(mol K)]       0.00000000 [mEh/K]

  ==> Thermochemistry Energy Analysis <==

  Raw electronic energy, E0
  Total E0, Electronic energy at well bottom at 0 [K]                  -56.51869025 [Eh]

  Zero-point energy, ZPE_vib = Sum_i nu_i / 2
    Electronic ZPE          0.000 [kcal/mol]        0.000 [kJ/mol]       0.00000000 [Eh]
    Translational ZPE       0.000 [kcal/mol]        0.000 [kJ/mol]       0.00000000 [Eh]
    Rotational ZPE          0.000 [kcal/mol]        0.000 [kJ/mol]       0.00000000 [Eh]
    Vibrational ZPE        21.067 [kcal/mol]       88.143 [kJ/mol]       0.03357201 [Eh]        7368.204 [cm^-1]
  Correction ZPE           21.067 [kcal/mol]       88.143 [kJ/mol]       0.03357201 [Eh]        7368.204 [cm^-1]
  Total ZPE, Electronic energy at 0 [K]                                -56.48511825 [Eh]

  Thermal Energy, E (includes ZPE)
    Electronic E            0.000 [kcal/mol]        0.000 [kJ/mol]       0.00000000 [Eh]
    Translational E         0.889 [kcal/mol]        3.718 [kJ/mol]       0.00141628 [Eh]
    Rotational E            0.889 [kcal/mol]        3.718 [kJ/mol]       0.00141628 [Eh]
    Vibrational E          21.087 [kcal/mol]       88.228 [kJ/mol]       0.03360438 [Eh]
  Correction E             22.865 [kcal/mol]       95.665 [kJ/mol]       0.03643693 [Eh]
  Total E, Electronic energy at  298.15 [K]                            -56.48225332 [Eh]

  Enthalpy, H_trans = E_trans + k_B * T
    Electronic H            0.000 [kcal/mol]        0.000 [kJ/mol]       0.00000000 [Eh]
    Translational H         1.481 [kcal/mol]        6.197 [kJ/mol]       0.00236046 [Eh]
    Rotational H            0.889 [kcal/mol]        3.718 [kJ/mol]       0.00141628 [Eh]
    Vibrational H          21.087 [kcal/mol]       88.228 [kJ/mol]       0.03360438 [Eh]
  Correction H             23.457 [kcal/mol]       98.144 [kJ/mol]       0.03738112 [Eh]
  Total H, Enthalpy at  298.15 [K]                                     -56.48130914 [Eh]

  Gibbs free energy, G = H - T * S
    Electronic G            0.000 [kcal/mol]        0.000 [kJ/mol]       0.00000000 [Eh]
    Translational G        -8.787 [kcal/mol]      -36.766 [kJ/mol]      -0.01400347 [Eh]
    Rotational G           -3.188 [kcal/mol]      -13.340 [kJ/mol]      -0.00508080 [Eh]
    Vibrational G          21.063 [kcal/mol]       88.129 [kJ/mol]       0.03356648 [Eh]
  Correction G              9.088 [kcal/mol]       38.023 [kJ/mol]       0.01448221 [Eh]
  Total G, Free enthalpy at  298.15 [K]                                -56.50420804 [Eh]

    Psi4 stopped on: Tuesday, 27 April 2021 06:15PM
    Psi4 wall time for execution: 0:02:54.95

*** Psi4 exiting successfully. Buy a developer a beer!
