
    -----------------------------------------------------------------------
          Psi4: An Open-Source Ab Initio Electronic Structure Package
                               Psi4 1.3.2 release

                         Git: Rev {HEAD} ecbda83 


    R. M. Parrish, L. A. Burns, D. G. A. Smith, A. C. Simmonett,
    A. E. DePrince III, E. G. Hohenstein, U. Bozkaya, A. Yu. Sokolov,
    R. Di Remigio, R. M. Richard, J. F. Gonthier, A. M. James,
    H. R. McAlexander, A. Kumar, M. Saitow, X. Wang, B. P. Pritchard,
    P. Verma, H. F. Schaefer III, K. Patkowski, R. A. King, E. F. Valeev,
    F. A. Evangelista, J. M. Turney, T. D. Crawford, and C. D. Sherrill,
    J. Chem. Theory Comput. 13(7) pp 3185--3197 (2017).
    (doi: 10.1021/acs.jctc.7b00174)


                         Additional Contributions by
    P. Kraus, H. Kruse, M. H. Lechner, M. C. Schieber, R. A. Shaw,
    A. Alenaizan, R. Galvelis, Z. L. Glick, S. Lehtola, and J. P. Misiewicz

    -----------------------------------------------------------------------


    Psi4 started on: Tuesday, 27 April 2021 06:12PM

    Process ID: 215512
    Host:       bp1-compute00099.data.bp.acrc.priv
    PSIDATADIR: /work/zw18965/.conda/envs/p4env/share/psi4
    Memory:     500.0 MiB
    Threads:    24
    
  ==> Input File <==

--------------------------------------------------------------------------
memory 144 GB

molecule {
0 1
O 0.0000000000 0.0000000000 0.0000000000
C 0.0000000000 0.0000000000 1.1584320400
S 0.0000000000 0.0000000000 2.7252829900
}

set dynamic_level 1
set basis cc-pV(D+d)Z
 
optimize("wB97M-V")
frequencies("wB97M-V")
--------------------------------------------------------------------------

  Memory set to 134.110 GiB by Python driver.
gradient() will perform gradient computation by finite difference of analytic energies.

         ----------------------------------------------------------
                                   FINDIF
                     R. A. King and Jonathon Misiewicz
         ---------------------------------------------------------

  Using finite-differences of energies to determine gradients.
    Generating geometries for use with 3-point formula.
    Displacement size will be 5.00e-03.
    Number of atoms is 3.
    Number of symmetric SALCs is 2.
    Translations projected? 1. Rotations projected? 1.
    Number of geometries (including reference) is 5.

  //>>>>>>>>>>>>>>>>>>>>>>>>>>>>>>>>>>>//
  //    Loading displacement 1 of 5    //
  //<<<<<<<<<<<<<<<<<<<<<<<<<<<<<<<<<<<//

*** tstart() called on bp1-compute00099.data.bp.acrc.priv
*** at Tue Apr 27 18:12:59 2021

   => Loading Basis Set <=

    Name: CC-PV(D+D)Z
    Role: ORBITAL
    Keyword: BASIS
    atoms 1 entry O          line   207 file /work/zw18965/.conda/envs/p4env/share/psi4/basis/cc-pv_dpd_z.gbs 
    atoms 2 entry C          line   147 file /work/zw18965/.conda/envs/p4env/share/psi4/basis/cc-pv_dpd_z.gbs 
    atoms 3 entry S          line   613 file /work/zw18965/.conda/envs/p4env/share/psi4/basis/cc-pv_dpd_z.gbs 


         ---------------------------------------------------------
                                   SCF
               by Justin Turney, Rob Parrish, Andy Simmonett
                          and Daniel G. A. Smith
                              RKS Reference
                       24 Threads, 137329 MiB Core
         ---------------------------------------------------------

  ==> Geometry <==

    Molecular point group: c2v
    Full point group: C_inf_v

    Geometry (in Angstrom), charge = 0, multiplicity = 1:

       Center              X                  Y                   Z               Mass       
    ------------   -----------------  -----------------  -----------------  -----------------
         O            0.000000000000     0.000000000000    -1.684829158394    15.994914619570
         C            0.000000000000     0.000000000000    -0.526397118394    12.000000000000
         S            0.000000000000     0.000000000000     1.040453831606    31.972071174400

  Running in c2v symmetry.

  Rotational constants: A = ************  B =      0.20227  C =      0.20227 [cm^-1]
  Rotational constants: A = ************  B =   6064.04409  C =   6064.04409 [MHz]
  Nuclear repulsion =   79.203173565559240

  Charge       = 0
  Multiplicity = 1
  Electrons    = 30
  Nalpha       = 15
  Nbeta        = 15

  ==> Algorithm <==

  SCF Algorithm Type is DF.
  DIIS enabled.
  MOM disabled.
  Fractional occupation disabled.
  Guess Type is SAD.
  Energy threshold   = 1.00e-08
  Density threshold  = 1.00e-08
  Integral threshold = 0.00e+00

  ==> Primary Basis <==

  Basis Set: CC-PV(D+D)Z
    Blend: CC-PV(D+D)Z
    Number of shells: 21
    Number of basis function: 51
    Number of Cartesian functions: 55
    Spherical Harmonics?: true
    Max angular momentum: 2

  ==> DFT Potential <==

   => Composite Functional: WB97M-V <= 

    wB97M-V Hyb-GGA Exchange-Correlation Functional

    N. Mardirossian and M. Head-Gordon, J. Chem. Phys. 144, 214110 (2016)

    Deriv               =              1
    GGA                 =           TRUE
    Meta                =           TRUE

    Exchange Hybrid     =           TRUE
    MP2 Hybrid          =          FALSE

   => Exchange-Correlation Functionals <=

    1.0000   wB97M-V exchange-correlation functional

   => Exact (HF) Exchange <=

    0.8500            HF,LR [omega = 0.3000]
    0.1500               HF 

   => VV10 Non-Local Parameters <=

    VV10 B              =     6.0000E+00
    VV10 C              =     1.0000E-02

   => Molecular Quadrature <=

    Radial Scheme          =       TREUTLER
    Pruning Scheme         =           FLAT
    Nuclear Scheme         =       TREUTLER

    BS radius alpha        =              1
    Pruning alpha          =              1
    Radial Points          =             75
    Spherical Points       =            302
    Total Points           =          64110
    Total Blocks           =            556
    Max Points             =            255
    Max Functions          =             51

   => Loading Basis Set <=

    Name: (CC-PV(D+D)Z AUX)
    Role: JKFIT
    Keyword: DF_BASIS_SCF
    atoms 1 entry O          line   221 file /work/zw18965/.conda/envs/p4env/share/psi4/basis/cc-pvdz-jkfit.gbs 
    atoms 2 entry C          line   121 file /work/zw18965/.conda/envs/p4env/share/psi4/basis/cc-pvdz-jkfit.gbs 
    atoms 3 entry S          line   593 file /work/zw18965/.conda/envs/p4env/share/psi4/basis/cc-pvdz-jkfit.gbs 

  ==> Pre-Iterations <==

   -------------------------------------------------------
    Irrep   Nso     Nmo     Nalpha   Nbeta   Ndocc  Nsocc
   -------------------------------------------------------
     A1        25      25       0       0       0       0
     A2         4       4       0       0       0       0
     B1        11      11       0       0       0       0
     B2        11      11       0       0       0       0
   -------------------------------------------------------
    Total      51      51      15      15      15       0
   -------------------------------------------------------

  ==> Integral Setup <==

  ==> DiskDFJK: Density-Fitted J/K Matrices <==

    J tasked:                  Yes
    K tasked:                  Yes
    wK tasked:                 Yes
    Omega:               3.000E-01
    OpenMP threads:             24
    Integrals threads:          24
    Memory [MiB]:           102777
    Algorithm:                Core
    Integral Cache:           NONE
    Schwarz Cutoff:          1E-12
    Fitting Condition:       1E-10

   => Auxiliary Basis Set <=

  Basis Set: (CC-PV(D+D)Z AUX)
    Blend: CC-PVDZ-JKFIT
    Number of shells: 84
    Number of basis function: 252
    Number of Cartesian functions: 292
    Spherical Harmonics?: true
    Max angular momentum: 3

  Cached 100.0% of DFT collocation blocks in 0.214 [GiB].

  Minimum eigenvalue in the overlap matrix is 6.9871611460E-03.
  Using Symmetric Orthogonalization.

  SCF Guess: Superposition of Atomic Densities via on-the-fly atomic UHF.

  ==> Iterations <==

                           Total Energy        Delta E     RMS |[F,P]|

   @DF-RKS iter SAD:  -511.00335397443689   -5.11003e+02   0.00000e+00 
   @DF-RKS iter   1:  -511.44596969123876   -4.42616e-01   1.32272e-02 DIIS
   @DF-RKS iter   2:  -511.39236070144142    5.36090e-02   1.90447e-02 DIIS
   @DF-RKS iter   3:  -511.50515769698382   -1.12797e-01   1.39393e-03 DIIS
   @DF-RKS iter   4:  -511.50609602304951   -9.38326e-04   6.50397e-04 DIIS
   @DF-RKS iter   5:  -511.50628964356122   -1.93621e-04   1.72900e-04 DIIS
   @DF-RKS iter   6:  -511.50631419321371   -2.45497e-05   4.78702e-05 DIIS
   @DF-RKS iter   7:  -511.50631590601290   -1.71280e-06   8.28856e-06 DIIS
   @DF-RKS iter   8:  -511.50631597725112   -7.12382e-08   1.26645e-06 DIIS
   @DF-RKS iter   9:  -511.50631597858427   -1.33315e-09   3.02732e-07 DIIS
   @DF-RKS iter  10:  -511.50631597862616   -4.18936e-11   5.64917e-08 DIIS
   @DF-RKS iter  11:  -511.50631597862770   -1.53477e-12   7.62730e-09 DIIS
  Energy and wave function converged.


  ==> Post-Iterations <==

    Orbital Energies [Eh]
    ---------------------

    Doubly Occupied:                                                      

       1A1   -89.226633     2A1   -19.437270     3A1   -10.527612  
       4A1    -8.149099     5A1    -6.059962     1B1    -6.052660  
       1B2    -6.052660     6A1    -1.274410     7A1    -0.942018  
       8A1    -0.664006     2B1    -0.586905     2B2    -0.586905  
       9A1    -0.570257     3B1    -0.388982     3B2    -0.388982  

    Virtual:                                                              

       4B1     0.062763     4B2     0.062763    10A1     0.153475  
      11A1     0.279106    12A1     0.498915     5B1     0.531102  
       5B2     0.531102     6B1     0.578585     6B2     0.578585  
      13A1     0.591529     1A2     0.614292    14A1     0.614294  
       7B1     0.715429     7B2     0.715429    15A1     0.824323  
      16A1     0.935344    17A1     1.000355     8B2     1.098621  
       8B1     1.098621     2A2     1.178822    18A1     1.178823  
      19A1     1.262841     9B2     1.530544     9B1     1.530544  
      20A1     1.880608    21A1     2.691920     3A2     2.691923  
      22A1     2.736543    10B2     3.189239    10B1     3.189239  
      23A1     3.560307    24A1     4.516226     4A2     4.516239  
      11B1     4.618299    11B2     4.618299    25A1     4.747374  

    Final Occupation by Irrep:
             A1    A2    B1    B2 
    DOCC [     9,    0,    3,    3 ]

  @DF-RKS Final Energy:  -511.50631597862770

   => Energetics <=

    Nuclear Repulsion Energy =             79.2031735655592399
    One-Electron Energy =                -860.8708078861627655
    Two-Electron Energy =                 299.9444668437095629
    DFT Exchange-Correlation Energy =     -29.9077119414367019
    Empirical Dispersion Energy =           0.0000000000000000
    VV10 Nonlocal Energy =                  0.1245634397029983
    Total Energy =                       -511.5063159786276401

Computation Completed


Properties will be evaluated at   0.000000,   0.000000,   0.000000 [a0]

Properties computed using the SCF density matrix

  Nuclear Dipole Moment: [e a0]
     X:     0.0000      Y:     0.0000      Z:     0.0194

  Electronic Dipole Moment: [e a0]
     X:     0.0000      Y:     0.0000      Z:     0.1606

  Dipole Moment: [e a0]
     X:     0.0000      Y:     0.0000      Z:     0.1800     Total:     0.1800

  Dipole Moment: [D]
     X:     0.0000      Y:     0.0000      Z:     0.4574     Total:     0.4574


*** tstop() called on bp1-compute00099.data.bp.acrc.priv at Tue Apr 27 18:13:02 2021
Module time:
	user time   =      70.24 seconds =       1.17 minutes
	system time =       3.31 seconds =       0.06 minutes
	total time  =          3 seconds =       0.05 minutes
Total time:
	user time   =      70.24 seconds =       1.17 minutes
	system time =       3.31 seconds =       0.06 minutes
	total time  =          3 seconds =       0.05 minutes

  //>>>>>>>>>>>>>>>>>>>>>>>>>>>>>>>>>>>//
  //    Loading displacement 2 of 5    //
  //<<<<<<<<<<<<<<<<<<<<<<<<<<<<<<<<<<<//

*** tstart() called on bp1-compute00099.data.bp.acrc.priv
*** at Tue Apr 27 18:13:02 2021

   => Loading Basis Set <=

    Name: CC-PV(D+D)Z
    Role: ORBITAL
    Keyword: BASIS
    atoms 1 entry O          line   207 file /work/zw18965/.conda/envs/p4env/share/psi4/basis/cc-pv_dpd_z.gbs 
    atoms 2 entry C          line   147 file /work/zw18965/.conda/envs/p4env/share/psi4/basis/cc-pv_dpd_z.gbs 
    atoms 3 entry S          line   613 file /work/zw18965/.conda/envs/p4env/share/psi4/basis/cc-pv_dpd_z.gbs 


         ---------------------------------------------------------
                                   SCF
               by Justin Turney, Rob Parrish, Andy Simmonett
                          and Daniel G. A. Smith
                              RKS Reference
                       24 Threads, 137329 MiB Core
         ---------------------------------------------------------

  ==> Geometry <==

    Molecular point group: c2v
    Full point group: C_inf_v

    Geometry (in Angstrom), charge = 0, multiplicity = 1:

       Center              X                  Y                   Z               Mass       
    ------------   -----------------  -----------------  -----------------  -----------------
         O            0.000000000000     0.000000000000    -1.685395674844    15.994914619570
         C            0.000000000000     0.000000000000    -0.526191047085    12.000000000000
         S            0.000000000000     0.000000000000     1.040659902915    31.972071174400

  Running in c2v symmetry.

  Rotational constants: A = ************  B =      0.20217  C =      0.20217 [cm^-1]
  Rotational constants: A = ************  B =   6061.01523  C =   6061.01523 [MHz]
  Nuclear repulsion =   79.181515997036001

  Charge       = 0
  Multiplicity = 1
  Electrons    = 30
  Nalpha       = 15
  Nbeta        = 15

  ==> Algorithm <==

  SCF Algorithm Type is DF.
  DIIS enabled.
  MOM disabled.
  Fractional occupation disabled.
  Guess Type is SAD.
  Energy threshold   = 1.00e-08
  Density threshold  = 1.00e-08
  Integral threshold = 0.00e+00

  ==> Primary Basis <==

  Basis Set: CC-PV(D+D)Z
    Blend: CC-PV(D+D)Z
    Number of shells: 21
    Number of basis function: 51
    Number of Cartesian functions: 55
    Spherical Harmonics?: true
    Max angular momentum: 2

  ==> DFT Potential <==

   => Composite Functional: WB97M-V <= 

    wB97M-V Hyb-GGA Exchange-Correlation Functional

    N. Mardirossian and M. Head-Gordon, J. Chem. Phys. 144, 214110 (2016)

    Deriv               =              1
    GGA                 =           TRUE
    Meta                =           TRUE

    Exchange Hybrid     =           TRUE
    MP2 Hybrid          =          FALSE

   => Exchange-Correlation Functionals <=

    1.0000   wB97M-V exchange-correlation functional

   => Exact (HF) Exchange <=

    0.8500            HF,LR [omega = 0.3000]
    0.1500               HF 

   => VV10 Non-Local Parameters <=

    VV10 B              =     6.0000E+00
    VV10 C              =     1.0000E-02

   => Molecular Quadrature <=

    Radial Scheme          =       TREUTLER
    Pruning Scheme         =           FLAT
    Nuclear Scheme         =       TREUTLER

    BS radius alpha        =              1
    Pruning alpha          =              1
    Radial Points          =             75
    Spherical Points       =            302
    Total Points           =          64110
    Total Blocks           =            556
    Max Points             =            255
    Max Functions          =             51

   => Loading Basis Set <=

    Name: (CC-PV(D+D)Z AUX)
    Role: JKFIT
    Keyword: DF_BASIS_SCF
    atoms 1 entry O          line   221 file /work/zw18965/.conda/envs/p4env/share/psi4/basis/cc-pvdz-jkfit.gbs 
    atoms 2 entry C          line   121 file /work/zw18965/.conda/envs/p4env/share/psi4/basis/cc-pvdz-jkfit.gbs 
    atoms 3 entry S          line   593 file /work/zw18965/.conda/envs/p4env/share/psi4/basis/cc-pvdz-jkfit.gbs 

  ==> Pre-Iterations <==

   -------------------------------------------------------
    Irrep   Nso     Nmo     Nalpha   Nbeta   Ndocc  Nsocc
   -------------------------------------------------------
     A1        25      25       0       0       0       0
     A2         4       4       0       0       0       0
     B1        11      11       0       0       0       0
     B2        11      11       0       0       0       0
   -------------------------------------------------------
    Total      51      51      15      15      15       0
   -------------------------------------------------------

  ==> Integral Setup <==

  ==> DiskDFJK: Density-Fitted J/K Matrices <==

    J tasked:                  Yes
    K tasked:                  Yes
    wK tasked:                 Yes
    Omega:               3.000E-01
    OpenMP threads:             24
    Integrals threads:          24
    Memory [MiB]:           102777
    Algorithm:                Core
    Integral Cache:           NONE
    Schwarz Cutoff:          1E-12
    Fitting Condition:       1E-10

   => Auxiliary Basis Set <=

  Basis Set: (CC-PV(D+D)Z AUX)
    Blend: CC-PVDZ-JKFIT
    Number of shells: 84
    Number of basis function: 252
    Number of Cartesian functions: 292
    Spherical Harmonics?: true
    Max angular momentum: 3

  Cached 100.0% of DFT collocation blocks in 0.214 [GiB].

  Minimum eigenvalue in the overlap matrix is 6.9882834517E-03.
  Using Symmetric Orthogonalization.

  SCF Guess: Superposition of Atomic Densities via on-the-fly atomic UHF.

  ==> Iterations <==

                           Total Energy        Delta E     RMS |[F,P]|

   @DF-RKS iter SAD:  -511.00190341886901   -5.11002e+02   0.00000e+00 
   @DF-RKS iter   1:  -511.44589262711128   -4.43989e-01   1.32336e-02 DIIS
   @DF-RKS iter   2:  -511.39185899812912    5.40336e-02   1.90824e-02 DIIS
   @DF-RKS iter   3:  -511.50515435939349   -1.13295e-01   1.39436e-03 DIIS
   @DF-RKS iter   4:  -511.50609306255888   -9.38703e-04   6.51824e-04 DIIS
   @DF-RKS iter   5:  -511.50628749990500   -1.94437e-04   1.72884e-04 DIIS
   @DF-RKS iter   6:  -511.50631206904183   -2.45691e-05   4.79330e-05 DIIS
   @DF-RKS iter   7:  -511.50631378634085   -1.71730e-06   8.30392e-06 DIIS
   @DF-RKS iter   8:  -511.50631385788660   -7.15457e-08   1.26965e-06 DIIS
   @DF-RKS iter   9:  -511.50631385922577   -1.33917e-09   3.04329e-07 DIIS
   @DF-RKS iter  10:  -511.50631385926818   -4.24052e-11   5.69831e-08 DIIS
   @DF-RKS iter  11:  -511.50631385926982   -1.64846e-12   7.68886e-09 DIIS
  Energy and wave function converged.


  ==> Post-Iterations <==

    Orbital Energies [Eh]
    ---------------------

    Doubly Occupied:                                                      

       1A1   -89.226764     2A1   -19.437216     3A1   -10.527710  
       4A1    -8.149225     5A1    -6.060086     1B2    -6.052789  
       1B1    -6.052789     6A1    -1.273881     7A1    -0.942102  
       8A1    -0.663917     2B2    -0.586598     2B1    -0.586598  
       9A1    -0.570278     3B2    -0.389049     3B1    -0.389049  

    Virtual:                                                              

       4B2     0.062548     4B1     0.062548    10A1     0.153351  
      11A1     0.279056    12A1     0.498831     5B2     0.531120  
       5B1     0.531120     6B2     0.578550     6B1     0.578550  
      13A1     0.591416     1A2     0.614189    14A1     0.614191  
       7B2     0.715297     7B1     0.715297    15A1     0.823568  
      16A1     0.935433    17A1     1.000399     8B1     1.098763  
       8B2     1.098763     2A2     1.178895    18A1     1.178895  
      19A1     1.262217     9B1     1.530072     9B2     1.530072  
      20A1     1.880690    21A1     2.691918     3A2     2.691921  
      22A1     2.735090    10B1     3.188518    10B2     3.188518  
      23A1     3.559384    24A1     4.516098     4A2     4.516111  
      11B2     4.618151    11B1     4.618151    25A1     4.747249  

    Final Occupation by Irrep:
             A1    A2    B1    B2 
    DOCC [     9,    0,    3,    3 ]

  @DF-RKS Final Energy:  -511.50631385926982

   => Energetics <=

    Nuclear Repulsion Energy =             79.1815159970360014
    One-Electron Energy =                -860.8284599038689748
    Two-Electron Energy =                 299.9231740181679129
    DFT Exchange-Correlation Energy =     -29.9071075995640747
    Empirical Dispersion Energy =           0.0000000000000000
    VV10 Nonlocal Energy =                  0.1245636289593655
    Total Energy =                       -511.5063138592698238

Computation Completed


Properties will be evaluated at   0.000000,   0.000000,   0.000000 [a0]

Properties computed using the SCF density matrix

  Nuclear Dipole Moment: [e a0]
     X:     0.0000      Y:     0.0000      Z:     0.0194

  Electronic Dipole Moment: [e a0]
     X:     0.0000      Y:     0.0000      Z:     0.1631

  Dipole Moment: [e a0]
     X:     0.0000      Y:     0.0000      Z:     0.1825     Total:     0.1825

  Dipole Moment: [D]
     X:     0.0000      Y:     0.0000      Z:     0.4638     Total:     0.4638


*** tstop() called on bp1-compute00099.data.bp.acrc.priv at Tue Apr 27 18:13:05 2021
Module time:
	user time   =      70.18 seconds =       1.17 minutes
	system time =       2.91 seconds =       0.05 minutes
	total time  =          3 seconds =       0.05 minutes
Total time:
	user time   =     140.59 seconds =       2.34 minutes
	system time =       6.23 seconds =       0.10 minutes
	total time  =          6 seconds =       0.10 minutes

  //>>>>>>>>>>>>>>>>>>>>>>>>>>>>>>>>>>>//
  //    Loading displacement 3 of 5    //
  //<<<<<<<<<<<<<<<<<<<<<<<<<<<<<<<<<<<//

*** tstart() called on bp1-compute00099.data.bp.acrc.priv
*** at Tue Apr 27 18:13:05 2021

   => Loading Basis Set <=

    Name: CC-PV(D+D)Z
    Role: ORBITAL
    Keyword: BASIS
    atoms 1 entry O          line   207 file /work/zw18965/.conda/envs/p4env/share/psi4/basis/cc-pv_dpd_z.gbs 
    atoms 2 entry C          line   147 file /work/zw18965/.conda/envs/p4env/share/psi4/basis/cc-pv_dpd_z.gbs 
    atoms 3 entry S          line   613 file /work/zw18965/.conda/envs/p4env/share/psi4/basis/cc-pv_dpd_z.gbs 


         ---------------------------------------------------------
                                   SCF
               by Justin Turney, Rob Parrish, Andy Simmonett
                          and Daniel G. A. Smith
                              RKS Reference
                       24 Threads, 137329 MiB Core
         ---------------------------------------------------------

  ==> Geometry <==

    Molecular point group: c2v
    Full point group: C_inf_v

    Geometry (in Angstrom), charge = 0, multiplicity = 1:

       Center              X                  Y                   Z               Mass       
    ------------   -----------------  -----------------  -----------------  -----------------
         O            0.000000000000     0.000000000000    -1.684262641943    15.994914619570
         C            0.000000000000     0.000000000000    -0.526603189702    12.000000000000
         S            0.000000000000     0.000000000000     1.040247760298    31.972071174400

  Running in c2v symmetry.

  Rotational constants: A = ************  B =      0.20238  C =      0.20238 [cm^-1]
  Rotational constants: A = ************  B =   6067.07496  C =   6067.07496 [MHz]
  Nuclear repulsion =   79.224854634420780

  Charge       = 0
  Multiplicity = 1
  Electrons    = 30
  Nalpha       = 15
  Nbeta        = 15

  ==> Algorithm <==

  SCF Algorithm Type is DF.
  DIIS enabled.
  MOM disabled.
  Fractional occupation disabled.
  Guess Type is SAD.
  Energy threshold   = 1.00e-08
  Density threshold  = 1.00e-08
  Integral threshold = 0.00e+00

  ==> Primary Basis <==

  Basis Set: CC-PV(D+D)Z
    Blend: CC-PV(D+D)Z
    Number of shells: 21
    Number of basis function: 51
    Number of Cartesian functions: 55
    Spherical Harmonics?: true
    Max angular momentum: 2

  ==> DFT Potential <==

   => Composite Functional: WB97M-V <= 

    wB97M-V Hyb-GGA Exchange-Correlation Functional

    N. Mardirossian and M. Head-Gordon, J. Chem. Phys. 144, 214110 (2016)

    Deriv               =              1
    GGA                 =           TRUE
    Meta                =           TRUE

    Exchange Hybrid     =           TRUE
    MP2 Hybrid          =          FALSE

   => Exchange-Correlation Functionals <=

    1.0000   wB97M-V exchange-correlation functional

   => Exact (HF) Exchange <=

    0.8500            HF,LR [omega = 0.3000]
    0.1500               HF 

   => VV10 Non-Local Parameters <=

    VV10 B              =     6.0000E+00
    VV10 C              =     1.0000E-02

   => Molecular Quadrature <=

    Radial Scheme          =       TREUTLER
    Pruning Scheme         =           FLAT
    Nuclear Scheme         =       TREUTLER

    BS radius alpha        =              1
    Pruning alpha          =              1
    Radial Points          =             75
    Spherical Points       =            302
    Total Points           =          64110
    Total Blocks           =            556
    Max Points             =            255
    Max Functions          =             51

   => Loading Basis Set <=

    Name: (CC-PV(D+D)Z AUX)
    Role: JKFIT
    Keyword: DF_BASIS_SCF
    atoms 1 entry O          line   221 file /work/zw18965/.conda/envs/p4env/share/psi4/basis/cc-pvdz-jkfit.gbs 
    atoms 2 entry C          line   121 file /work/zw18965/.conda/envs/p4env/share/psi4/basis/cc-pvdz-jkfit.gbs 
    atoms 3 entry S          line   593 file /work/zw18965/.conda/envs/p4env/share/psi4/basis/cc-pvdz-jkfit.gbs 

  ==> Pre-Iterations <==

   -------------------------------------------------------
    Irrep   Nso     Nmo     Nalpha   Nbeta   Ndocc  Nsocc
   -------------------------------------------------------
     A1        25      25       0       0       0       0
     A2         4       4       0       0       0       0
     B1        11      11       0       0       0       0
     B2        11      11       0       0       0       0
   -------------------------------------------------------
    Total      51      51      15      15      15       0
   -------------------------------------------------------

  ==> Integral Setup <==

  ==> DiskDFJK: Density-Fitted J/K Matrices <==

    J tasked:                  Yes
    K tasked:                  Yes
    wK tasked:                 Yes
    Omega:               3.000E-01
    OpenMP threads:             24
    Integrals threads:          24
    Memory [MiB]:           102777
    Algorithm:                Core
    Integral Cache:           NONE
    Schwarz Cutoff:          1E-12
    Fitting Condition:       1E-10

   => Auxiliary Basis Set <=

  Basis Set: (CC-PV(D+D)Z AUX)
    Blend: CC-PVDZ-JKFIT
    Number of shells: 84
    Number of basis function: 252
    Number of Cartesian functions: 292
    Spherical Harmonics?: true
    Max angular momentum: 3

  Cached 100.0% of DFT collocation blocks in 0.214 [GiB].

  Minimum eigenvalue in the overlap matrix is 6.9860368630E-03.
  Using Symmetric Orthogonalization.

  SCF Guess: Superposition of Atomic Densities via on-the-fly atomic UHF.

  ==> Iterations <==

                           Total Energy        Delta E     RMS |[F,P]|

   @DF-RKS iter SAD:  -511.00480489380880   -5.11005e+02   0.00000e+00 
   @DF-RKS iter   1:  -511.44604390365379   -4.41239e-01   1.32208e-02 DIIS
   @DF-RKS iter   2:  -511.39285714294215    5.31868e-02   1.90071e-02 DIIS
   @DF-RKS iter   3:  -511.50515867345251   -1.12302e-01   1.39351e-03 DIIS
   @DF-RKS iter   4:  -511.50609662300212   -9.37950e-04   6.48973e-04 DIIS
   @DF-RKS iter   5:  -511.50628942996252   -1.92807e-04   1.72915e-04 DIIS
   @DF-RKS iter   6:  -511.50631396015319   -2.45302e-05   4.78078e-05 DIIS
   @DF-RKS iter   7:  -511.50631566847676   -1.70832e-06   8.27329e-06 DIIS
   @DF-RKS iter   8:  -511.50631573940922   -7.09325e-08   1.26325e-06 DIIS
   @DF-RKS iter   9:  -511.50631574073657   -1.32735e-09   3.01146e-07 DIIS
   @DF-RKS iter  10:  -511.50631574077772   -4.11546e-11   5.60044e-08 DIIS
   @DF-RKS iter  11:  -511.50631574077966   -1.93268e-12   7.56620e-09 DIIS
  Energy and wave function converged.


  ==> Post-Iterations <==

    Orbital Energies [Eh]
    ---------------------

    Doubly Occupied:                                                      

       1A1   -89.226502     2A1   -19.437325     3A1   -10.527513  
       4A1    -8.148972     5A1    -6.059838     1B1    -6.052532  
       1B2    -6.052532     6A1    -1.274938     7A1    -0.941934  
       8A1    -0.664096     2B1    -0.587212     2B2    -0.587212  
       9A1    -0.570235     3B1    -0.388915     3B2    -0.388915  

    Virtual:                                                              

       4B1     0.062978     4B2     0.062978    10A1     0.153599  
      11A1     0.279155    12A1     0.499000     5B1     0.531082  
       5B2     0.531082     6B1     0.578619     6B2     0.578619  
      13A1     0.591641     1A2     0.614394    14A1     0.614396  
       7B1     0.715560     7B2     0.715560    15A1     0.825079  
      16A1     0.935255    17A1     1.000312     8B2     1.098479  
       8B1     1.098479     2A2     1.178749    18A1     1.178750  
      19A1     1.263467     9B2     1.531017     9B1     1.531017  
      20A1     1.880527    21A1     2.691922     3A2     2.691925  
      22A1     2.737997    10B2     3.189960    10B1     3.189960  
      23A1     3.561230    24A1     4.516354     4A2     4.516367  
      11B1     4.618447    11B2     4.618447    25A1     4.747498  

    Final Occupation by Irrep:
             A1    A2    B1    B2 
    DOCC [     9,    0,    3,    3 ]

  @DF-RKS Final Energy:  -511.50631574077966

   => Energetics <=

    Nuclear Repulsion Energy =             79.2248546344207796
    One-Electron Energy =                -860.9131963837201056
    Two-Electron Energy =                 299.9657802494006660
    DFT Exchange-Correlation Energy =     -29.9083174929803093
    Empirical Dispersion Energy =           0.0000000000000000
    VV10 Nonlocal Energy =                  0.1245632520992897
    Total Energy =                       -511.5063157407796552

Computation Completed


Properties will be evaluated at   0.000000,   0.000000,   0.000000 [a0]

Properties computed using the SCF density matrix

  Nuclear Dipole Moment: [e a0]
     X:     0.0000      Y:     0.0000      Z:     0.0194

  Electronic Dipole Moment: [e a0]
     X:     0.0000      Y:     0.0000      Z:     0.1581

  Dipole Moment: [e a0]
     X:     0.0000      Y:     0.0000      Z:     0.1774     Total:     0.1774

  Dipole Moment: [D]
     X:     0.0000      Y:     0.0000      Z:     0.4510     Total:     0.4510


*** tstop() called on bp1-compute00099.data.bp.acrc.priv at Tue Apr 27 18:13:08 2021
Module time:
	user time   =      66.90 seconds =       1.11 minutes
	system time =       2.28 seconds =       0.04 minutes
	total time  =          3 seconds =       0.05 minutes
Total time:
	user time   =     207.65 seconds =       3.46 minutes
	system time =       8.51 seconds =       0.14 minutes
	total time  =          9 seconds =       0.15 minutes

  //>>>>>>>>>>>>>>>>>>>>>>>>>>>>>>>>>>>//
  //    Loading displacement 4 of 5    //
  //<<<<<<<<<<<<<<<<<<<<<<<<<<<<<<<<<<<//

*** tstart() called on bp1-compute00099.data.bp.acrc.priv
*** at Tue Apr 27 18:13:08 2021

   => Loading Basis Set <=

    Name: CC-PV(D+D)Z
    Role: ORBITAL
    Keyword: BASIS
    atoms 1 entry O          line   207 file /work/zw18965/.conda/envs/p4env/share/psi4/basis/cc-pv_dpd_z.gbs 
    atoms 2 entry C          line   147 file /work/zw18965/.conda/envs/p4env/share/psi4/basis/cc-pv_dpd_z.gbs 
    atoms 3 entry S          line   613 file /work/zw18965/.conda/envs/p4env/share/psi4/basis/cc-pv_dpd_z.gbs 


         ---------------------------------------------------------
                                   SCF
               by Justin Turney, Rob Parrish, Andy Simmonett
                          and Daniel G. A. Smith
                              RKS Reference
                       24 Threads, 137329 MiB Core
         ---------------------------------------------------------

  ==> Geometry <==

    Molecular point group: c2v
    Full point group: C_inf_v

    Geometry (in Angstrom), charge = 0, multiplicity = 1:

       Center              X                  Y                   Z               Mass       
    ------------   -----------------  -----------------  -----------------  -----------------
         O            0.000000000000     0.000000000000    -1.684829158394    15.994914619570
         C            0.000000000000     0.000000000000    -0.527048412935    12.000000000000
         S            0.000000000000     0.000000000000     1.040698280408    31.972071174400

  Running in c2v symmetry.

  Rotational constants: A = ************  B =      0.20222  C =      0.20222 [cm^-1]
  Rotational constants: A = ************  B =   6062.26204  C =   6062.26204 [MHz]
  Nuclear repulsion =   79.194754216267100

  Charge       = 0
  Multiplicity = 1
  Electrons    = 30
  Nalpha       = 15
  Nbeta        = 15

  ==> Algorithm <==

  SCF Algorithm Type is DF.
  DIIS enabled.
  MOM disabled.
  Fractional occupation disabled.
  Guess Type is SAD.
  Energy threshold   = 1.00e-08
  Density threshold  = 1.00e-08
  Integral threshold = 0.00e+00

  ==> Primary Basis <==

  Basis Set: CC-PV(D+D)Z
    Blend: CC-PV(D+D)Z
    Number of shells: 21
    Number of basis function: 51
    Number of Cartesian functions: 55
    Spherical Harmonics?: true
    Max angular momentum: 2

  ==> DFT Potential <==

   => Composite Functional: WB97M-V <= 

    wB97M-V Hyb-GGA Exchange-Correlation Functional

    N. Mardirossian and M. Head-Gordon, J. Chem. Phys. 144, 214110 (2016)

    Deriv               =              1
    GGA                 =           TRUE
    Meta                =           TRUE

    Exchange Hybrid     =           TRUE
    MP2 Hybrid          =          FALSE

   => Exchange-Correlation Functionals <=

    1.0000   wB97M-V exchange-correlation functional

   => Exact (HF) Exchange <=

    0.8500            HF,LR [omega = 0.3000]
    0.1500               HF 

   => VV10 Non-Local Parameters <=

    VV10 B              =     6.0000E+00
    VV10 C              =     1.0000E-02

   => Molecular Quadrature <=

    Radial Scheme          =       TREUTLER
    Pruning Scheme         =           FLAT
    Nuclear Scheme         =       TREUTLER

    BS radius alpha        =              1
    Pruning alpha          =              1
    Radial Points          =             75
    Spherical Points       =            302
    Total Points           =          64110
    Total Blocks           =            556
    Max Points             =            255
    Max Functions          =             51

   => Loading Basis Set <=

    Name: (CC-PV(D+D)Z AUX)
    Role: JKFIT
    Keyword: DF_BASIS_SCF
    atoms 1 entry O          line   221 file /work/zw18965/.conda/envs/p4env/share/psi4/basis/cc-pvdz-jkfit.gbs 
    atoms 2 entry C          line   121 file /work/zw18965/.conda/envs/p4env/share/psi4/basis/cc-pvdz-jkfit.gbs 
    atoms 3 entry S          line   593 file /work/zw18965/.conda/envs/p4env/share/psi4/basis/cc-pvdz-jkfit.gbs 

  ==> Pre-Iterations <==

   -------------------------------------------------------
    Irrep   Nso     Nmo     Nalpha   Nbeta   Ndocc  Nsocc
   -------------------------------------------------------
     A1        25      25       0       0       0       0
     A2         4       4       0       0       0       0
     B1        11      11       0       0       0       0
     B2        11      11       0       0       0       0
   -------------------------------------------------------
    Total      51      51      15      15      15       0
   -------------------------------------------------------

  ==> Integral Setup <==

  ==> DiskDFJK: Density-Fitted J/K Matrices <==

    J tasked:                  Yes
    K tasked:                  Yes
    wK tasked:                 Yes
    Omega:               3.000E-01
    OpenMP threads:             24
    Integrals threads:          24
    Memory [MiB]:           102777
    Algorithm:                Core
    Integral Cache:           NONE
    Schwarz Cutoff:          1E-12
    Fitting Condition:       1E-10

   => Auxiliary Basis Set <=

  Basis Set: (CC-PV(D+D)Z AUX)
    Blend: CC-PVDZ-JKFIT
    Number of shells: 84
    Number of basis function: 252
    Number of Cartesian functions: 292
    Spherical Harmonics?: true
    Max angular momentum: 3

  Cached 100.0% of DFT collocation blocks in 0.214 [GiB].

  Minimum eigenvalue in the overlap matrix is 7.0036834108E-03.
  Using Symmetric Orthogonalization.

  SCF Guess: Superposition of Atomic Densities via on-the-fly atomic UHF.

  ==> Iterations <==

                           Total Energy        Delta E     RMS |[F,P]|

   @DF-RKS iter SAD:  -511.00320878317507   -5.11003e+02   0.00000e+00 
   @DF-RKS iter   1:  -511.44603275958963   -4.42824e-01   1.32221e-02 DIIS
   @DF-RKS iter   2:  -511.39283496354716    5.31978e-02   1.90103e-02 DIIS
   @DF-RKS iter   3:  -511.50515971596548   -1.12325e-01   1.39511e-03 DIIS
   @DF-RKS iter   4:  -511.50609922505151   -9.39509e-04   6.51454e-04 DIIS
   @DF-RKS iter   5:  -511.50629362214403   -1.94397e-04   1.72695e-04 DIIS
   @DF-RKS iter   6:  -511.50631820185498   -2.45797e-05   4.78521e-05 DIIS
   @DF-RKS iter   7:  -511.50631991752334   -1.71567e-06   8.29328e-06 DIIS
   @DF-RKS iter   8:  -511.50631998883006   -7.13067e-08   1.26749e-06 DIIS
   @DF-RKS iter   9:  -511.50631999016679   -1.33673e-09   3.02145e-07 DIIS
   @DF-RKS iter  10:  -511.50631999020857   -4.17799e-11   5.61203e-08 DIIS
   @DF-RKS iter  11:  -511.50631999021027   -1.70530e-12   7.59225e-09 DIIS
  Energy and wave function converged.


  ==> Post-Iterations <==

    Orbital Energies [Eh]
    ---------------------

    Doubly Occupied:                                                      

       1A1   -89.226572     2A1   -19.437481     3A1   -10.527690  
       4A1    -8.148996     5A1    -6.059871     1B2    -6.052556  
       1B1    -6.052556     6A1    -1.274982     7A1    -0.941670  
       8A1    -0.664213     2B1    -0.587207     2B2    -0.587207  
       9A1    -0.570226     3B1    -0.388863     3B2    -0.388863  

    Virtual:                                                              

       4B2     0.062836     4B1     0.062836    10A1     0.153234  
      11A1     0.279211    12A1     0.499073     5B1     0.531151  
       5B2     0.531151     6B1     0.578484     6B2     0.578484  
      13A1     0.591515     1A2     0.614476    14A1     0.614478  
       7B1     0.715443     7B2     0.715443    15A1     0.824781  
      16A1     0.935097    17A1     0.999907     8B1     1.098393  
       8B2     1.098393     2A2     1.178649    18A1     1.178650  
      19A1     1.262679     9B2     1.530428     9B1     1.530428  
      20A1     1.880388    21A1     2.691786     3A2     2.691789  
      22A1     2.737071    10B2     3.189480    10B1     3.189480  
      23A1     3.560939    24A1     4.516341     4A2     4.516354  
      11B2     4.618324    11B1     4.618324    25A1     4.747487  

    Final Occupation by Irrep:
             A1    A2    B1    B2 
    DOCC [     9,    0,    3,    3 ]

  @DF-RKS Final Energy:  -511.50631999021027

   => Energetics <=

    Nuclear Repulsion Energy =             79.1947542162670999
    One-Electron Energy =                -860.8527720293869834
    Two-Electron Energy =                 299.9348859179058309
    DFT Exchange-Correlation Energy =     -29.9077521257474359
    Empirical Dispersion Energy =           0.0000000000000000
    VV10 Nonlocal Energy =                  0.1245640307511433
    Total Energy =                       -511.5063199902103293

Computation Completed


Properties will be evaluated at   0.000000,   0.000000,   0.000000 [a0]

Properties computed using the SCF density matrix

  Nuclear Dipole Moment: [e a0]
     X:     0.0000      Y:     0.0000      Z:     0.0194

  Electronic Dipole Moment: [e a0]
     X:     0.0000      Y:     0.0000      Z:     0.1569

  Dipole Moment: [e a0]
     X:     0.0000      Y:     0.0000      Z:     0.1763     Total:     0.1763

  Dipole Moment: [D]
     X:     0.0000      Y:     0.0000      Z:     0.4480     Total:     0.4480


*** tstop() called on bp1-compute00099.data.bp.acrc.priv at Tue Apr 27 18:13:11 2021
Module time:
	user time   =      66.15 seconds =       1.10 minutes
	system time =       2.22 seconds =       0.04 minutes
	total time  =          3 seconds =       0.05 minutes
Total time:
	user time   =     273.94 seconds =       4.57 minutes
	system time =      10.74 seconds =       0.18 minutes
	total time  =         12 seconds =       0.20 minutes

  //>>>>>>>>>>>>>>>>>>>>>>>>>>>>>>>>>>>//
  //    Loading displacement 5 of 5    //
  //<<<<<<<<<<<<<<<<<<<<<<<<<<<<<<<<<<<//

*** tstart() called on bp1-compute00099.data.bp.acrc.priv
*** at Tue Apr 27 18:13:11 2021

   => Loading Basis Set <=

    Name: CC-PV(D+D)Z
    Role: ORBITAL
    Keyword: BASIS
    atoms 1 entry O          line   207 file /work/zw18965/.conda/envs/p4env/share/psi4/basis/cc-pv_dpd_z.gbs 
    atoms 2 entry C          line   147 file /work/zw18965/.conda/envs/p4env/share/psi4/basis/cc-pv_dpd_z.gbs 
    atoms 3 entry S          line   613 file /work/zw18965/.conda/envs/p4env/share/psi4/basis/cc-pv_dpd_z.gbs 


         ---------------------------------------------------------
                                   SCF
               by Justin Turney, Rob Parrish, Andy Simmonett
                          and Daniel G. A. Smith
                              RKS Reference
                       24 Threads, 137329 MiB Core
         ---------------------------------------------------------

  ==> Geometry <==

    Molecular point group: c2v
    Full point group: C_inf_v

    Geometry (in Angstrom), charge = 0, multiplicity = 1:

       Center              X                  Y                   Z               Mass       
    ------------   -----------------  -----------------  -----------------  -----------------
         O            0.000000000000     0.000000000000    -1.684829158394    15.994914619570
         C            0.000000000000     0.000000000000    -0.525745823852    12.000000000000
         S            0.000000000000     0.000000000000     1.040209382804    31.972071174400

  Running in c2v symmetry.

  Rotational constants: A = ************  B =      0.20233  C =      0.20233 [cm^-1]
  Rotational constants: A = ************  B =   6065.82617  C =   6065.82617 [MHz]
  Nuclear repulsion =   79.211628369170626

  Charge       = 0
  Multiplicity = 1
  Electrons    = 30
  Nalpha       = 15
  Nbeta        = 15

  ==> Algorithm <==

  SCF Algorithm Type is DF.
  DIIS enabled.
  MOM disabled.
  Fractional occupation disabled.
  Guess Type is SAD.
  Energy threshold   = 1.00e-08
  Density threshold  = 1.00e-08
  Integral threshold = 0.00e+00

  ==> Primary Basis <==

  Basis Set: CC-PV(D+D)Z
    Blend: CC-PV(D+D)Z
    Number of shells: 21
    Number of basis function: 51
    Number of Cartesian functions: 55
    Spherical Harmonics?: true
    Max angular momentum: 2

  ==> DFT Potential <==

   => Composite Functional: WB97M-V <= 

    wB97M-V Hyb-GGA Exchange-Correlation Functional

    N. Mardirossian and M. Head-Gordon, J. Chem. Phys. 144, 214110 (2016)

    Deriv               =              1
    GGA                 =           TRUE
    Meta                =           TRUE

    Exchange Hybrid     =           TRUE
    MP2 Hybrid          =          FALSE

   => Exchange-Correlation Functionals <=

    1.0000   wB97M-V exchange-correlation functional

   => Exact (HF) Exchange <=

    0.8500            HF,LR [omega = 0.3000]
    0.1500               HF 

   => VV10 Non-Local Parameters <=

    VV10 B              =     6.0000E+00
    VV10 C              =     1.0000E-02

   => Molecular Quadrature <=

    Radial Scheme          =       TREUTLER
    Pruning Scheme         =           FLAT
    Nuclear Scheme         =       TREUTLER

    BS radius alpha        =              1
    Pruning alpha          =              1
    Radial Points          =             75
    Spherical Points       =            302
    Total Points           =          64110
    Total Blocks           =            556
    Max Points             =            255
    Max Functions          =             51

   => Loading Basis Set <=

    Name: (CC-PV(D+D)Z AUX)
    Role: JKFIT
    Keyword: DF_BASIS_SCF
    atoms 1 entry O          line   221 file /work/zw18965/.conda/envs/p4env/share/psi4/basis/cc-pvdz-jkfit.gbs 
    atoms 2 entry C          line   121 file /work/zw18965/.conda/envs/p4env/share/psi4/basis/cc-pvdz-jkfit.gbs 
    atoms 3 entry S          line   593 file /work/zw18965/.conda/envs/p4env/share/psi4/basis/cc-pvdz-jkfit.gbs 

  ==> Pre-Iterations <==

   -------------------------------------------------------
    Irrep   Nso     Nmo     Nalpha   Nbeta   Ndocc  Nsocc
   -------------------------------------------------------
     A1        25      25       0       0       0       0
     A2         4       4       0       0       0       0
     B1        11      11       0       0       0       0
     B2        11      11       0       0       0       0
   -------------------------------------------------------
    Total      51      51      15      15      15       0
   -------------------------------------------------------

  ==> Integral Setup <==

  ==> DiskDFJK: Density-Fitted J/K Matrices <==

    J tasked:                  Yes
    K tasked:                  Yes
    wK tasked:                 Yes
    Omega:               3.000E-01
    OpenMP threads:             24
    Integrals threads:          24
    Memory [MiB]:           102777
    Algorithm:                Core
    Integral Cache:           NONE
    Schwarz Cutoff:          1E-12
    Fitting Condition:       1E-10

   => Auxiliary Basis Set <=

  Basis Set: (CC-PV(D+D)Z AUX)
    Blend: CC-PVDZ-JKFIT
    Number of shells: 84
    Number of basis function: 252
    Number of Cartesian functions: 292
    Spherical Harmonics?: true
    Max angular momentum: 3

  Cached 100.0% of DFT collocation blocks in 0.214 [GiB].

  Minimum eigenvalue in the overlap matrix is 6.9706706583E-03.
  Using Symmetric Orthogonalization.

  SCF Guess: Superposition of Atomic Densities via on-the-fly atomic UHF.

  ==> Iterations <==

                           Total Energy        Delta E     RMS |[F,P]|

   @DF-RKS iter SAD:  -511.00350219122595   -5.11004e+02   0.00000e+00 
   @DF-RKS iter   1:  -511.44590286268084   -4.42401e-01   1.32323e-02 DIIS
   @DF-RKS iter   2:  -511.39188048545486    5.40224e-02   1.90792e-02 DIIS
   @DF-RKS iter   3:  -511.50515290867713   -1.13272e-01   1.39273e-03 DIIS
   @DF-RKS iter   4:  -511.50609002612646   -9.37117e-04   6.49317e-04 DIIS
   @DF-RKS iter   5:  -511.50628285721268   -1.92831e-04   1.73108e-04 DIIS
   @DF-RKS iter   6:  -511.50630737739772   -2.45202e-05   4.78893e-05 DIIS
   @DF-RKS iter   7:  -511.50630908737367   -1.70998e-06   8.28393e-06 DIIS
   @DF-RKS iter   8:  -511.50630915854413   -7.11705e-08   1.26539e-06 DIIS
   @DF-RKS iter   9:  -511.50630915987398   -1.32985e-09   3.03318e-07 DIIS
   @DF-RKS iter  10:  -511.50630915991604   -4.20641e-11   5.68643e-08 DIIS
   @DF-RKS iter  11:  -511.50630915991707   -1.02318e-12   7.66241e-09 DIIS
  Energy and wave function converged.


  ==> Post-Iterations <==

    Orbital Energies [Eh]
    ---------------------

    Doubly Occupied:                                                      

       1A1   -89.226695     2A1   -19.437059     3A1   -10.527533  
       4A1    -8.149201     5A1    -6.060053     1B2    -6.052765  
       1B1    -6.052765     6A1    -1.273837     7A1    -0.942367  
       8A1    -0.663800     2B2    -0.586603     2B1    -0.586603  
       9A1    -0.570287     3B2    -0.389101     3B1    -0.389101  

    Virtual:                                                              

       4B2     0.062691     4B1     0.062691    10A1     0.153716  
      11A1     0.279000    12A1     0.498758     5B2     0.531051  
       5B1     0.531051     6B2     0.578687     6B1     0.578687  
      13A1     0.591542     1A2     0.614107    14A1     0.614109  
       7B2     0.715414     7B1     0.715414    15A1     0.823867  
      16A1     0.935591    17A1     1.000802     8B1     1.098848  
       8B2     1.098848     2A2     1.178995    18A1     1.178996  
      19A1     1.263007     9B1     1.530661     9B2     1.530661  
      20A1     1.880829    21A1     2.692054     3A2     2.692057  
      22A1     2.736013    10B1     3.188998    10B2     3.188998  
      23A1     3.559675    24A1     4.516111     4A2     4.516124  
      11B2     4.618273    11B1     4.618273    25A1     4.747261  

    Final Occupation by Irrep:
             A1    A2    B1    B2 
    DOCC [     9,    0,    3,    3 ]

  @DF-RKS Final Energy:  -511.50630915991707

   => Energetics <=

    Nuclear Repulsion Energy =             79.2116283691706258
    One-Electron Energy =                -860.8889079286159358
    Two-Electron Energy =                 299.9540811685162112
    DFT Exchange-Correlation Energy =     -29.9076736212305327
    Empirical Dispersion Energy =           0.0000000000000000
    VV10 Nonlocal Energy =                  0.1245628522425519
    Total Energy =                       -511.5063091599170662

Computation Completed


Properties will be evaluated at   0.000000,   0.000000,   0.000000 [a0]

Properties computed using the SCF density matrix

  Nuclear Dipole Moment: [e a0]
     X:     0.0000      Y:     0.0000      Z:     0.0194

  Electronic Dipole Moment: [e a0]
     X:     0.0000      Y:     0.0000      Z:     0.1643

  Dipole Moment: [e a0]
     X:     0.0000      Y:     0.0000      Z:     0.1837     Total:     0.1837

  Dipole Moment: [D]
     X:     0.0000      Y:     0.0000      Z:     0.4668     Total:     0.4668


*** tstop() called on bp1-compute00099.data.bp.acrc.priv at Tue Apr 27 18:13:14 2021
Module time:
	user time   =      66.61 seconds =       1.11 minutes
	system time =       2.26 seconds =       0.04 minutes
	total time  =          3 seconds =       0.05 minutes
Total time:
	user time   =     340.68 seconds =       5.68 minutes
	system time =      13.01 seconds =       0.22 minutes
	total time  =         15 seconds =       0.25 minutes

         ----------------------------------------------------------
                                   FINDIF
                     R. A. King and Jonathon Misiewicz
         ---------------------------------------------------------

  Computing gradient from energies.
    Using 3-point formula.
    Energy without displacement: -511.5063159786
    Check energies below for precision!
    Forces are for mass-weighted, symmetry-adapted cartesians (in au).

     Coord      Energy(-1)        Energy(+1)            Force
        0   -511.5063138593   -511.5063157408     -0.0001881510
        1   -511.5063199902   -511.5063091599      0.0010830293


-------------------------------------------------------------
  ## New Matrix (Symmetry 0) ##
  Irrep: 1 Size: 3 x 3

                 1                   2                   3

    1     0.00000000000000     0.00000000000000    -0.00064436183007
    2     0.00000000000000     0.00000000000000     0.00337494626458
    3     0.00000000000000     0.00000000000000    -0.00273058443451




			-----------------------------------------
			 OPTKING 2.0: for geometry optimizations 
			  - R.A. King,  Bethel University        
			-----------------------------------------
	At level 1: Red. Int., RFO, no backsteps, dynamic trust

	Internal coordinates to be generated automatically.
	Detected frag 1 with atoms:  1 2 3
	---Fragment 1 Bond Connectivity---
	 1 : 2
	 2 : 1 3
	 3 : 2

	---Fragment 1 Geometry and Gradient---
	 O           0.0000000000        0.0000000000       -3.1838656775
	 C           0.0000000000        0.0000000000       -0.9947463870
	 S           0.0000000000        0.0000000000        1.9661727879
	             0.0000000000        0.0000000000       -0.0006443618
	             0.0000000000        0.0000000000        0.0033749463
	             0.0000000000        0.0000000000       -0.0027305844

	Previous optimization step data not found.  Starting new optimization.

	---Fragment 1 Intrafragment Coordinates---
	 - Coordinate -           - BOHR/RAD -       - ANG/DEG -
	 R(1,2)           =         2.189119	       1.158432
	 R(2,3)           =         2.960919	       1.566851
	 L(1,2,3)         =         3.141593	     180.000000
	 l(1,2,3)         =         3.141593	     180.000000

	Current energy   :      -511.5063159786

	Generating empirical Hessian (Schlegel '84) for each fragment.
	Taking RFO optimization step.
	Going to follow RFO solution 1.
	Using RFO vector 1.
	Norm of target step-size    0.00472
	Projected energy change by RFO approximation:        -0.0000131324

	Back-transformation to cartesian coordinates...
	Successfully converged to displaced geometry.

	--- Internal Coordinate Step in ANG or DEG, aJ/ANG or AJ/DEG ---
	 ---------------------------------------------------------------------------
	   Coordinate                Previous        Force       Change         New 
	   ----------                --------       ------       ------       ------
	    1 R(1,2)          =      1.158432    -0.005309    -0.000265     1.158167
	    2 R(2,3)          =      1.566851     0.022497     0.002483     1.569334
	    3 L(1,2,3)        =    180.000000     0.000000     0.000000   180.000000
	    4 l(1,2,3)        =    180.000000     0.000000     0.000000   180.000000
	 ---------------------------------------------------------------------------
	Successfully symmetrized geometry.

  ==> Convergence Check <==

  Measures of convergence in internal coordinates in au.
  Criteria marked as inactive (o), active & met (*), and active & unmet ( ).
  --------------------------------------------------------------------------------------------- ~
   Step     Total Energy     Delta E     MAX Force     RMS Force      MAX Disp      RMS Disp    ~
  --------------------------------------------------------------------------------------------- ~
    Convergence Criteria    1.00e-06 *    3.00e-04 *             o    1.20e-03 *             o  ~
  --------------------------------------------------------------------------------------------- ~
      1    -511.50631598   -5.12e+02      2.73e-03      1.40e-03 o    4.69e-03      2.36e-03 o  ~
  ---------------------------------------------------------------------------------------------

	Writing optimization data to binary file.
	Structure for next step:
	Cartesian Geometry (in Angstrom)
	    O    -0.0000000000   0.0000000000  -1.6854802306
	    C     0.0000000000   0.0000000000  -0.5273128778
	    S    -0.0000000000   0.0000000000   1.0420206678
			--------------------------
			 OPTKING Finished Execution 
			--------------------------

    Structure for next step:
    Molecular point group: c2v
    Full point group: C_inf_v

    Geometry (in Angstrom), charge = 0, multiplicity = 1:

    O            0.000000000000     0.000000000000    -1.685958701176
    C            0.000000000000    -0.000000000000    -0.527791343788
    S            0.000000000000     0.000000000000     1.041542207924

gradient() will perform gradient computation by finite difference of analytic energies.

         ----------------------------------------------------------
                                   FINDIF
                     R. A. King and Jonathon Misiewicz
         ---------------------------------------------------------

  Using finite-differences of energies to determine gradients.
    Generating geometries for use with 3-point formula.
    Displacement size will be 5.00e-03.
    Number of atoms is 3.
    Number of symmetric SALCs is 2.
    Translations projected? 1. Rotations projected? 1.
    Number of geometries (including reference) is 5.

  //>>>>>>>>>>>>>>>>>>>>>>>>>>>>>>>>>>>//
  //    Loading displacement 1 of 5    //
  //<<<<<<<<<<<<<<<<<<<<<<<<<<<<<<<<<<<//

*** tstart() called on bp1-compute00099.data.bp.acrc.priv
*** at Tue Apr 27 18:13:14 2021

   => Loading Basis Set <=

    Name: CC-PV(D+D)Z
    Role: ORBITAL
    Keyword: BASIS
    atoms 1 entry O          line   207 file /work/zw18965/.conda/envs/p4env/share/psi4/basis/cc-pv_dpd_z.gbs 
    atoms 2 entry C          line   147 file /work/zw18965/.conda/envs/p4env/share/psi4/basis/cc-pv_dpd_z.gbs 
    atoms 3 entry S          line   613 file /work/zw18965/.conda/envs/p4env/share/psi4/basis/cc-pv_dpd_z.gbs 


         ---------------------------------------------------------
                                   SCF
               by Justin Turney, Rob Parrish, Andy Simmonett
                          and Daniel G. A. Smith
                              RKS Reference
                       24 Threads, 137329 MiB Core
         ---------------------------------------------------------

  ==> Geometry <==

    Molecular point group: c2v
    Full point group: C_inf_v

    Geometry (in Angstrom), charge = 0, multiplicity = 1:

       Center              X                  Y                   Z               Mass       
    ------------   -----------------  -----------------  -----------------  -----------------
         O            0.000000000000    -0.000000000000    -1.685958701176    15.994914619570
         C            0.000000000000     0.000000000000    -0.527791343788    12.000000000000
         S            0.000000000000    -0.000000000000     1.041542207924    31.972071174400

  Running in c2v symmetry.

  Rotational constants: A = ************  B =      0.20191  C =      0.20191 [cm^-1]
  Rotational constants: A = ************  B =   6053.07786  C =   6053.07786 [MHz]
  Nuclear repulsion =   79.136683486753867

  Charge       = 0
  Multiplicity = 1
  Electrons    = 30
  Nalpha       = 15
  Nbeta        = 15

  ==> Algorithm <==

  SCF Algorithm Type is DF.
  DIIS enabled.
  MOM disabled.
  Fractional occupation disabled.
  Guess Type is READ.
  Energy threshold   = 1.00e-08
  Density threshold  = 1.00e-08
  Integral threshold = 0.00e+00

  ==> Primary Basis <==

  Basis Set: CC-PV(D+D)Z
    Blend: CC-PV(D+D)Z
    Number of shells: 21
    Number of basis function: 51
    Number of Cartesian functions: 55
    Spherical Harmonics?: true
    Max angular momentum: 2

  ==> DFT Potential <==

   => Composite Functional: WB97M-V <= 

    wB97M-V Hyb-GGA Exchange-Correlation Functional

    N. Mardirossian and M. Head-Gordon, J. Chem. Phys. 144, 214110 (2016)

    Deriv               =              1
    GGA                 =           TRUE
    Meta                =           TRUE

    Exchange Hybrid     =           TRUE
    MP2 Hybrid          =          FALSE

   => Exchange-Correlation Functionals <=

    1.0000   wB97M-V exchange-correlation functional

   => Exact (HF) Exchange <=

    0.8500            HF,LR [omega = 0.3000]
    0.1500               HF 

   => VV10 Non-Local Parameters <=

    VV10 B              =     6.0000E+00
    VV10 C              =     1.0000E-02

   => Molecular Quadrature <=

    Radial Scheme          =       TREUTLER
    Pruning Scheme         =           FLAT
    Nuclear Scheme         =       TREUTLER

    BS radius alpha        =              1
    Pruning alpha          =              1
    Radial Points          =             75
    Spherical Points       =            302
    Total Points           =          64118
    Total Blocks           =            557
    Max Points             =            255
    Max Functions          =             51

   => Loading Basis Set <=

    Name: (CC-PV(D+D)Z AUX)
    Role: JKFIT
    Keyword: DF_BASIS_SCF
    atoms 1 entry O          line   221 file /work/zw18965/.conda/envs/p4env/share/psi4/basis/cc-pvdz-jkfit.gbs 
    atoms 2 entry C          line   121 file /work/zw18965/.conda/envs/p4env/share/psi4/basis/cc-pvdz-jkfit.gbs 
    atoms 3 entry S          line   593 file /work/zw18965/.conda/envs/p4env/share/psi4/basis/cc-pvdz-jkfit.gbs 

   => Loading Basis Set <=

    Name: CC-PV(D+D)Z
    Role: ORBITAL
    Keyword: BASIS
    atoms 1 entry O          line   207 file /work/zw18965/.conda/envs/p4env/share/psi4/basis/cc-pv_dpd_z.gbs 
    atoms 2 entry C          line   147 file /work/zw18965/.conda/envs/p4env/share/psi4/basis/cc-pv_dpd_z.gbs 
    atoms 3 entry S          line   613 file /work/zw18965/.conda/envs/p4env/share/psi4/basis/cc-pv_dpd_z.gbs 

  Reading orbitals from file 180, no projection.

  ==> Pre-Iterations <==

   -------------------------------------------------------
    Irrep   Nso     Nmo     Nalpha   Nbeta   Ndocc  Nsocc
   -------------------------------------------------------
     A1        25      25       0       0       0       0
     A2         4       4       0       0       0       0
     B1        11      11       0       0       0       0
     B2        11      11       0       0       0       0
   -------------------------------------------------------
    Total      51      51      15      15      15       0
   -------------------------------------------------------

  ==> Integral Setup <==

  ==> DiskDFJK: Density-Fitted J/K Matrices <==

    J tasked:                  Yes
    K tasked:                  Yes
    wK tasked:                 Yes
    Omega:               3.000E-01
    OpenMP threads:             24
    Integrals threads:          24
    Memory [MiB]:           102777
    Algorithm:                Core
    Integral Cache:           NONE
    Schwarz Cutoff:          1E-12
    Fitting Condition:       1E-10

   => Auxiliary Basis Set <=

  Basis Set: (CC-PV(D+D)Z AUX)
    Blend: CC-PVDZ-JKFIT
    Number of shells: 84
    Number of basis function: 252
    Number of Cartesian functions: 292
    Spherical Harmonics?: true
    Max angular momentum: 3

  Cached 100.0% of DFT collocation blocks in 0.214 [GiB].

  Minimum eigenvalue in the overlap matrix is 7.0352702969E-03.
  Using Symmetric Orthogonalization.

  SCF Guess: Orbitals guess was supplied from a previous computation.

  ==> Iterations <==

                           Total Energy        Delta E     RMS |[F,P]|

   @DF-RKS iter   0:  -511.50494805946317   -5.11505e+02   2.48621e-04 
   @DF-RKS iter   1:  -511.50632143189750   -1.37337e-03   7.31091e-05 DIIS
   @DF-RKS iter   2:  -511.50631991081423    1.52108e-06   1.04963e-04 DIIS
   @DF-RKS iter   3:  -511.50632361286495   -3.70205e-06   7.09992e-06 DIIS
   @DF-RKS iter   4:  -511.50632363373620   -2.08713e-08   1.33415e-06 DIIS
   @DF-RKS iter   5:  -511.50632363639710   -2.66090e-09   4.17322e-07 DIIS
   @DF-RKS iter   6:  -511.50632363656518   -1.68086e-10   9.77764e-08 DIIS
   @DF-RKS iter   7:  -511.50632363657024   -5.05906e-12   5.10797e-08 DIIS
   @DF-RKS iter   8:  -511.50632363657144   -1.19371e-12   3.44771e-09 DIIS
  Energy and wave function converged.


  ==> Post-Iterations <==

    Orbital Energies [Eh]
    ---------------------

    Doubly Occupied:                                                      

       1A1   -89.226724     2A1   -19.437747     3A1   -10.528023  
       4A1    -8.149068     5A1    -6.059957     1B1    -6.052628  
       1B2    -6.052628     6A1    -1.274941     7A1    -0.941219  
       8A1    -0.664399     2B1    -0.587130     2B2    -0.587130  
       9A1    -0.570214     3B1    -0.388785     3B2    -0.388785  

    Virtual:                                                              

       4B2     0.062536     4B1     0.062536    10A1     0.152560  
      11A1     0.279299    12A1     0.499184     5B2     0.531275  
       5B1     0.531275     6B2     0.578237     6B1     0.578237  
      13A1     0.591268     1A2     0.614598    14A1     0.614601  
       7B2     0.715208     7B1     0.715208    15A1     0.824084  
      16A1     0.934835    17A1     0.999199     8B2     1.098273  
       8B1     1.098273     2A2     1.178489    18A1     1.178490  
      19A1     1.261155     9B1     1.529281     9B2     1.529281  
      20A1     1.880161    21A1     2.691544     3A2     2.691547  
      22A1     2.735104    10B1     3.188472    10B2     3.188472  
      23A1     3.560217    24A1     4.516290     4A2     4.516304  
      11B2     4.618072    11B1     4.618072    25A1     4.747443  

    Final Occupation by Irrep:
             A1    A2    B1    B2 
    DOCC [     9,    0,    3,    3 ]

  @DF-RKS Final Energy:  -511.50632363657144

   => Energetics <=

    Nuclear Repulsion Energy =             79.1366834867538671
    One-Electron Energy =                -860.7364455694976186
    Two-Electron Energy =                 299.8754912361667380
    DFT Exchange-Correlation Energy =     -29.9066182445247293
    Empirical Dispersion Energy =           0.0000000000000000
    VV10 Nonlocal Energy =                  0.1245654545302814
    Total Energy =                       -511.5063236365714374

Computation Completed


Properties will be evaluated at   0.000000,   0.000000,   0.000000 [a0]

Properties computed using the SCF density matrix

  Nuclear Dipole Moment: [e a0]
     X:    -0.0000      Y:     0.0000      Z:     0.0194

  Electronic Dipole Moment: [e a0]
     X:     0.0000      Y:     0.0000      Z:     0.1554

  Dipole Moment: [e a0]
     X:    -0.0000      Y:     0.0000      Z:     0.1747     Total:     0.1747

  Dipole Moment: [D]
     X:    -0.0000      Y:     0.0000      Z:     0.4441     Total:     0.4441


*** tstop() called on bp1-compute00099.data.bp.acrc.priv at Tue Apr 27 18:13:16 2021
Module time:
	user time   =      46.62 seconds =       0.78 minutes
	system time =       1.37 seconds =       0.02 minutes
	total time  =          2 seconds =       0.03 minutes
Total time:
	user time   =     387.67 seconds =       6.46 minutes
	system time =      14.41 seconds =       0.24 minutes
	total time  =         17 seconds =       0.28 minutes

  //>>>>>>>>>>>>>>>>>>>>>>>>>>>>>>>>>>>//
  //    Loading displacement 2 of 5    //
  //<<<<<<<<<<<<<<<<<<<<<<<<<<<<<<<<<<<//

*** tstart() called on bp1-compute00099.data.bp.acrc.priv
*** at Tue Apr 27 18:13:16 2021

   => Loading Basis Set <=

    Name: CC-PV(D+D)Z
    Role: ORBITAL
    Keyword: BASIS
    atoms 1 entry O          line   207 file /work/zw18965/.conda/envs/p4env/share/psi4/basis/cc-pv_dpd_z.gbs 
    atoms 2 entry C          line   147 file /work/zw18965/.conda/envs/p4env/share/psi4/basis/cc-pv_dpd_z.gbs 
    atoms 3 entry S          line   613 file /work/zw18965/.conda/envs/p4env/share/psi4/basis/cc-pv_dpd_z.gbs 


         ---------------------------------------------------------
                                   SCF
               by Justin Turney, Rob Parrish, Andy Simmonett
                          and Daniel G. A. Smith
                              RKS Reference
                       24 Threads, 137329 MiB Core
         ---------------------------------------------------------

  ==> Geometry <==

    Molecular point group: c2v
    Full point group: C_inf_v

    Geometry (in Angstrom), charge = 0, multiplicity = 1:

       Center              X                  Y                   Z               Mass       
    ------------   -----------------  -----------------  -----------------  -----------------
         O            0.000000000000    -0.000000000000    -1.686525217627    15.994914619570
         C            0.000000000000     0.000000000000    -0.527585272480    12.000000000000
         S            0.000000000000    -0.000000000000     1.041748279233    31.972071174400

  Running in c2v symmetry.

  Rotational constants: A = ************  B =      0.20181  C =      0.20181 [cm^-1]
  Rotational constants: A = ************  B =   6050.05792  C =   6050.05792 [MHz]
  Nuclear repulsion =   79.115030689667918

  Charge       = 0
  Multiplicity = 1
  Electrons    = 30
  Nalpha       = 15
  Nbeta        = 15

  ==> Algorithm <==

  SCF Algorithm Type is DF.
  DIIS enabled.
  MOM disabled.
  Fractional occupation disabled.
  Guess Type is READ.
  Energy threshold   = 1.00e-08
  Density threshold  = 1.00e-08
  Integral threshold = 0.00e+00

  ==> Primary Basis <==

  Basis Set: CC-PV(D+D)Z
    Blend: CC-PV(D+D)Z
    Number of shells: 21
    Number of basis function: 51
    Number of Cartesian functions: 55
    Spherical Harmonics?: true
    Max angular momentum: 2

  ==> DFT Potential <==

   => Composite Functional: WB97M-V <= 

    wB97M-V Hyb-GGA Exchange-Correlation Functional

    N. Mardirossian and M. Head-Gordon, J. Chem. Phys. 144, 214110 (2016)

    Deriv               =              1
    GGA                 =           TRUE
    Meta                =           TRUE

    Exchange Hybrid     =           TRUE
    MP2 Hybrid          =          FALSE

   => Exchange-Correlation Functionals <=

    1.0000   wB97M-V exchange-correlation functional

   => Exact (HF) Exchange <=

    0.8500            HF,LR [omega = 0.3000]
    0.1500               HF 

   => VV10 Non-Local Parameters <=

    VV10 B              =     6.0000E+00
    VV10 C              =     1.0000E-02

   => Molecular Quadrature <=

    Radial Scheme          =       TREUTLER
    Pruning Scheme         =           FLAT
    Nuclear Scheme         =       TREUTLER

    BS radius alpha        =              1
    Pruning alpha          =              1
    Radial Points          =             75
    Spherical Points       =            302
    Total Points           =          64118
    Total Blocks           =            557
    Max Points             =            255
    Max Functions          =             51

   => Loading Basis Set <=

    Name: (CC-PV(D+D)Z AUX)
    Role: JKFIT
    Keyword: DF_BASIS_SCF
    atoms 1 entry O          line   221 file /work/zw18965/.conda/envs/p4env/share/psi4/basis/cc-pvdz-jkfit.gbs 
    atoms 2 entry C          line   121 file /work/zw18965/.conda/envs/p4env/share/psi4/basis/cc-pvdz-jkfit.gbs 
    atoms 3 entry S          line   593 file /work/zw18965/.conda/envs/p4env/share/psi4/basis/cc-pvdz-jkfit.gbs 

   => Loading Basis Set <=

    Name: CC-PV(D+D)Z
    Role: ORBITAL
    Keyword: BASIS
    atoms 1 entry O          line   207 file /work/zw18965/.conda/envs/p4env/share/psi4/basis/cc-pv_dpd_z.gbs 
    atoms 2 entry C          line   147 file /work/zw18965/.conda/envs/p4env/share/psi4/basis/cc-pv_dpd_z.gbs 
    atoms 3 entry S          line   613 file /work/zw18965/.conda/envs/p4env/share/psi4/basis/cc-pv_dpd_z.gbs 

  Reading orbitals from file 180, no projection.

  ==> Pre-Iterations <==

   -------------------------------------------------------
    Irrep   Nso     Nmo     Nalpha   Nbeta   Ndocc  Nsocc
   -------------------------------------------------------
     A1        25      25       0       0       0       0
     A2         4       4       0       0       0       0
     B1        11      11       0       0       0       0
     B2        11      11       0       0       0       0
   -------------------------------------------------------
    Total      51      51      15      15      15       0
   -------------------------------------------------------

  ==> Integral Setup <==

  ==> DiskDFJK: Density-Fitted J/K Matrices <==

    J tasked:                  Yes
    K tasked:                  Yes
    wK tasked:                 Yes
    Omega:               3.000E-01
    OpenMP threads:             24
    Integrals threads:          24
    Memory [MiB]:           102777
    Algorithm:                Core
    Integral Cache:           NONE
    Schwarz Cutoff:          1E-12
    Fitting Condition:       1E-10

   => Auxiliary Basis Set <=

  Basis Set: (CC-PV(D+D)Z AUX)
    Blend: CC-PVDZ-JKFIT
    Number of shells: 84
    Number of basis function: 252
    Number of Cartesian functions: 292
    Spherical Harmonics?: true
    Max angular momentum: 3

  Cached 100.0% of DFT collocation blocks in 0.214 [GiB].

  Minimum eigenvalue in the overlap matrix is 7.0363901635E-03.
  Using Symmetric Orthogonalization.

  SCF Guess: Orbitals guess was supplied from a previous computation.

  ==> Iterations <==

                           Total Energy        Delta E     RMS |[F,P]|

   @DF-RKS iter   0:  -511.50519591209076   -5.11505e+02   1.02204e-04 
   @DF-RKS iter   1:  -511.50632093260856   -1.12502e-03   4.48424e-05 DIIS
   @DF-RKS iter   2:  -511.50632030165082    6.30958e-07   6.23851e-05 DIIS
   @DF-RKS iter   3:  -511.50632180615901   -1.50451e-06   5.00221e-06 DIIS
   @DF-RKS iter   4:  -511.50632181474583   -8.58682e-09   1.73967e-06 DIIS
   @DF-RKS iter   5:  -511.50632181588423   -1.13840e-09   2.13536e-07 DIIS
   @DF-RKS iter   6:  -511.50632181592829   -4.40536e-11   9.39699e-08 DIIS
   @DF-RKS iter   7:  -511.50632181593261   -4.32010e-12   1.44134e-08 DIIS
   @DF-RKS iter   8:  -511.50632181593284   -2.27374e-13   2.65474e-09 DIIS
  Energy and wave function converged.


  ==> Post-Iterations <==

    Orbital Energies [Eh]
    ---------------------

    Doubly Occupied:                                                      

       1A1   -89.226855     2A1   -19.437692     3A1   -10.528122  
       4A1    -8.149195     5A1    -6.060081     1B1    -6.052757  
       1B2    -6.052757     6A1    -1.274413     7A1    -0.941303  
       8A1    -0.664309     2B2    -0.586822     2B1    -0.586822  
       9A1    -0.570235     3B2    -0.388853     3B1    -0.388853  

    Virtual:                                                              

       4B1     0.062321     4B2     0.062321    10A1     0.152436  
      11A1     0.279250    12A1     0.499100     5B1     0.531295  
       5B2     0.531295     6B1     0.578202     6B2     0.578202  
      13A1     0.591157     1A2     0.614496    14A1     0.614498  
       7B1     0.715077     7B2     0.715077    15A1     0.823326  
      16A1     0.934923    17A1     0.999244     8B1     1.098415  
       8B2     1.098415     2A2     1.178562    18A1     1.178562  
      19A1     1.260532     9B1     1.528809     9B2     1.528809  
      20A1     1.880243    21A1     2.691542     3A2     2.691544  
      22A1     2.733651    10B2     3.187751    10B1     3.187751  
      23A1     3.559293    24A1     4.516162     4A2     4.516176  
      11B2     4.617924    11B1     4.617924    25A1     4.747319  

    Final Occupation by Irrep:
             A1    A2    B1    B2 
    DOCC [     9,    0,    3,    3 ]

  @DF-RKS Final Energy:  -511.50632181593284

   => Energetics <=

    Nuclear Repulsion Energy =             79.1150306896679183
    One-Electron Energy =                -860.6941098577206049
    Two-Electron Energy =                 299.8542051175012375
    DFT Exchange-Correlation Energy =     -29.9060134070420958
    Empirical Dispersion Energy =           0.0000000000000000
    VV10 Nonlocal Energy =                  0.1245656416606921
    Total Energy =                       -511.5063218159328358

Computation Completed


Properties will be evaluated at   0.000000,   0.000000,   0.000000 [a0]

Properties computed using the SCF density matrix

  Nuclear Dipole Moment: [e a0]
     X:    -0.0000      Y:     0.0000      Z:     0.0194

  Electronic Dipole Moment: [e a0]
     X:     0.0000      Y:     0.0000      Z:     0.1579

  Dipole Moment: [e a0]
     X:    -0.0000      Y:     0.0000      Z:     0.1773     Total:     0.1773

  Dipole Moment: [D]
     X:    -0.0000      Y:     0.0000      Z:     0.4506     Total:     0.4506


*** tstop() called on bp1-compute00099.data.bp.acrc.priv at Tue Apr 27 18:13:18 2021
Module time:
	user time   =      48.05 seconds =       0.80 minutes
	system time =       1.61 seconds =       0.03 minutes
	total time  =          2 seconds =       0.03 minutes
Total time:
	user time   =     435.86 seconds =       7.26 minutes
	system time =      16.03 seconds =       0.27 minutes
	total time  =         19 seconds =       0.32 minutes

  //>>>>>>>>>>>>>>>>>>>>>>>>>>>>>>>>>>>//
  //    Loading displacement 3 of 5    //
  //<<<<<<<<<<<<<<<<<<<<<<<<<<<<<<<<<<<//

*** tstart() called on bp1-compute00099.data.bp.acrc.priv
*** at Tue Apr 27 18:13:18 2021

   => Loading Basis Set <=

    Name: CC-PV(D+D)Z
    Role: ORBITAL
    Keyword: BASIS
    atoms 1 entry O          line   207 file /work/zw18965/.conda/envs/p4env/share/psi4/basis/cc-pv_dpd_z.gbs 
    atoms 2 entry C          line   147 file /work/zw18965/.conda/envs/p4env/share/psi4/basis/cc-pv_dpd_z.gbs 
    atoms 3 entry S          line   613 file /work/zw18965/.conda/envs/p4env/share/psi4/basis/cc-pv_dpd_z.gbs 


         ---------------------------------------------------------
                                   SCF
               by Justin Turney, Rob Parrish, Andy Simmonett
                          and Daniel G. A. Smith
                              RKS Reference
                       24 Threads, 137329 MiB Core
         ---------------------------------------------------------

  ==> Geometry <==

    Molecular point group: c2v
    Full point group: C_inf_v

    Geometry (in Angstrom), charge = 0, multiplicity = 1:

       Center              X                  Y                   Z               Mass       
    ------------   -----------------  -----------------  -----------------  -----------------
         O            0.000000000000    -0.000000000000    -1.685392184726    15.994914619570
         C            0.000000000000     0.000000000000    -0.527997415097    12.000000000000
         S            0.000000000000    -0.000000000000     1.041336136616    31.972071174400

  Running in c2v symmetry.

  Rotational constants: A = ************  B =      0.20201  C =      0.20201 [cm^-1]
  Rotational constants: A = ************  B =   6056.09980  C =   6056.09980 [MHz]
  Nuclear repulsion =   79.158359787816693

  Charge       = 0
  Multiplicity = 1
  Electrons    = 30
  Nalpha       = 15
  Nbeta        = 15

  ==> Algorithm <==

  SCF Algorithm Type is DF.
  DIIS enabled.
  MOM disabled.
  Fractional occupation disabled.
  Guess Type is READ.
  Energy threshold   = 1.00e-08
  Density threshold  = 1.00e-08
  Integral threshold = 0.00e+00

  ==> Primary Basis <==

  Basis Set: CC-PV(D+D)Z
    Blend: CC-PV(D+D)Z
    Number of shells: 21
    Number of basis function: 51
    Number of Cartesian functions: 55
    Spherical Harmonics?: true
    Max angular momentum: 2

  ==> DFT Potential <==

   => Composite Functional: WB97M-V <= 

    wB97M-V Hyb-GGA Exchange-Correlation Functional

    N. Mardirossian and M. Head-Gordon, J. Chem. Phys. 144, 214110 (2016)

    Deriv               =              1
    GGA                 =           TRUE
    Meta                =           TRUE

    Exchange Hybrid     =           TRUE
    MP2 Hybrid          =          FALSE

   => Exchange-Correlation Functionals <=

    1.0000   wB97M-V exchange-correlation functional

   => Exact (HF) Exchange <=

    0.8500            HF,LR [omega = 0.3000]
    0.1500               HF 

   => VV10 Non-Local Parameters <=

    VV10 B              =     6.0000E+00
    VV10 C              =     1.0000E-02

   => Molecular Quadrature <=

    Radial Scheme          =       TREUTLER
    Pruning Scheme         =           FLAT
    Nuclear Scheme         =       TREUTLER

    BS radius alpha        =              1
    Pruning alpha          =              1
    Radial Points          =             75
    Spherical Points       =            302
    Total Points           =          64110
    Total Blocks           =            558
    Max Points             =            255
    Max Functions          =             51

   => Loading Basis Set <=

    Name: (CC-PV(D+D)Z AUX)
    Role: JKFIT
[...]
      29Ap     1.880055    30Ap     2.691470    12App    2.691473  
      31Ap     2.735129    13App    3.188476    32Ap     3.188477  
      33Ap     3.560399    34Ap     4.516330    14App    4.516344  
      15App    4.618059    35Ap     4.618059    36Ap     4.747485  

    Final Occupation by Irrep:
             Ap   App 
    DOCC [    12,    3 ]

  @DF-RKS Final Energy:  -511.50632380047961

   => Energetics <=

    Nuclear Repulsion Energy =             79.1282738717755336
    One-Electron Energy =                -860.7191430357635227
    Two-Electron Energy =                 299.8665136565194871
    DFT Exchange-Correlation Energy =     -29.9065341057213345
    Empirical Dispersion Energy =           0.0000000000000000
    VV10 Nonlocal Energy =                  0.1245658127103169
    Total Energy =                       -511.5063238004795494

Computation Completed


Properties will be evaluated at   0.000000,   0.000000,   0.000000 [a0]

Properties computed using the SCF density matrix

  Nuclear Dipole Moment: [e a0]
     X:    -0.0000      Y:     0.0000      Z:     0.0194

  Electronic Dipole Moment: [e a0]
     X:     0.0004      Y:     0.0000      Z:     0.1538

  Dipole Moment: [e a0]
     X:     0.0004      Y:     0.0000      Z:     0.1732     Total:     0.1732

  Dipole Moment: [D]
     X:     0.0010      Y:     0.0000      Z:     0.4401     Total:     0.4402


*** tstop() called on bp1-compute00099.data.bp.acrc.priv at Tue Apr 27 18:14:14 2021
Module time:
	user time   =      70.94 seconds =       1.18 minutes
	system time =       2.17 seconds =       0.04 minutes
	total time  =          3 seconds =       0.05 minutes
Total time:
	user time   =    1720.74 seconds =      28.68 minutes
	system time =      55.06 seconds =       0.92 minutes
	total time  =         75 seconds =       1.25 minutes

  //>>>>>>>>>>>>>>>>>>>>>>>>>>>>>>>>>>>//
  //    Loading displacement 9 of 9    //
  //<<<<<<<<<<<<<<<<<<<<<<<<<<<<<<<<<<<//

*** tstart() called on bp1-compute00099.data.bp.acrc.priv
*** at Tue Apr 27 18:14:14 2021

   => Loading Basis Set <=

    Name: CC-PV(D+D)Z
    Role: ORBITAL
    Keyword: BASIS
    atoms 1 entry O          line   207 file /work/zw18965/.conda/envs/p4env/share/psi4/basis/cc-pv_dpd_z.gbs 
    atoms 2 entry C          line   147 file /work/zw18965/.conda/envs/p4env/share/psi4/basis/cc-pv_dpd_z.gbs 
    atoms 3 entry S          line   613 file /work/zw18965/.conda/envs/p4env/share/psi4/basis/cc-pv_dpd_z.gbs 


         ---------------------------------------------------------
                                   SCF
               by Justin Turney, Rob Parrish, Andy Simmonett
                          and Daniel G. A. Smith
                              RKS Reference
                       24 Threads, 137329 MiB Core
         ---------------------------------------------------------

  ==> Geometry <==

    Molecular point group: cs
    Full point group: Cs

    Geometry (in Angstrom), charge = 0, multiplicity = 1:

       Center              X                  Y                   Z               Mass       
    ------------   -----------------  -----------------  -----------------  -----------------
         O            0.000000000000    -0.000287459201    -1.686058895446    15.994914619570
         C            0.000000000000     0.000665785281    -0.528110598033    12.000000000000
         S            0.000000000000    -0.000106078145     1.041712157806    31.972071174400

  Running in cs symmetry.

  Rotational constants: A = 2407987.46702  B =      0.20186  C =      0.20186 [cm^-1]
  Rotational constants: A = 72189648157.17372  B =   6051.57250  C =   6051.57200 [MHz]
  Nuclear repulsion =   79.128273871775534

  Charge       = 0
  Multiplicity = 1
  Electrons    = 30
  Nalpha       = 15
  Nbeta        = 15

  ==> Algorithm <==

  SCF Algorithm Type is DF.
  DIIS enabled.
  MOM disabled.
  Fractional occupation disabled.
  Guess Type is SAD.
  Energy threshold   = 1.00e-10
  Density threshold  = 1.00e-10
  Integral threshold = 0.00e+00

  ==> Primary Basis <==

  Basis Set: CC-PV(D+D)Z
    Blend: CC-PV(D+D)Z
    Number of shells: 21
    Number of basis function: 51
    Number of Cartesian functions: 55
    Spherical Harmonics?: true
    Max angular momentum: 2

  ==> DFT Potential <==

   => Composite Functional: WB97M-V <= 

    wB97M-V Hyb-GGA Exchange-Correlation Functional

    N. Mardirossian and M. Head-Gordon, J. Chem. Phys. 144, 214110 (2016)

    Deriv               =              1
    GGA                 =           TRUE
    Meta                =           TRUE

    Exchange Hybrid     =           TRUE
    MP2 Hybrid          =          FALSE

   => Exchange-Correlation Functionals <=

    1.0000   wB97M-V exchange-correlation functional

   => Exact (HF) Exchange <=

    0.8500            HF,LR [omega = 0.3000]
    0.1500               HF 

   => VV10 Non-Local Parameters <=

    VV10 B              =     6.0000E+00
    VV10 C              =     1.0000E-02

   => Molecular Quadrature <=

    Radial Scheme          =       TREUTLER
    Pruning Scheme         =           FLAT
    Nuclear Scheme         =       TREUTLER

    BS radius alpha        =              1
    Pruning alpha          =              1
    Radial Points          =             75
    Spherical Points       =            302
    Total Points           =          64116
    Total Blocks           =            556
    Max Points             =            256
    Max Functions          =             51

   => Loading Basis Set <=

    Name: (CC-PV(D+D)Z AUX)
    Role: JKFIT
    Keyword: DF_BASIS_SCF
    atoms 1 entry O          line   221 file /work/zw18965/.conda/envs/p4env/share/psi4/basis/cc-pvdz-jkfit.gbs 
    atoms 2 entry C          line   121 file /work/zw18965/.conda/envs/p4env/share/psi4/basis/cc-pvdz-jkfit.gbs 
    atoms 3 entry S          line   593 file /work/zw18965/.conda/envs/p4env/share/psi4/basis/cc-pvdz-jkfit.gbs 

  ==> Pre-Iterations <==

   -------------------------------------------------------
    Irrep   Nso     Nmo     Nalpha   Nbeta   Ndocc  Nsocc
   -------------------------------------------------------
     A'        36      36       0       0       0       0
     A"        15      15       0       0       0       0
   -------------------------------------------------------
    Total      51      51      15      15      15       0
   -------------------------------------------------------

  ==> Integral Setup <==

  ==> DiskDFJK: Density-Fitted J/K Matrices <==

    J tasked:                  Yes
    K tasked:                  Yes
    wK tasked:                 Yes
    Omega:               3.000E-01
    OpenMP threads:             24
    Integrals threads:          24
    Memory [MiB]:           102777
    Algorithm:                Core
    Integral Cache:           NONE
    Schwarz Cutoff:          1E-12
    Fitting Condition:       1E-10

   => Auxiliary Basis Set <=

  Basis Set: (CC-PV(D+D)Z AUX)
    Blend: CC-PVDZ-JKFIT
    Number of shells: 84
    Number of basis function: 252
    Number of Cartesian functions: 292
    Spherical Harmonics?: true
    Max angular momentum: 3

  Cached 100.0% of DFT collocation blocks in 0.214 [GiB].

  Minimum eigenvalue in the overlap matrix is 7.0445488401E-03.
  Using Symmetric Orthogonalization.

  SCF Guess: Superposition of Atomic Densities via on-the-fly atomic UHF.

  ==> Iterations <==

                           Total Energy        Delta E     RMS |[F,P]|

   @DF-RKS iter SAD:  -510.99971840985188   -5.11000e+02   0.00000e+00 
   @DF-RKS iter   1:  -511.44600885135361   -4.46290e-01   1.00762e-02 DIIS
   @DF-RKS iter   2:  -511.39284373443786    5.31651e-02   1.44862e-02 DIIS
   @DF-RKS iter   3:  -511.50515626761830   -1.12313e-01   1.06573e-03 DIIS
   @DF-RKS iter   4:  -511.50609932725780   -9.43060e-04   5.00564e-04 DIIS
   @DF-RKS iter   5:  -511.50629729849197   -1.97971e-04   1.31208e-04 DIIS
   @DF-RKS iter   6:  -511.50632199424820   -2.46958e-05   3.65349e-05 DIIS
   @DF-RKS iter   7:  -511.50632372665626   -1.73241e-06   6.35256e-06 DIIS
   @DF-RKS iter   8:  -511.50632379879096   -7.21347e-08   9.72889e-07 DIIS
   @DF-RKS iter   9:  -511.50632380014940   -1.35844e-09   2.31808e-07 DIIS
   @DF-RKS iter  10:  -511.50632380019198   -4.25757e-11   4.29123e-08 DIIS
   @DF-RKS iter  11:  -511.50632380019334   -1.36424e-12   5.82488e-09 DIIS
   @DF-RKS iter  12:  -511.50632380019346   -1.13687e-13   9.48121e-10 DIIS
   @DF-RKS iter  13:  -511.50632380019340    5.68434e-14   9.28230e-11 DIIS
  Energy and wave function converged.


  ==> Post-Iterations <==

    Orbital Energies [Eh]
    ---------------------

    Doubly Occupied:                                                      

       1Ap   -89.226714     2Ap   -19.437852     3Ap   -10.528083  
       4Ap    -8.149035     5Ap    -6.059929     1App   -6.052594  
       6Ap    -6.052594     7Ap    -1.275160     8Ap    -0.941044  
       9Ap    -0.664495    10Ap    -0.587241     2App   -0.587241  
      11Ap    -0.570201     3App   -0.388731    12Ap    -0.388731  

    Virtual:                                                              

      13Ap     0.062537     4App    0.062538    14Ap     0.152407  
      15Ap     0.279348    16Ap     0.499256     5App    0.531305  
      17Ap     0.531305    18Ap     0.578177     6App    0.578178  
      19Ap     0.591241     7App    0.614681    20Ap     0.614683  
       8App    0.715193    21Ap     0.715193    22Ap     0.824201  
      23Ap     0.934716    24Ap     0.998960     9App    1.098174  
      25Ap     1.098175    10App    1.178408    26Ap     1.178409  
      27Ap     1.260960    11App    1.529135    28Ap     1.529137  
      29Ap     1.880055    30Ap     2.691470    12App    2.691473  
      31Ap     2.735129    13App    3.188476    32Ap     3.188477  
      33Ap     3.560399    34Ap     4.516330    14App    4.516344  
      15App    4.618059    35Ap     4.618059    36Ap     4.747485  

    Final Occupation by Irrep:
             Ap   App 
    DOCC [    12,    3 ]

  @DF-RKS Final Energy:  -511.50632380019340

   => Energetics <=

    Nuclear Repulsion Energy =             79.1282738717755336
    One-Electron Energy =                -860.7191430357279387
    Two-Electron Energy =                 299.8665136567664717
    DFT Exchange-Correlation Energy =     -29.9065341057177534
    Empirical Dispersion Energy =           0.0000000000000000
    VV10 Nonlocal Energy =                  0.1245658127103086
    Total Energy =                       -511.5063238001933996

Computation Completed


Properties will be evaluated at   0.000000,   0.000000,   0.000000 [a0]

Properties computed using the SCF density matrix

  Nuclear Dipole Moment: [e a0]
     X:     0.0000      Y:    -0.0000      Z:     0.0194

  Electronic Dipole Moment: [e a0]
     X:     0.0000      Y:     0.0004      Z:     0.1538

  Dipole Moment: [e a0]
     X:     0.0000      Y:     0.0004      Z:     0.1732     Total:     0.1732

  Dipole Moment: [D]
     X:     0.0000      Y:     0.0010      Z:     0.4401     Total:     0.4402


*** tstop() called on bp1-compute00099.data.bp.acrc.priv at Tue Apr 27 18:14:17 2021
Module time:
	user time   =      71.00 seconds =       1.18 minutes
	system time =       2.20 seconds =       0.04 minutes
	total time  =          3 seconds =       0.05 minutes
Total time:
	user time   =    1791.86 seconds =      29.86 minutes
	system time =      57.27 seconds =       0.95 minutes
	total time  =         78 seconds =       1.30 minutes

         ----------------------------------------------------------
                                   FINDIF
                     R. A. King and Jonathon Misiewicz
         ---------------------------------------------------------

  Computing second-derivative from energies using projected, 
  symmetry-adapted, cartesian coordinates.

  9 energies passed in, including the reference geometry.
    Using 3-point formula.
    Energy without displacement: -511.5063239328
    Check energies below for precision!
    0: -1        :      -511.5063226809
    0: 1         :      -511.5063228197
    1: -1        :      -511.5063225951
    1: 1         :      -511.5063224820
    0: 1, 1: 1   :      -511.5063231807
    0: -1, 1: -1 :      -511.5063231534
    2: -1        :      -511.5063238005
    3: -1        :      -511.5063238002

-------------------------------------------------------------


  ==> Harmonic Vibrational Analysis <==

  non-mass-weighted Hessian:       Symmetric? True   Hermitian? True   Lin Dep Dim?  5 (0)
  projection of translations (True) and rotations (True) removed 5 degrees of freedom (5)
  total projector:                 Symmetric? True   Hermitian? True   Lin Dep Dim?  5 (5)
  mass-weighted Hessian:           Symmetric? True   Hermitian? True   Lin Dep Dim?  5 (0)
  pre-proj  low-frequency mode:    0.0000i [cm^-1]
  pre-proj  low-frequency mode:    0.0000i [cm^-1]
  pre-proj  low-frequency mode:    0.0000  [cm^-1]
  pre-proj  low-frequency mode:    0.0000  [cm^-1]
  pre-proj  low-frequency mode:    0.0000  [cm^-1]
  pre-proj  all modes:['0.0000i' '0.0000i' '0.0000' '0.0000' '0.0000' '528.8091' '529.3809'
 '892.3707' '2156.5695']
  projected mass-weighted Hessian: Symmetric? True   Hermitian? True   Lin Dep Dim?  5 (5)
  post-proj low-frequency mode:    0.0000i [cm^-1] (TR)
  post-proj low-frequency mode:    0.0000i [cm^-1] (TR)
  post-proj low-frequency mode:    0.0000i [cm^-1] (TR)
  post-proj low-frequency mode:    0.0000  [cm^-1] (TR)
  post-proj low-frequency mode:    0.0000  [cm^-1] (TR)
  post-proj  all modes:['0.0000i' '0.0000i' '0.0000i' '0.0000' '0.0000' '528.8091' '529.3809'
 '892.3707' '2156.5695']

  Vibration                       6                   7                   8           
  Freq [cm^-1]                 528.8091            529.3809            892.3707       
  Irrep                           B1                  B2                  A1          
  Reduced mass [u]             13.0329             13.0329             19.6043        
  Force const [mDyne/A]         2.1473              2.1519              9.1980        
  Turning point v=0 [a0]        0.1322              0.1321              0.0830        
  RMS dev v=0 [a0 u^1/2]        0.3374              0.3372              0.2597        
  Char temp [K]                760.8386            761.6612           1283.9228       
  ----------------------------------------------------------------------------------
      1   O               -0.39 -0.00 -0.00    0.00 -0.39 -0.00   -0.00 -0.00 -0.71   
      2   C                0.91  0.00 -0.00   -0.00  0.91  0.00   -0.00 -0.00 -0.47   
      3   S               -0.14  0.00 -0.00    0.00 -0.14  0.00   -0.00 -0.00  0.53   

  Vibration                       9           
  Freq [cm^-1]                2156.5695       
  Irrep                           A1          
  Reduced mass [u]             13.1417        
  Force const [mDyne/A]        36.0104        
  Turning point v=0 [a0]        0.0652        
  RMS dev v=0 [a0 u^1/2]        0.1671        
  Char temp [K]               3102.8234       
  ----------------------------------------------------------------------------------
      1   O               -0.00  0.00 -0.52   
      2   C               -0.00 -0.00  0.85   
      3   S               -0.00 -0.00 -0.06   

  ==> Thermochemistry Components <==

  Entropy, S
    Electronic S            0.000 [cal/(mol K)]        0.000 [J/(mol K)]       0.00000000 [mEh/K] (multiplicity = 1)
    Translational S        38.194 [cal/(mol K)]      159.802 [J/(mol K)]       0.06086550 [mEh/K] (mol. weight = 59.9670 [u], P = 101325.00 [Pa])
    Rotational S           15.766 [cal/(mol K)]       65.967 [J/(mol K)]       0.02512544 [mEh/K] (symmetry no. = 1)
    Vibrational S           1.323 [cal/(mol K)]        5.536 [J/(mol K)]       0.00210846 [mEh/K]
  Total S                  55.283 [cal/(mol K)]      231.305 [J/(mol K)]       0.08809941 [mEh/K]
  Correction S              0.000 [cal/(mol K)]        0.000 [J/(mol K)]       0.00000000 [mEh/K]

  Constant volume heat capacity, Cv
    Electronic Cv           0.000 [cal/(mol K)]        0.000 [J/(mol K)]       0.00000000 [mEh/K]
    Translational Cv        2.981 [cal/(mol K)]       12.472 [J/(mol K)]       0.00475022 [mEh/K]
    Rotational Cv           1.987 [cal/(mol K)]        8.314 [J/(mol K)]       0.00316681 [mEh/K]
    Vibrational Cv          2.888 [cal/(mol K)]       12.085 [J/(mol K)]       0.00460278 [mEh/K]
  Total Cv                  7.856 [cal/(mol K)]       32.871 [J/(mol K)]       0.01251981 [mEh/K]
  Correction Cv             0.000 [cal/(mol K)]        0.000 [J/(mol K)]       0.00000000 [mEh/K]

  Constant pressure heat capacity, Cp
    Electronic Cp           0.000 [cal/(mol K)]        0.000 [J/(mol K)]       0.00000000 [mEh/K]
    Translational Cp        4.968 [cal/(mol K)]       20.786 [J/(mol K)]       0.00791703 [mEh/K]
    Rotational Cp           1.987 [cal/(mol K)]        8.314 [J/(mol K)]       0.00316681 [mEh/K]
    Vibrational Cp          2.888 [cal/(mol K)]       12.085 [J/(mol K)]       0.00460278 [mEh/K]
  Total Cp                  9.844 [cal/(mol K)]       41.185 [J/(mol K)]       0.01568662 [mEh/K]
  Correction Cp             0.000 [cal/(mol K)]        0.000 [J/(mol K)]       0.00000000 [mEh/K]

  ==> Thermochemistry Energy Analysis <==

  Raw electronic energy, E0
  Total E0, Electronic energy at well bottom at 0 [K]                 -511.50632393 [Eh]

  Zero-point energy, ZPE_vib = Sum_i nu_i / 2
    Electronic ZPE          0.000 [kcal/mol]        0.000 [kJ/mol]       0.00000000 [Eh]
    Translational ZPE       0.000 [kcal/mol]        0.000 [kJ/mol]       0.00000000 [Eh]
    Rotational ZPE          0.000 [kcal/mol]        0.000 [kJ/mol]       0.00000000 [Eh]
    Vibrational ZPE         5.871 [kcal/mol]       24.566 [kJ/mol]       0.00935673 [Eh]        2053.565 [cm^-1]
  Correction ZPE            5.871 [kcal/mol]       24.566 [kJ/mol]       0.00935673 [Eh]        2053.565 [cm^-1]
  Total ZPE, Electronic energy at 0 [K]                               -511.49696720 [Eh]

  Thermal Energy, E (includes ZPE)
    Electronic E            0.000 [kcal/mol]        0.000 [kJ/mol]       0.00000000 [Eh]
    Translational E         0.889 [kcal/mol]        3.718 [kJ/mol]       0.00141628 [Eh]
    Rotational E            0.592 [kcal/mol]        2.479 [kJ/mol]       0.00094418 [Eh]
    Vibrational E           6.162 [kcal/mol]       25.781 [kJ/mol]       0.00981952 [Eh]
  Correction E              7.643 [kcal/mol]       31.979 [kJ/mol]       0.01217998 [Eh]
  Total E, Electronic energy at  298.15 [K]                           -511.49414395 [Eh]

  Enthalpy, H_trans = E_trans + k_B * T
    Electronic H            0.000 [kcal/mol]        0.000 [kJ/mol]       0.00000000 [Eh]
    Translational H         1.481 [kcal/mol]        6.197 [kJ/mol]       0.00236046 [Eh]
    Rotational H            0.592 [kcal/mol]        2.479 [kJ/mol]       0.00094418 [Eh]
    Vibrational H           6.162 [kcal/mol]       25.781 [kJ/mol]       0.00981952 [Eh]
  Correction H              8.236 [kcal/mol]       34.457 [kJ/mol]       0.01312416 [Eh]
  Total H, Enthalpy at  298.15 [K]                                    -511.49319977 [Eh]

  Gibbs free energy, G = H - T * S
    Electronic G            0.000 [kcal/mol]        0.000 [kJ/mol]       0.00000000 [Eh]
    Translational G        -9.906 [kcal/mol]      -41.448 [kJ/mol]      -0.01578659 [Eh]
    Rotational G           -4.108 [kcal/mol]      -17.189 [kJ/mol]      -0.00654697 [Eh]
    Vibrational G           5.767 [kcal/mol]       24.131 [kJ/mol]       0.00919088 [Eh]
  Correction G             -8.247 [kcal/mol]      -34.506 [kJ/mol]      -0.01314267 [Eh]
  Total G, Free enthalpy at  298.15 [K]                               -511.51946661 [Eh]

    Psi4 stopped on: Tuesday, 27 April 2021 06:14PM
    Psi4 wall time for execution: 0:01:18.45

*** Psi4 exiting successfully. Buy a developer a beer!
