
    -----------------------------------------------------------------------
          Psi4: An Open-Source Ab Initio Electronic Structure Package
                               Psi4 1.3.2 release

                         Git: Rev {HEAD} ecbda83 


    R. M. Parrish, L. A. Burns, D. G. A. Smith, A. C. Simmonett,
    A. E. DePrince III, E. G. Hohenstein, U. Bozkaya, A. Yu. Sokolov,
    R. Di Remigio, R. M. Richard, J. F. Gonthier, A. M. James,
    H. R. McAlexander, A. Kumar, M. Saitow, X. Wang, B. P. Pritchard,
    P. Verma, H. F. Schaefer III, K. Patkowski, R. A. King, E. F. Valeev,
    F. A. Evangelista, J. M. Turney, T. D. Crawford, and C. D. Sherrill,
    J. Chem. Theory Comput. 13(7) pp 3185--3197 (2017).
    (doi: 10.1021/acs.jctc.7b00174)


                         Additional Contributions by
    P. Kraus, H. Kruse, M. H. Lechner, M. C. Schieber, R. A. Shaw,
    A. Alenaizan, R. Galvelis, Z. L. Glick, S. Lehtola, and J. P. Misiewicz

    -----------------------------------------------------------------------


    Psi4 started on: Tuesday, 27 April 2021 06:13PM

    Process ID: 191364
    Host:       bp1-compute00107.data.bp.acrc.priv
    PSIDATADIR: /work/zw18965/.conda/envs/p4env/share/psi4
    Memory:     500.0 MiB
    Threads:    24
    
  ==> Input File <==

--------------------------------------------------------------------------
memory 144 GB

molecule {
0 1
S 0.0000000000 0.0000000000 0.0000000000
O 0.0000000000 0.0000000000 1.4355085900
O 1.2508167239 0.0000000000 -0.7043737894
}

set dynamic_level 1
set basis cc-pV(D+d)Z
 
optimize("wB97M-V")
frequencies("wB97M-V")
--------------------------------------------------------------------------

  Memory set to 134.110 GiB by Python driver.
gradient() will perform gradient computation by finite difference of analytic energies.

         ----------------------------------------------------------
                                   FINDIF
                     R. A. King and Jonathon Misiewicz
         ---------------------------------------------------------

  Using finite-differences of energies to determine gradients.
    Generating geometries for use with 3-point formula.
    Displacement size will be 5.00e-03.
    Number of atoms is 3.
    Number of symmetric SALCs is 2.
    Translations projected? 1. Rotations projected? 1.
    Number of geometries (including reference) is 5.

  //>>>>>>>>>>>>>>>>>>>>>>>>>>>>>>>>>>>//
  //    Loading displacement 1 of 5    //
  //<<<<<<<<<<<<<<<<<<<<<<<<<<<<<<<<<<<//

*** tstart() called on bp1-compute00107.data.bp.acrc.priv
*** at Tue Apr 27 18:13:26 2021

   => Loading Basis Set <=

    Name: CC-PV(D+D)Z
    Role: ORBITAL
    Keyword: BASIS
    atoms 1   entry S          line   613 file /work/zw18965/.conda/envs/p4env/share/psi4/basis/cc-pv_dpd_z.gbs 
    atoms 2-3 entry O          line   207 file /work/zw18965/.conda/envs/p4env/share/psi4/basis/cc-pv_dpd_z.gbs 


         ---------------------------------------------------------
                                   SCF
               by Justin Turney, Rob Parrish, Andy Simmonett
                          and Daniel G. A. Smith
                              RKS Reference
                       24 Threads, 137329 MiB Core
         ---------------------------------------------------------

  ==> Geometry <==

    Molecular point group: c2v
    Full point group: C2v

    Geometry (in Angstrom), charge = 0, multiplicity = 1:

       Center              X                  Y                   Z               Mass       
    ------------   -----------------  -----------------  -----------------  -----------------
         S           -0.000000000000     0.000000000000    -0.362307388741    31.972071174400
         O           -0.000000000000     1.239318267683     0.362106266127    15.994914619570
         O            0.000000000000    -1.239318267683     0.362106266127    15.994914619570

  Running in c2v symmetry.

  Rotational constants: A =      2.00892  B =      0.34310  C =      0.29305 [cm^-1]
  Rotational constants: A =  60225.80440  B =  10285.83551  C =   8785.39654 [MHz]
  Nuclear repulsion =  108.033990949454420

  Charge       = 0
  Multiplicity = 1
  Electrons    = 32
  Nalpha       = 16
  Nbeta        = 16

  ==> Algorithm <==

  SCF Algorithm Type is DF.
  DIIS enabled.
  MOM disabled.
  Fractional occupation disabled.
  Guess Type is SAD.
  Energy threshold   = 1.00e-08
  Density threshold  = 1.00e-08
  Integral threshold = 0.00e+00

  ==> Primary Basis <==

  Basis Set: CC-PV(D+D)Z
    Blend: CC-PV(D+D)Z
    Number of shells: 21
    Number of basis function: 51
    Number of Cartesian functions: 55
    Spherical Harmonics?: true
    Max angular momentum: 2

  ==> DFT Potential <==

   => Composite Functional: WB97M-V <= 

    wB97M-V Hyb-GGA Exchange-Correlation Functional

    N. Mardirossian and M. Head-Gordon, J. Chem. Phys. 144, 214110 (2016)

    Deriv               =              1
    GGA                 =           TRUE
    Meta                =           TRUE

    Exchange Hybrid     =           TRUE
    MP2 Hybrid          =          FALSE

   => Exchange-Correlation Functionals <=

    1.0000   wB97M-V exchange-correlation functional

   => Exact (HF) Exchange <=

    0.8500            HF,LR [omega = 0.3000]
    0.1500               HF 

   => VV10 Non-Local Parameters <=

    VV10 B              =     6.0000E+00
    VV10 C              =     1.0000E-02

   => Molecular Quadrature <=

    Radial Scheme          =       TREUTLER
    Pruning Scheme         =           FLAT
    Nuclear Scheme         =       TREUTLER

    BS radius alpha        =              1
    Pruning alpha          =              1
    Radial Points          =             75
    Spherical Points       =            302
    Total Points           =          64327
    Total Blocks           =            555
    Max Points             =            256
    Max Functions          =             51

   => Loading Basis Set <=

    Name: (CC-PV(D+D)Z AUX)
    Role: JKFIT
    Keyword: DF_BASIS_SCF
    atoms 1   entry S          line   593 file /work/zw18965/.conda/envs/p4env/share/psi4/basis/cc-pvdz-jkfit.gbs 
    atoms 2-3 entry O          line   221 file /work/zw18965/.conda/envs/p4env/share/psi4/basis/cc-pvdz-jkfit.gbs 

  ==> Pre-Iterations <==

   -------------------------------------------------------
    Irrep   Nso     Nmo     Nalpha   Nbeta   Ndocc  Nsocc
   -------------------------------------------------------
     A1        21      21       0       0       0       0
     A2         6       6       0       0       0       0
     B1         9       9       0       0       0       0
     B2        15      15       0       0       0       0
   -------------------------------------------------------
    Total      51      51      16      16      16       0
   -------------------------------------------------------

  ==> Integral Setup <==

  ==> DiskDFJK: Density-Fitted J/K Matrices <==

    J tasked:                  Yes
    K tasked:                  Yes
    wK tasked:                 Yes
    Omega:               3.000E-01
    OpenMP threads:             24
    Integrals threads:          24
    Memory [MiB]:           102774
    Algorithm:                Core
    Integral Cache:           NONE
    Schwarz Cutoff:          1E-12
    Fitting Condition:       1E-10

   => Auxiliary Basis Set <=

  Basis Set: (CC-PV(D+D)Z AUX)
    Blend: CC-PVDZ-JKFIT
    Number of shells: 84
    Number of basis function: 252
    Number of Cartesian functions: 292
    Spherical Harmonics?: true
    Max angular momentum: 3

  Cached 100.0% of DFT collocation blocks in 0.217 [GiB].

  Minimum eigenvalue in the overlap matrix is 2.0324581711E-02.
  Using Symmetric Orthogonalization.

  SCF Guess: Superposition of Atomic Densities via on-the-fly atomic UHF.

  ==> Iterations <==

                           Total Energy        Delta E     RMS |[F,P]|

   @DF-RKS iter SAD:  -548.38382029372258   -5.48384e+02   0.00000e+00 
   @DF-RKS iter   1:  -548.38909993411096   -5.27964e-03   2.36463e-02 DIIS
   @DF-RKS iter   2:  -548.30227703287756    8.68229e-02   3.02757e-02 DIIS
   @DF-RKS iter   3:  -548.56357664032907   -2.61300e-01   1.07007e-03 DIIS
   @DF-RKS iter   4:  -548.56393677557253   -3.60135e-04   2.54906e-04 DIIS
   @DF-RKS iter   5:  -548.56398149230267   -4.47167e-05   4.89070e-05 DIIS
   @DF-RKS iter   6:  -548.56398431966568   -2.82736e-06   1.29259e-05 DIIS
   @DF-RKS iter   7:  -548.56398456800753   -2.48342e-07   3.71212e-06 DIIS
   @DF-RKS iter   8:  -548.56398458089438   -1.28869e-08   7.49440e-07 DIIS
   @DF-RKS iter   9:  -548.56398458141393   -5.19549e-10   1.66724e-07 DIIS
   @DF-RKS iter  10:  -548.56398458145077   -3.68345e-11   3.99809e-08 DIIS
   @DF-RKS iter  11:  -548.56398458145270   -1.93268e-12   7.11314e-09 DIIS
  Energy and wave function converged.


  ==> Post-Iterations <==

    Orbital Energies [Eh]
    ---------------------

    Doubly Occupied:                                                      

       1A1   -89.379240     1B2   -19.393914     2A1   -19.393901  
       3A1    -8.281348     2B2    -6.190385     1B1    -6.190340  
       4A1    -6.185156     5A1    -1.272822     3B2    -1.177809  
       6A1    -0.745119     7A1    -0.597472     2B1    -0.597190  
       4B2    -0.591569     1A2    -0.461881     5B2    -0.451809  
       8A1    -0.421710  

    Virtual:                                                              

       3B1    -0.021501     9A1     0.163445     6B2     0.182578  
       4B1     0.495936    10A1     0.504078    11A1     0.530957  
       7B2     0.570428     5B1     0.600621    12A1     0.626812  
       2A2     0.634467    13A1     0.834346     8B2     0.870501  
       3A2     1.048119    14A1     1.054035     6B1     1.124448  
      15A1     1.131313     9B2     1.132400    10B2     1.268783  
      11B2     1.732814    16A1     1.873754     4A2     2.650984  
      12B2     2.653073     7B1     2.658656    17A1     2.673102  
      13B2     2.705537     8B1     2.790209     5A2     2.841741  
      18A1     2.960261    19A1     3.329963    14B2     3.424266  
       9B1     4.456880    20A1     4.484497     6A2     4.547717  
      15B2     4.690241    21A1     4.696270  

    Final Occupation by Irrep:
             A1    A2    B1    B2 
    DOCC [     8,    1,    2,    5 ]

  @DF-RKS Final Energy:  -548.56398458145270

   => Energetics <=

    Nuclear Repulsion Energy =            108.0339909494544202
    One-Electron Energy =                -970.2392637689598587
    Two-Electron Energy =                 345.9084449010763933
    DFT Exchange-Correlation Energy =     -32.3999568872655175
    Empirical Dispersion Energy =           0.0000000000000000
    VV10 Nonlocal Energy =                  0.1328002242418321
    Total Energy =                       -548.5639845814527007

Computation Completed


Properties will be evaluated at   0.000000,   0.000000,   0.000000 [a0]

Properties computed using the SCF density matrix

  Nuclear Dipole Moment: [e a0]
     X:     0.0000      Y:     0.0000      Z:    -0.0061

  Electronic Dipole Moment: [e a0]
     X:     0.0000      Y:     0.0000      Z:    -0.6905

  Dipole Moment: [e a0]
     X:     0.0000      Y:     0.0000      Z:    -0.6966     Total:     0.6966

  Dipole Moment: [D]
     X:     0.0000      Y:     0.0000      Z:    -1.7705     Total:     1.7705


*** tstop() called on bp1-compute00107.data.bp.acrc.priv at Tue Apr 27 18:13:29 2021
Module time:
	user time   =      64.37 seconds =       1.07 minutes
	system time =       2.92 seconds =       0.05 minutes
	total time  =          3 seconds =       0.05 minutes
Total time:
	user time   =      64.37 seconds =       1.07 minutes
	system time =       2.92 seconds =       0.05 minutes
	total time  =          3 seconds =       0.05 minutes

  //>>>>>>>>>>>>>>>>>>>>>>>>>>>>>>>>>>>//
  //    Loading displacement 2 of 5    //
  //<<<<<<<<<<<<<<<<<<<<<<<<<<<<<<<<<<<//

*** tstart() called on bp1-compute00107.data.bp.acrc.priv
*** at Tue Apr 27 18:13:29 2021

   => Loading Basis Set <=

    Name: CC-PV(D+D)Z
    Role: ORBITAL
    Keyword: BASIS
    atoms 1   entry S          line   613 file /work/zw18965/.conda/envs/p4env/share/psi4/basis/cc-pv_dpd_z.gbs 
    atoms 2-3 entry O          line   207 file /work/zw18965/.conda/envs/p4env/share/psi4/basis/cc-pv_dpd_z.gbs 


         ---------------------------------------------------------
                                   SCF
               by Justin Turney, Rob Parrish, Andy Simmonett
                          and Daniel G. A. Smith
                              RKS Reference
                       24 Threads, 137329 MiB Core
         ---------------------------------------------------------

  ==> Geometry <==

    Molecular point group: c2v
    Full point group: C2v

    Geometry (in Angstrom), charge = 0, multiplicity = 1:

       Center              X                  Y                   Z               Mass       
    ------------   -----------------  -----------------  -----------------  -----------------
         S           -0.000000000000     0.000000000000    -0.362638314850    31.972071174400
         O           -0.000000000000     1.239318267683     0.362437008534    15.994914619570
         O            0.000000000000    -1.239318267683     0.362437008534    15.994914619570

  Running in c2v symmetry.

  Rotational constants: A =      2.00525  B =      0.34310  C =      0.29297 [cm^-1]
  Rotational constants: A =  60115.93627  B =  10285.83551  C =   8783.05498 [MHz]
  Nuclear repulsion =  108.012037764378604

  Charge       = 0
  Multiplicity = 1
  Electrons    = 32
  Nalpha       = 16
  Nbeta        = 16

  ==> Algorithm <==

  SCF Algorithm Type is DF.
  DIIS enabled.
  MOM disabled.
  Fractional occupation disabled.
  Guess Type is SAD.
  Energy threshold   = 1.00e-08
  Density threshold  = 1.00e-08
  Integral threshold = 0.00e+00

  ==> Primary Basis <==

  Basis Set: CC-PV(D+D)Z
    Blend: CC-PV(D+D)Z
    Number of shells: 21
    Number of basis function: 51
    Number of Cartesian functions: 55
    Spherical Harmonics?: true
    Max angular momentum: 2

  ==> DFT Potential <==

   => Composite Functional: WB97M-V <= 

    wB97M-V Hyb-GGA Exchange-Correlation Functional

    N. Mardirossian and M. Head-Gordon, J. Chem. Phys. 144, 214110 (2016)

    Deriv               =              1
    GGA                 =           TRUE
    Meta                =           TRUE

    Exchange Hybrid     =           TRUE
    MP2 Hybrid          =          FALSE

   => Exchange-Correlation Functionals <=

    1.0000   wB97M-V exchange-correlation functional

   => Exact (HF) Exchange <=

    0.8500            HF,LR [omega = 0.3000]
    0.1500               HF 

   => VV10 Non-Local Parameters <=

    VV10 B              =     6.0000E+00
    VV10 C              =     1.0000E-02

   => Molecular Quadrature <=

    Radial Scheme          =       TREUTLER
    Pruning Scheme         =           FLAT
    Nuclear Scheme         =       TREUTLER

    BS radius alpha        =              1
    Pruning alpha          =              1
    Radial Points          =             75
    Spherical Points       =            302
    Total Points           =          64327
    Total Blocks           =            556
    Max Points             =            256
    Max Functions          =             51

   => Loading Basis Set <=

    Name: (CC-PV(D+D)Z AUX)
    Role: JKFIT
    Keyword: DF_BASIS_SCF
    atoms 1   entry S          line   593 file /work/zw18965/.conda/envs/p4env/share/psi4/basis/cc-pvdz-jkfit.gbs 
    atoms 2-3 entry O          line   221 file /work/zw18965/.conda/envs/p4env/share/psi4/basis/cc-pvdz-jkfit.gbs 

  ==> Pre-Iterations <==

   -------------------------------------------------------
    Irrep   Nso     Nmo     Nalpha   Nbeta   Ndocc  Nsocc
   -------------------------------------------------------
     A1        21      21       0       0       0       0
     A2         6       6       0       0       0       0
     B1         9       9       0       0       0       0
     B2        15      15       0       0       0       0
   -------------------------------------------------------
    Total      51      51      16      16      16       0
   -------------------------------------------------------

  ==> Integral Setup <==

  ==> DiskDFJK: Density-Fitted J/K Matrices <==

    J tasked:                  Yes
    K tasked:                  Yes
    wK tasked:                 Yes
    Omega:               3.000E-01
    OpenMP threads:             24
    Integrals threads:          24
    Memory [MiB]:           102774
    Algorithm:                Core
    Integral Cache:           NONE
    Schwarz Cutoff:          1E-12
    Fitting Condition:       1E-10

   => Auxiliary Basis Set <=

  Basis Set: (CC-PV(D+D)Z AUX)
    Blend: CC-PVDZ-JKFIT
    Number of shells: 84
    Number of basis function: 252
    Number of Cartesian functions: 292
    Spherical Harmonics?: true
    Max angular momentum: 3

  Cached 100.0% of DFT collocation blocks in 0.217 [GiB].

  Minimum eigenvalue in the overlap matrix is 2.0329623058E-02.
  Using Symmetric Orthogonalization.

  SCF Guess: Superposition of Atomic Densities via on-the-fly atomic UHF.

  ==> Iterations <==

                           Total Energy        Delta E     RMS |[F,P]|

   @DF-RKS iter SAD:  -548.38238525167151   -5.48382e+02   0.00000e+00 
   @DF-RKS iter   1:  -548.38898699237211   -6.60174e-03   2.36519e-02 DIIS
   @DF-RKS iter   2:  -548.30182831713796    8.71587e-02   3.02990e-02 DIIS
   @DF-RKS iter   3:  -548.56358405275023   -2.61756e-01   1.07021e-03 DIIS
   @DF-RKS iter   4:  -548.56394410678956   -3.60054e-04   2.55122e-04 DIIS
   @DF-RKS iter   5:  -548.56398881361793   -4.47068e-05   4.89285e-05 DIIS
   @DF-RKS iter   6:  -548.56399163937783   -2.82576e-06   1.29235e-05 DIIS
   @DF-RKS iter   7:  -548.56399188732632   -2.47948e-07   3.71993e-06 DIIS
   @DF-RKS iter   8:  -548.56399190025047   -1.29241e-08   7.50161e-07 DIIS
   @DF-RKS iter   9:  -548.56399190076991   -5.19435e-10   1.66649e-07 DIIS
   @DF-RKS iter  10:  -548.56399190080754   -3.76303e-11   3.99828e-08 DIIS
   @DF-RKS iter  11:  -548.56399190080879   -1.25056e-12   7.12152e-09 DIIS
  Energy and wave function converged.


  ==> Post-Iterations <==

    Orbital Energies [Eh]
    ---------------------

    Doubly Occupied:                                                      

       1A1   -89.379310     1B2   -19.393923     2A1   -19.393910  
       3A1    -8.281409     2B2    -6.190445     1B1    -6.190402  
       4A1    -6.185220     5A1    -1.272651     3B2    -1.177631  
       6A1    -0.745216     7A1    -0.597391     2B1    -0.597091  
       4B2    -0.591515     1A2    -0.461771     5B2    -0.451697  
       8A1    -0.421764  

    Virtual:                                                              

       3B1    -0.021641     9A1     0.163415     6B2     0.182290  
       4B1     0.495923    10A1     0.504028    11A1     0.530915  
       7B2     0.570300     5B1     0.600607    12A1     0.626872  
       2A2     0.634264    13A1     0.834138     8B2     0.870453  
       3A2     1.048223    14A1     1.053962     6B1     1.124405  
      15A1     1.130966     9B2     1.132525    10B2     1.268572  
      11B2     1.732614    16A1     1.873835     4A2     2.651066  
      12B2     2.653164     7B1     2.658714    17A1     2.673141  
      13B2     2.705324     8B1     2.790162     5A2     2.841392  
      18A1     2.960049    19A1     3.329488    14B2     3.423890  
       9B1     4.456885    20A1     4.484567     6A2     4.547508  
      15B2     4.690234    21A1     4.695928  

    Final Occupation by Irrep:
             A1    A2    B1    B2 
    DOCC [     8,    1,    2,    5 ]

  @DF-RKS Final Energy:  -548.56399190080879

   => Energetics <=

    Nuclear Repulsion Energy =            108.0120377643786043
    One-Electron Energy =                -970.1962491125927954
    Two-Electron Energy =                 345.8869659842864621
    DFT Exchange-Correlation Energy =     -32.3995472946225078
    Empirical Dispersion Energy =           0.0000000000000000
    VV10 Nonlocal Energy =                  0.1328007577413767
    Total Energy =                       -548.5639919008087872

Computation Completed


Properties will be evaluated at   0.000000,   0.000000,   0.000000 [a0]

Properties computed using the SCF density matrix

  Nuclear Dipole Moment: [e a0]
     X:     0.0000      Y:     0.0000      Z:    -0.0061

  Electronic Dipole Moment: [e a0]
     X:     0.0000      Y:     0.0000      Z:    -0.6919

  Dipole Moment: [e a0]
     X:     0.0000      Y:     0.0000      Z:    -0.6980     Total:     0.6980

  Dipole Moment: [D]
     X:     0.0000      Y:     0.0000      Z:    -1.7740     Total:     1.7740


*** tstop() called on bp1-compute00107.data.bp.acrc.priv at Tue Apr 27 18:13:31 2021
Module time:
	user time   =      64.41 seconds =       1.07 minutes
	system time =       2.33 seconds =       0.04 minutes
	total time  =          2 seconds =       0.03 minutes
Total time:
	user time   =     128.94 seconds =       2.15 minutes
	system time =       5.26 seconds =       0.09 minutes
	total time  =          5 seconds =       0.08 minutes

  //>>>>>>>>>>>>>>>>>>>>>>>>>>>>>>>>>>>//
  //    Loading displacement 3 of 5    //
  //<<<<<<<<<<<<<<<<<<<<<<<<<<<<<<<<<<<//

*** tstart() called on bp1-compute00107.data.bp.acrc.priv
*** at Tue Apr 27 18:13:31 2021

   => Loading Basis Set <=

    Name: CC-PV(D+D)Z
    Role: ORBITAL
    Keyword: BASIS
    atoms 1   entry S          line   613 file /work/zw18965/.conda/envs/p4env/share/psi4/basis/cc-pv_dpd_z.gbs 
    atoms 2-3 entry O          line   207 file /work/zw18965/.conda/envs/p4env/share/psi4/basis/cc-pv_dpd_z.gbs 


         ---------------------------------------------------------
                                   SCF
               by Justin Turney, Rob Parrish, Andy Simmonett
                          and Daniel G. A. Smith
                              RKS Reference
                       24 Threads, 137329 MiB Core
         ---------------------------------------------------------

  ==> Geometry <==

    Molecular point group: c2v
    Full point group: C2v

    Geometry (in Angstrom), charge = 0, multiplicity = 1:

       Center              X                  Y                   Z               Mass       
    ------------   -----------------  -----------------  -----------------  -----------------
         S           -0.000000000000     0.000000000000    -0.361976462632    31.972071174400
         O           -0.000000000000     1.239318267683     0.361775523720    15.994914619570
         O            0.000000000000    -1.239318267683     0.361775523720    15.994914619570

  Running in c2v symmetry.

  Rotational constants: A =      2.01259  B =      0.34310  C =      0.29313 [cm^-1]
  Rotational constants: A =  60335.97400  B =  10285.83551  C =   8787.73722 [MHz]
  Nuclear repulsion =  108.055939402465469

  Charge       = 0
  Multiplicity = 1
  Electrons    = 32
  Nalpha       = 16
  Nbeta        = 16

  ==> Algorithm <==

  SCF Algorithm Type is DF.
  DIIS enabled.
  MOM disabled.
  Fractional occupation disabled.
  Guess Type is SAD.
  Energy threshold   = 1.00e-08
  Density threshold  = 1.00e-08
  Integral threshold = 0.00e+00

  ==> Primary Basis <==

  Basis Set: CC-PV(D+D)Z
    Blend: CC-PV(D+D)Z
    Number of shells: 21
    Number of basis function: 51
    Number of Cartesian functions: 55
    Spherical Harmonics?: true
    Max angular momentum: 2

  ==> DFT Potential <==

   => Composite Functional: WB97M-V <= 

    wB97M-V Hyb-GGA Exchange-Correlation Functional

    N. Mardirossian and M. Head-Gordon, J. Chem. Phys. 144, 214110 (2016)

    Deriv               =              1
    GGA                 =           TRUE
    Meta                =           TRUE

    Exchange Hybrid     =           TRUE
    MP2 Hybrid          =          FALSE

   => Exchange-Correlation Functionals <=

    1.0000   wB97M-V exchange-correlation functional

   => Exact (HF) Exchange <=

    0.8500            HF,LR [omega = 0.3000]
    0.1500               HF 

   => VV10 Non-Local Parameters <=

    VV10 B              =     6.0000E+00
    VV10 C              =     1.0000E-02

   => Molecular Quadrature <=

    Radial Scheme          =       TREUTLER
    Pruning Scheme         =           FLAT
    Nuclear Scheme         =       TREUTLER

    BS radius alpha        =              1
    Pruning alpha          =              1
    Radial Points          =             75
    Spherical Points       =            302
    Total Points           =          64327
    Total Blocks           =            555
    Max Points             =            256
    Max Functions          =             51

   => Loading Basis Set <=

    Name: (CC-PV(D+D)Z AUX)
    Role: JKFIT
    Keyword: DF_BASIS_SCF
    atoms 1   entry S          line   593 file /work/zw18965/.conda/envs/p4env/share/psi4/basis/cc-pvdz-jkfit.gbs 
    atoms 2-3 entry O          line   221 file /work/zw18965/.conda/envs/p4env/share/psi4/basis/cc-pvdz-jkfit.gbs 

  ==> Pre-Iterations <==

   -------------------------------------------------------
    Irrep   Nso     Nmo     Nalpha   Nbeta   Ndocc  Nsocc
   -------------------------------------------------------
     A1        21      21       0       0       0       0
     A2         6       6       0       0       0       0
     B1         9       9       0       0       0       0
     B2        15      15       0       0       0       0
   -------------------------------------------------------
    Total      51      51      16      16      16       0
   -------------------------------------------------------

  ==> Integral Setup <==

  ==> DiskDFJK: Density-Fitted J/K Matrices <==

    J tasked:                  Yes
    K tasked:                  Yes
    wK tasked:                 Yes
    Omega:               3.000E-01
    OpenMP threads:             24
    Integrals threads:          24
    Memory [MiB]:           102774
    Algorithm:                Core
    Integral Cache:           NONE
    Schwarz Cutoff:          1E-12
    Fitting Condition:       1E-10

   => Auxiliary Basis Set <=

  Basis Set: (CC-PV(D+D)Z AUX)
    Blend: CC-PVDZ-JKFIT
    Number of shells: 84
    Number of basis function: 252
    Number of Cartesian functions: 292
    Spherical Harmonics?: true
    Max angular momentum: 3

  Cached 100.0% of DFT collocation blocks in 0.217 [GiB].

  Minimum eigenvalue in the overlap matrix is 2.0319549041E-02.
  Using Symmetric Orthogonalization.

  SCF Guess: Superposition of Atomic Densities via on-the-fly atomic UHF.

  ==> Iterations <==

                           Total Energy        Delta E     RMS |[F,P]|

   @DF-RKS iter SAD:  -548.38525414534035   -5.48385e+02   0.00000e+00 
   @DF-RKS iter   1:  -548.38921163126281   -3.95749e-03   2.36406e-02 DIIS
   @DF-RKS iter   2:  -548.30272341288310    8.64882e-02   3.02525e-02 DIIS
   @DF-RKS iter   3:  -548.56356845974938   -2.60845e-01   1.06993e-03 DIIS
   @DF-RKS iter   4:  -548.56392867966076   -3.60220e-04   2.54693e-04 DIIS
   @DF-RKS iter   5:  -548.56397340740568   -4.47277e-05   4.88865e-05 DIIS
   @DF-RKS iter   6:  -548.56397623649218   -2.82909e-06   1.29284e-05 DIIS
   @DF-RKS iter   7:  -548.56397648523637   -2.48744e-07   3.70432e-06 DIIS
   @DF-RKS iter   8:  -548.56397649808650   -1.28501e-08   7.48728e-07 DIIS
   @DF-RKS iter   9:  -548.56397649860514   -5.18639e-10   1.66799e-07 DIIS
   @DF-RKS iter  10:  -548.56397649864266   -3.75167e-11   3.99783e-08 DIIS
   @DF-RKS iter  11:  -548.56397649864414   -1.47793e-12   7.10471e-09 DIIS
  Energy and wave function converged.


  ==> Post-Iterations <==

    Orbital Energies [Eh]
    ---------------------

    Doubly Occupied:                                                      

       1A1   -89.379170     1B2   -19.393905     2A1   -19.393892  
       3A1    -8.281287     2B2    -6.190326     1B1    -6.190277  
       4A1    -6.185093     5A1    -1.272993     3B2    -1.177987  
       6A1    -0.745021     7A1    -0.597553     2B1    -0.597290  
       4B2    -0.591624     1A2    -0.461992     5B2    -0.451920  
       8A1    -0.421655  

    Virtual:                                                              

       3B1    -0.021362     9A1     0.163475     6B2     0.182867  
       4B1     0.495949    10A1     0.504129    11A1     0.530998  
       7B2     0.570556     5B1     0.600634    12A1     0.626752  
       2A2     0.634670    13A1     0.834553     8B2     0.870550  
       3A2     1.048015    14A1     1.054108     6B1     1.124492  
      15A1     1.131662     9B2     1.132275    10B2     1.268995  
      11B2     1.733015    16A1     1.873674     4A2     2.650902  
      12B2     2.652981     7B1     2.658599    17A1     2.673063  
      13B2     2.705750     8B1     2.790256     5A2     2.842090  
      18A1     2.960472    19A1     3.330438    14B2     3.424642  
       9B1     4.456876    20A1     4.484426     6A2     4.547927  
      15B2     4.690249    21A1     4.696611  

    Final Occupation by Irrep:
             A1    A2    B1    B2 
    DOCC [     8,    1,    2,    5 ]

  @DF-RKS Final Energy:  -548.56397649864414

   => Energetics <=

    Nuclear Repulsion Energy =            108.0559394024654694
    One-Electron Energy =                -970.2822685328819716
    Two-Electron Energy =                 345.9299194494675476
    DFT Exchange-Correlation Energy =     -32.4003665086103396
    Empirical Dispersion Energy =           0.0000000000000000
    VV10 Nonlocal Energy =                  0.1327996909151241
    Total Energy =                       -548.5639764986441378

Computation Completed


Properties will be evaluated at   0.000000,   0.000000,   0.000000 [a0]

Properties computed using the SCF density matrix

  Nuclear Dipole Moment: [e a0]
     X:     0.0000      Y:     0.0000      Z:    -0.0061

  Electronic Dipole Moment: [e a0]
     X:     0.0000      Y:     0.0000      Z:    -0.6891

  Dipole Moment: [e a0]
     X:     0.0000      Y:     0.0000      Z:    -0.6952     Total:     0.6952

  Dipole Moment: [D]
     X:     0.0000      Y:     0.0000      Z:    -1.7669     Total:     1.7669


*** tstop() called on bp1-compute00107.data.bp.acrc.priv at Tue Apr 27 18:13:34 2021
Module time:
	user time   =      61.05 seconds =       1.02 minutes
	system time =       1.73 seconds =       0.03 minutes
	total time  =          3 seconds =       0.05 minutes
Total time:
	user time   =     190.16 seconds =       3.17 minutes
	system time =       7.00 seconds =       0.12 minutes
	total time  =          8 seconds =       0.13 minutes

  //>>>>>>>>>>>>>>>>>>>>>>>>>>>>>>>>>>>//
  //    Loading displacement 4 of 5    //
  //<<<<<<<<<<<<<<<<<<<<<<<<<<<<<<<<<<<//

*** tstart() called on bp1-compute00107.data.bp.acrc.priv
*** at Tue Apr 27 18:13:34 2021

   => Loading Basis Set <=

    Name: CC-PV(D+D)Z
    Role: ORBITAL
    Keyword: BASIS
    atoms 1   entry S          line   613 file /work/zw18965/.conda/envs/p4env/share/psi4/basis/cc-pv_dpd_z.gbs 
    atoms 2-3 entry O          line   207 file /work/zw18965/.conda/envs/p4env/share/psi4/basis/cc-pv_dpd_z.gbs 


         ---------------------------------------------------------
                                   SCF
               by Justin Turney, Rob Parrish, Andy Simmonett
                          and Daniel G. A. Smith
                              RKS Reference
                       24 Threads, 137329 MiB Core
         ---------------------------------------------------------

  ==> Geometry <==

    Molecular point group: c2v
    Full point group: C2v

    Geometry (in Angstrom), charge = 0, multiplicity = 1:

       Center              X                  Y                   Z               Mass       
    ------------   -----------------  -----------------  -----------------  -----------------
         S            0.000000000000     0.000000000000    -0.362307388741    31.972071174400
         O           -0.000000000000     1.238850462342     0.362106266127    15.994914619570
         O            0.000000000000    -1.238850462342     0.362106266127    15.994914619570

  Running in c2v symmetry.

  Rotational constants: A =      2.00892  B =      0.34336  C =      0.29324 [cm^-1]
  Rotational constants: A =  60225.80440  B =  10293.60510  C =   8791.06407 [MHz]
  Nuclear repulsion =  108.065707167490743

  Charge       = 0
  Multiplicity = 1
  Electrons    = 32
  Nalpha       = 16
  Nbeta        = 16

  ==> Algorithm <==

  SCF Algorithm Type is DF.
  DIIS enabled.
  MOM disabled.
  Fractional occupation disabled.
  Guess Type is SAD.
  Energy threshold   = 1.00e-08
  Density threshold  = 1.00e-08
  Integral threshold = 0.00e+00

  ==> Primary Basis <==

  Basis Set: CC-PV(D+D)Z
    Blend: CC-PV(D+D)Z
    Number of shells: 21
    Number of basis function: 51
    Number of Cartesian functions: 55
    Spherical Harmonics?: true
    Max angular momentum: 2

  ==> DFT Potential <==

   => Composite Functional: WB97M-V <= 

    wB97M-V Hyb-GGA Exchange-Correlation Functional

    N. Mardirossian and M. Head-Gordon, J. Chem. Phys. 144, 214110 (2016)

    Deriv               =              1
    GGA                 =           TRUE
    Meta                =           TRUE

    Exchange Hybrid     =           TRUE
    MP2 Hybrid          =          FALSE

   => Exchange-Correlation Functionals <=

    1.0000   wB97M-V exchange-correlation functional

   => Exact (HF) Exchange <=

    0.8500            HF,LR [omega = 0.3000]
    0.1500               HF 

   => VV10 Non-Local Parameters <=

    VV10 B              =     6.0000E+00
    VV10 C              =     1.0000E-02

   => Molecular Quadrature <=

    Radial Scheme          =       TREUTLER
    Pruning Scheme         =           FLAT
    Nuclear Scheme         =       TREUTLER

    BS radius alpha        =              1
    Pruning alpha          =              1
    Radial Points          =             75
    Spherical Points       =            302
    Total Points           =          64327
    Total Blocks           =            556
    Max Points             =            256
    Max Functions          =             51

   => Loading Basis Set <=

    Name: (CC-PV(D+D)Z AUX)
    Role: JKFIT
    Keyword: DF_BASIS_SCF
    atoms 1   entry S          line   593 file /work/zw18965/.conda/envs/p4env/share/psi4/basis/cc-pvdz-jkfit.gbs 
    atoms 2-3 entry O          line   221 file /work/zw18965/.conda/envs/p4env/share/psi4/basis/cc-pvdz-jkfit.gbs 

  ==> Pre-Iterations <==

   -------------------------------------------------------
    Irrep   Nso     Nmo     Nalpha   Nbeta   Ndocc  Nsocc
   -------------------------------------------------------
     A1        21      21       0       0       0       0
     A2         6       6       0       0       0       0
     B1         9       9       0       0       0       0
     B2        15      15       0       0       0       0
   -------------------------------------------------------
    Total      51      51      16      16      16       0
   -------------------------------------------------------

  ==> Integral Setup <==

  ==> DiskDFJK: Density-Fitted J/K Matrices <==

    J tasked:                  Yes
    K tasked:                  Yes
    wK tasked:                 Yes
    Omega:               3.000E-01
    OpenMP threads:             24
    Integrals threads:          24
    Memory [MiB]:           102774
    Algorithm:                Core
    Integral Cache:           NONE
    Schwarz Cutoff:          1E-12
    Fitting Condition:       1E-10

   => Auxiliary Basis Set <=

  Basis Set: (CC-PV(D+D)Z AUX)
    Blend: CC-PVDZ-JKFIT
    Number of shells: 84
    Number of basis function: 252
    Number of Cartesian functions: 292
    Spherical Harmonics?: true
    Max angular momentum: 3

  Cached 100.0% of DFT collocation blocks in 0.217 [GiB].

  Minimum eigenvalue in the overlap matrix is 2.0306417462E-02.
  Using Symmetric Orthogonalization.

  SCF Guess: Superposition of Atomic Densities via on-the-fly atomic UHF.

  ==> Iterations <==

                           Total Energy        Delta E     RMS |[F,P]|

   @DF-RKS iter SAD:  -548.38558730638533   -5.48386e+02   0.00000e+00 
   @DF-RKS iter   1:  -548.38914516415844   -3.55786e-03   2.36448e-02 DIIS
   @DF-RKS iter   2:  -548.30261151237823    8.65337e-02   3.02589e-02 DIIS
   @DF-RKS iter   3:  -548.56356744181278   -2.60956e-01   1.06972e-03 DIIS
   @DF-RKS iter   4:  -548.56392741929074   -3.59977e-04   2.54713e-04 DIIS
   @DF-RKS iter   5:  -548.56397207776104   -4.46585e-05   4.88360e-05 DIIS
   @DF-RKS iter   6:  -548.56397489647770   -2.81872e-06   1.29022e-05 DIIS
   @DF-RKS iter   7:  -548.56397514385026   -2.47373e-07   3.69863e-06 DIIS
   @DF-RKS iter   8:  -548.56397515663832   -1.27881e-08   7.47546e-07 DIIS
   @DF-RKS iter   9:  -548.56397515715378   -5.15456e-10   1.66348e-07 DIIS
   @DF-RKS iter  10:  -548.56397515719050   -3.67208e-11   3.98605e-08 DIIS
   @DF-RKS iter  11:  -548.56397515719209   -1.59162e-12   7.09113e-09 DIIS
  Energy and wave function converged.


  ==> Post-Iterations <==

    Orbital Energies [Eh]
    ---------------------

    Doubly Occupied:                                                      

       1A1   -89.379154     1B2   -19.393843     2A1   -19.393830  
       3A1    -8.281284     2B2    -6.190322     1B1    -6.190274  
       4A1    -6.185090     5A1    -1.273037     3B2    -1.177936  
       6A1    -0.745016     7A1    -0.597569     2B1    -0.597305  
       4B2    -0.591584     1A2    -0.461944     5B2    -0.451826  
       8A1    -0.421720  

    Virtual:                                                              

       3B1    -0.021363     9A1     0.163683     6B2     0.182663  
       4B1     0.495931    10A1     0.504106    11A1     0.531097  
       7B2     0.570507     5B1     0.600724    12A1     0.626972  
       2A2     0.634625    13A1     0.834460     8B2     0.870634  
       3A2     1.048110    14A1     1.053914     6B1     1.124439  
      15A1     1.131486     9B2     1.132546    10B2     1.269390  
      11B2     1.732853    16A1     1.873793     4A2     2.650935  
      12B2     2.653048     7B1     2.658624    17A1     2.673108  
      13B2     2.705567     8B1     2.790511     5A2     2.842003  
      18A1     2.960828    19A1     3.330425    14B2     3.424776  
       9B1     4.457008    20A1     4.484648     6A2     4.547790  
      15B2     4.690275    21A1     4.696354  

    Final Occupation by Irrep:
             A1    A2    B1    B2 
    DOCC [     8,    1,    2,    5 ]

  @DF-RKS Final Energy:  -548.56397515719209

   => Energetics <=

    Nuclear Repulsion Energy =            108.0657071674907428
    One-Electron Energy =                -970.3022280714355929
    Two-Electron Energy =                 345.9402410120986815
    DFT Exchange-Correlation Energy =     -32.4004942084871388
    Empirical Dispersion Energy =           0.0000000000000000
    VV10 Nonlocal Energy =                  0.1327989431413235
    Total Energy =                       -548.5639751571919760

Computation Completed


Properties will be evaluated at   0.000000,   0.000000,   0.000000 [a0]

Properties computed using the SCF density matrix

  Nuclear Dipole Moment: [e a0]
     X:     0.0000      Y:     0.0000      Z:    -0.0061

  Electronic Dipole Moment: [e a0]
     X:     0.0000      Y:     0.0000      Z:    -0.6904

  Dipole Moment: [e a0]
     X:     0.0000      Y:     0.0000      Z:    -0.6965     Total:     0.6965

  Dipole Moment: [D]
     X:     0.0000      Y:     0.0000      Z:    -1.7702     Total:     1.7702


*** tstop() called on bp1-compute00107.data.bp.acrc.priv at Tue Apr 27 18:13:37 2021
Module time:
	user time   =      60.84 seconds =       1.01 minutes
	system time =       1.88 seconds =       0.03 minutes
	total time  =          3 seconds =       0.05 minutes
Total time:
	user time   =     251.13 seconds =       4.19 minutes
	system time =       8.89 seconds =       0.15 minutes
	total time  =         11 seconds =       0.18 minutes

  //>>>>>>>>>>>>>>>>>>>>>>>>>>>>>>>>>>>//
  //    Loading displacement 5 of 5    //
  //<<<<<<<<<<<<<<<<<<<<<<<<<<<<<<<<<<<//

*** tstart() called on bp1-compute00107.data.bp.acrc.priv
*** at Tue Apr 27 18:13:37 2021

   => Loading Basis Set <=

    Name: CC-PV(D+D)Z
    Role: ORBITAL
    Keyword: BASIS
    atoms 1   entry S          line   613 file /work/zw18965/.conda/envs/p4env/share/psi4/basis/cc-pv_dpd_z.gbs 
    atoms 2-3 entry O          line   207 file /work/zw18965/.conda/envs/p4env/share/psi4/basis/cc-pv_dpd_z.gbs 


         ---------------------------------------------------------
                                   SCF
               by Justin Turney, Rob Parrish, Andy Simmonett
                          and Daniel G. A. Smith
                              RKS Reference
                       24 Threads, 137329 MiB Core
         ---------------------------------------------------------

  ==> Geometry <==

    Molecular point group: c2v
    Full point group: C2v

    Geometry (in Angstrom), charge = 0, multiplicity = 1:

       Center              X                  Y                   Z               Mass       
    ------------   -----------------  -----------------  -----------------  -----------------
         S            0.000000000000     0.000000000000    -0.362307388741    31.972071174400
         O           -0.000000000000     1.239786073025     0.362106266127    15.994914619570
         O            0.000000000000    -1.239786073025     0.362106266127    15.994914619570

  Running in c2v symmetry.

  Rotational constants: A =      2.00892  B =      0.34284  C =      0.29286 [cm^-1]
  Rotational constants: A =  60225.80440  B =  10278.07472  C =   8779.73418 [MHz]
  Nuclear repulsion =  108.002291012488911

  Charge       = 0
  Multiplicity = 1
  Electrons    = 32
  Nalpha       = 16
  Nbeta        = 16

  ==> Algorithm <==

  SCF Algorithm Type is DF.
  DIIS enabled.
  MOM disabled.
  Fractional occupation disabled.
  Guess Type is SAD.
  Energy threshold   = 1.00e-08
  Density threshold  = 1.00e-08
  Integral threshold = 0.00e+00

  ==> Primary Basis <==

  Basis Set: CC-PV(D+D)Z
    Blend: CC-PV(D+D)Z
    Number of shells: 21
    Number of basis function: 51
    Number of Cartesian functions: 55
    Spherical Harmonics?: true
    Max angular momentum: 2

  ==> DFT Potential <==

   => Composite Functional: WB97M-V <= 

    wB97M-V Hyb-GGA Exchange-Correlation Functional

    N. Mardirossian and M. Head-Gordon, J. Chem. Phys. 144, 214110 (2016)

    Deriv               =              1
    GGA                 =           TRUE
    Meta                =           TRUE

    Exchange Hybrid     =           TRUE
    MP2 Hybrid          =          FALSE

   => Exchange-Correlation Functionals <=

    1.0000   wB97M-V exchange-correlation functional

   => Exact (HF) Exchange <=

    0.8500            HF,LR [omega = 0.3000]
    0.1500               HF 

   => VV10 Non-Local Parameters <=

    VV10 B              =     6.0000E+00
    VV10 C              =     1.0000E-02

   => Molecular Quadrature <=

    Radial Scheme          =       TREUTLER
    Pruning Scheme         =           FLAT
    Nuclear Scheme         =       TREUTLER

    BS radius alpha        =              1
    Pruning alpha          =              1
    Radial Points          =             75
    Spherical Points       =            302
    Total Points           =          64327
    Total Blocks           =            555
    Max Points             =            256
    Max Functions          =             51

   => Loading Basis Set <=

    Name: (CC-PV(D+D)Z AUX)
    Role: JKFIT
    Keyword: DF_BASIS_SCF
    atoms 1   entry S          line   593 file /work/zw18965/.conda/envs/p4env/share/psi4/basis/cc-pvdz-jkfit.gbs 
    atoms 2-3 entry O          line   221 file /work/zw18965/.conda/envs/p4env/share/psi4/basis/cc-pvdz-jkfit.gbs 

  ==> Pre-Iterations <==

   -------------------------------------------------------
    Irrep   Nso     Nmo     Nalpha   Nbeta   Ndocc  Nsocc
   -------------------------------------------------------
     A1        21      21       0       0       0       0
     A2         6       6       0       0       0       0
     B1         9       9       0       0       0       0
     B2        15      15       0       0       0       0
   -------------------------------------------------------
    Total      51      51      16      16      16       0
   -------------------------------------------------------

  ==> Integral Setup <==

  ==> DiskDFJK: Density-Fitted J/K Matrices <==

    J tasked:                  Yes
    K tasked:                  Yes
    wK tasked:                 Yes
    Omega:               3.000E-01
    OpenMP threads:             24
    Integrals threads:          24
    Memory [MiB]:           102774
    Algorithm:                Core
    Integral Cache:           NONE
    Schwarz Cutoff:          1E-12
    Fitting Condition:       1E-10

   => Auxiliary Basis Set <=

  Basis Set: (CC-PV(D+D)Z AUX)
    Blend: CC-PVDZ-JKFIT
    Number of shells: 84
    Number of basis function: 252
    Number of Cartesian functions: 292
    Spherical Harmonics?: true
    Max angular momentum: 3

  Cached 100.0% of DFT collocation blocks in 0.217 [GiB].

  Minimum eigenvalue in the overlap matrix is 2.0342771325E-02.
  Using Symmetric Orthogonalization.

  SCF Guess: Superposition of Atomic Densities via on-the-fly atomic UHF.

  ==> Iterations <==

                           Total Energy        Delta E     RMS |[F,P]|

   @DF-RKS iter SAD:  -548.38205110312890   -5.48382e+02   0.00000e+00 
   @DF-RKS iter   1:  -548.38905292200343   -7.00182e-03   2.36477e-02 DIIS
   @DF-RKS iter   2:  -548.30193988423434    8.71130e-02   3.02926e-02 DIIS
   @DF-RKS iter   3:  -548.56358491200172   -2.61645e-01   1.07041e-03 DIIS
   @DF-RKS iter   4:  -548.56394520888637   -3.60297e-04   2.55102e-04 DIIS
   @DF-RKS iter   5:  -548.56398998522548   -4.47763e-05   4.89791e-05 DIIS
   @DF-RKS iter   6:  -548.56399282137136   -2.83615e-06   1.29497e-05 DIIS
   @DF-RKS iter   7:  -548.56399307069273   -2.49321e-07   3.72566e-06 DIIS
   @DF-RKS iter   8:  -548.56399308367975   -1.29870e-08   7.51338e-07 DIIS
   @DF-RKS iter   9:  -548.56399308420237   -5.22618e-10   1.67103e-07 DIIS
   @DF-RKS iter  10:  -548.56399308423977   -3.74030e-11   4.01027e-08 DIIS
   @DF-RKS iter  11:  -548.56399308424147   -1.70530e-12   7.13527e-09 DIIS
  Energy and wave function converged.


  ==> Post-Iterations <==

    Orbital Energies [Eh]
    ---------------------

    Doubly Occupied:                                                      

       1A1   -89.379327     1B2   -19.393985     2A1   -19.393972  
       3A1    -8.281412     2B2    -6.190449     1B1    -6.190405  
       4A1    -6.185222     5A1    -1.272607     3B2    -1.177681  
       6A1    -0.745221     7A1    -0.597376     2B1    -0.597076  
       4B2    -0.591554     1A2    -0.461819     5B2    -0.451791  
       8A1    -0.421700  

    Virtual:                                                              

       3B1    -0.021640     9A1     0.163207     6B2     0.182494  
       4B1     0.495941    10A1     0.504051    11A1     0.530816  
       7B2     0.570348     5B1     0.600517    12A1     0.626653  
       2A2     0.634309    13A1     0.834232     8B2     0.870368  
       3A2     1.048128    14A1     1.054156     6B1     1.124458  
      15A1     1.131140     9B2     1.132255    10B2     1.268178  
      11B2     1.732776    16A1     1.873715     4A2     2.651033  
      12B2     2.653098     7B1     2.658689    17A1     2.673096  
      13B2     2.705506     8B1     2.789908     5A2     2.841479  
      18A1     2.959695    19A1     3.329500    14B2     3.423754  
       9B1     4.456752    20A1     4.484345     6A2     4.547644  
      15B2     4.690208    21A1     4.696186  

    Final Occupation by Irrep:
             A1    A2    B1    B2 
    DOCC [     8,    1,    2,    5 ]

  @DF-RKS Final Energy:  -548.56399308424147

   => Energetics <=

    Nuclear Repulsion Energy =            108.0022910124889108
    One-Electron Energy =                -970.1763308453358832
    Two-Electron Energy =                 345.8766653027267921
    DFT Exchange-Correlation Energy =     -32.3994200593496942
    Empirical Dispersion Energy =           0.0000000000000000
    VV10 Nonlocal Energy =                  0.1328015052284542
    Total Energy =                       -548.5639930842414742

Computation Completed


Properties will be evaluated at   0.000000,   0.000000,   0.000000 [a0]

Properties computed using the SCF density matrix

  Nuclear Dipole Moment: [e a0]
     X:     0.0000      Y:     0.0000      Z:    -0.0061

  Electronic Dipole Moment: [e a0]
     X:     0.0000      Y:     0.0000      Z:    -0.6906

  Dipole Moment: [e a0]
     X:     0.0000      Y:     0.0000      Z:    -0.6967     Total:     0.6967

  Dipole Moment: [D]
     X:     0.0000      Y:     0.0000      Z:    -1.7707     Total:     1.7707


*** tstop() called on bp1-compute00107.data.bp.acrc.priv at Tue Apr 27 18:13:39 2021
Module time:
	user time   =      60.79 seconds =       1.01 minutes
	system time =       1.67 seconds =       0.03 minutes
	total time  =          2 seconds =       0.03 minutes
Total time:
	user time   =     312.06 seconds =       5.20 minutes
	system time =      10.57 seconds =       0.18 minutes
	total time  =         13 seconds =       0.22 minutes

         ----------------------------------------------------------
                                   FINDIF
                     R. A. King and Jonathon Misiewicz
         ---------------------------------------------------------

  Computing gradient from energies.
    Using 3-point formula.
    Energy without displacement: -548.5639845815
    Check energies below for precision!
    Forces are for mass-weighted, symmetry-adapted cartesians (in au).

     Coord      Energy(-1)        Energy(+1)            Force
        0   -548.5639919008   -548.5639764986      0.0015402165
        1   -548.5639751572   -548.5639930842     -0.0017927049


-------------------------------------------------------------
  ## New Matrix (Symmetry 0) ##
  Irrep: 1 Size: 3 x 3

                 1                   2                   3

    1     0.00000000000000     0.00000000000000     0.00615903154909
    2     0.00000000000000    -0.00506972941052    -0.00307951577454
    3     0.00000000000000     0.00506972941052    -0.00307951577454




			-----------------------------------------
			 OPTKING 2.0: for geometry optimizations 
			  - R.A. King,  Bethel University        
			-----------------------------------------
	At level 1: Red. Int., RFO, no backsteps, dynamic trust

	Internal coordinates to be generated automatically.
	Detected frag 1 with atoms:  1 2 3
	---Fragment 1 Bond Connectivity---
	 1 : 2 3
	 2 : 1
	 3 : 1

	---Fragment 1 Geometry and Gradient---
	 S          -0.0000000000        0.0000000000       -0.6846617379
	 O          -0.0000000000        2.3419721082        0.6842816713
	 O           0.0000000000       -2.3419721082        0.6842816713
	             0.0000000000        0.0000000000        0.0061590315
	             0.0000000000       -0.0050697294       -0.0030795158
	             0.0000000000        0.0050697294       -0.0030795158

	Previous optimization step data not found.  Starting new optimization.

	---Fragment 1 Intrafragment Coordinates---
	 - Coordinate -           - BOHR/RAD -       - ANG/DEG -
	 R(1,2)           =         2.712718	       1.435509
	 R(1,3)           =         2.712718	       1.435509
	 B(2,1,3)         =         2.083665	     119.385214

	Current energy   :      -548.5639845815

	Generating empirical Hessian (Schlegel '84) for each fragment.
	Taking RFO optimization step.
	Going to follow RFO solution 1.
	Using RFO vector 1.
	Norm of target step-size    0.00824
	Projected energy change by RFO approximation:        -0.0000608358

	Back-transformation to cartesian coordinates...
	Successfully converged to displaced geometry.

	--- Internal Coordinate Step in ANG or DEG, aJ/ANG or AJ/DEG ---
	 ---------------------------------------------------------------------------
	   Coordinate                Previous        Force       Change         New 
	   ----------                --------       ------       ------       ------
	    1 R(1,2)          =      1.435509     0.048863     0.003055     1.438564
	    2 R(1,3)          =      1.435509     0.048863     0.003055     1.438564
	    3 B(2,1,3)        =    119.385214    -0.000021    -0.062313   119.322901
	 ---------------------------------------------------------------------------
	Successfully symmetrized geometry.

  ==> Convergence Check <==

  Measures of convergence in internal coordinates in au.
  Criteria marked as inactive (o), active & met (*), and active & unmet ( ).
  --------------------------------------------------------------------------------------------- ~
   Step     Total Energy     Delta E     MAX Force     RMS Force      MAX Disp      RMS Disp    ~
  --------------------------------------------------------------------------------------------- ~
    Convergence Criteria    1.00e-06 *    3.00e-04 *             o    1.20e-03 *             o  ~
  --------------------------------------------------------------------------------------------- ~
      1    -548.56398458   -5.49e+02      5.93e-03      4.85e-03 o    5.77e-03      4.76e-03 o  ~
  ---------------------------------------------------------------------------------------------

	Writing optimization data to binary file.
	Structure for next step:
	Cartesian Geometry (in Angstrom)
	    S     0.0000000000   0.0000000000  -0.3637854747
	    O    -0.0000000000   1.2415611474   0.3628453084
	    O     0.0000000000  -1.2415611474   0.3628453084
			--------------------------
			 OPTKING Finished Execution 
			--------------------------

    Structure for next step:
    Molecular point group: c2v
    Full point group: C2v

    Geometry (in Angstrom), charge = 0, multiplicity = 1:

    S           -0.000000000000     0.000000000000    -0.363416262089
    O           -0.000000000000     1.241561152281     0.363214523922
    O            0.000000000000    -1.241561152281     0.363214523922

gradient() will perform gradient computation by finite difference of analytic energies.

         ----------------------------------------------------------
                                   FINDIF
                     R. A. King and Jonathon Misiewicz
         ---------------------------------------------------------

  Using finite-differences of energies to determine gradients.
    Generating geometries for use with 3-point formula.
    Displacement size will be 5.00e-03.
    Number of atoms is 3.
    Number of symmetric SALCs is 2.
    Translations projected? 1. Rotations projected? 1.
    Number of geometries (including reference) is 5.

  //>>>>>>>>>>>>>>>>>>>>>>>>>>>>>>>>>>>//
  //    Loading displacement 1 of 5    //
  //<<<<<<<<<<<<<<<<<<<<<<<<<<<<<<<<<<<//

*** tstart() called on bp1-compute00107.data.bp.acrc.priv
*** at Tue Apr 27 18:13:39 2021

   => Loading Basis Set <=

    Name: CC-PV(D+D)Z
    Role: ORBITAL
    Keyword: BASIS
    atoms 1   entry S          line   613 file /work/zw18965/.conda/envs/p4env/share/psi4/basis/cc-pv_dpd_z.gbs 
    atoms 2-3 entry O          line   207 file /work/zw18965/.conda/envs/p4env/share/psi4/basis/cc-pv_dpd_z.gbs 


         ---------------------------------------------------------
                                   SCF
               by Justin Turney, Rob Parrish, Andy Simmonett
                          and Daniel G. A. Smith
                              RKS Reference
                       24 Threads, 137329 MiB Core
         ---------------------------------------------------------

  ==> Geometry <==

    Molecular point group: c2v
    Full point group: C2v

    Geometry (in Angstrom), charge = 0, multiplicity = 1:

       Center              X                  Y                   Z               Mass       
    ------------   -----------------  -----------------  -----------------  -----------------
         S           -0.000000000000     0.000000000000    -0.363416262089    31.972071174400
         O           -0.000000000000     1.241561152281     0.363214523922    15.994914619570
         O            0.000000000000    -1.241561152281     0.363214523922    15.994914619570

  Running in c2v symmetry.

  Rotational constants: A =      1.99668  B =      0.34186  C =      0.29189 [cm^-1]
  Rotational constants: A =  59858.83731  B =  10248.70628  C =   8750.49404 [MHz]
  Nuclear repulsion =  107.808871213147327

  Charge       = 0
  Multiplicity = 1
  Electrons    = 32
  Nalpha       = 16
  Nbeta        = 16

  ==> Algorithm <==

  SCF Algorithm Type is DF.
  DIIS enabled.
  MOM disabled.
  Fractional occupation disabled.
  Guess Type is READ.
  Energy threshold   = 1.00e-08
  Density threshold  = 1.00e-08
  Integral threshold = 0.00e+00

  ==> Primary Basis <==

  Basis Set: CC-PV(D+D)Z
    Blend: CC-PV(D+D)Z
    Number of shells: 21
    Number of basis function: 51
    Number of Cartesian functions: 55
    Spherical Harmonics?: true
    Max angular momentum: 2

  ==> DFT Potential <==

   => Composite Functional: WB97M-V <= 

    wB97M-V Hyb-GGA Exchange-Correlation Functional

    N. Mardirossian and M. Head-Gordon, J. Chem. Phys. 144, 214110 (2016)

    Deriv               =              1
    GGA                 =           TRUE
    Meta                =           TRUE

    Exchange Hybrid     =           TRUE
    MP2 Hybrid          =          FALSE

   => Exchange-Correlation Functionals <=

    1.0000   wB97M-V exchange-correlation functional

   => Exact (HF) Exchange <=

    0.8500            HF,LR [omega = 0.3000]
    0.1500               HF 

   => VV10 Non-Local Parameters <=

    VV10 B              =     6.0000E+00
    VV10 C              =     1.0000E-02

   => Molecular Quadrature <=

    Radial Scheme          =       TREUTLER
    Pruning Scheme         =           FLAT
    Nuclear Scheme         =       TREUTLER

    BS radius alpha        =              1
    Pruning alpha          =              1
    Radial Points          =             75
    Spherical Points       =            302
    Total Points           =          64327
    Total Blocks           =            556
    Max Points             =            255
    Max Functions          =             51

   => Loading Basis Set <=

    Name: (CC-PV(D+D)Z AUX)
    Role: JKFIT
    Keyword: DF_BASIS_SCF
    atoms 1   entry S          line   593 file /work/zw18965/.conda/envs/p4env/share/psi4/basis/cc-pvdz-jkfit.gbs 
    atoms 2-3 entry O          line   221 file /work/zw18965/.conda/envs/p4env/share/psi4/basis/cc-pvdz-jkfit.gbs 

   => Loading Basis Set <=

    Name: CC-PV(D+D)Z
    Role: ORBITAL
    Keyword: BASIS
    atoms 1   entry S          line   613 file /work/zw18965/.conda/envs/p4env/share/psi4/basis/cc-pv_dpd_z.gbs 
    atoms 2-3 entry O          line   207 file /work/zw18965/.conda/envs/p4env/share/psi4/basis/cc-pv_dpd_z.gbs 

  Reading orbitals from file 180, no projection.

  ==> Pre-Iterations <==

   -------------------------------------------------------
    Irrep   Nso     Nmo     Nalpha   Nbeta   Ndocc  Nsocc
   -------------------------------------------------------
     A1        21      21       0       0       0       0
     A2         6       6       0       0       0       0
     B1         9       9       0       0       0       0
     B2        15      15       0       0       0       0
   -------------------------------------------------------
    Total      51      51      16      16      16       0
   -------------------------------------------------------

  ==> Integral Setup <==

  ==> DiskDFJK: Density-Fitted J/K Matrices <==

    J tasked:                  Yes
    K tasked:                  Yes
    wK tasked:                 Yes
    Omega:               3.000E-01
    OpenMP threads:             24
    Integrals threads:          24
    Memory [MiB]:           102774
    Algorithm:                Core
    Integral Cache:           NONE
    Schwarz Cutoff:          1E-12
    Fitting Condition:       1E-10

   => Auxiliary Basis Set <=

  Basis Set: (CC-PV(D+D)Z AUX)
    Blend: CC-PVDZ-JKFIT
    Number of shells: 84
    Number of basis function: 252
    Number of Cartesian functions: 292
    Spherical Harmonics?: true
    Max angular momentum: 3

  Cached 100.0% of DFT collocation blocks in 0.217 [GiB].

  Minimum eigenvalue in the overlap matrix is 2.0428887508E-02.
  Using Symmetric Orthogonalization.

  SCF Guess: Orbitals guess was supplied from a previous computation.

  ==> Iterations <==

                           Total Energy        Delta E     RMS |[F,P]|

   @DF-RKS iter   0:  -548.55786932439923   -5.48558e+02   6.44362e-04 
   @DF-RKS iter   1:  -548.56402608942165   -6.15677e-03   9.47186e-05 DIIS
   @DF-RKS iter   2:  -548.56402850069890   -2.41128e-06   5.87576e-05 DIIS
   @DF-RKS iter   3:  -548.56402927720069   -7.76502e-07   1.83511e-05 DIIS
   @DF-RKS iter   4:  -548.56402938332258   -1.06122e-07   4.98119e-06 DIIS
   @DF-RKS iter   5:  -548.56402939705174   -1.37292e-08   6.42374e-07 DIIS
   @DF-RKS iter   6:  -548.56402939762074   -5.69003e-10   1.87883e-07 DIIS
   @DF-RKS iter   7:  -548.56402939767304   -5.22959e-11   4.84549e-08 DIIS
   @DF-RKS iter   8:  -548.56402939767543   -2.38742e-12   4.66926e-09 DIIS
  Energy and wave function converged.


  ==> Post-Iterations <==

    Orbital Energies [Eh]
    ---------------------

    Doubly Occupied:                                                      

       1A1   -89.379884     1B2   -19.394284     2A1   -19.394271  
       3A1    -8.281856     2B2    -6.190886     1B1    -6.190859  
       4A1    -6.185684     5A1    -1.271219     3B2    -1.176602  
       6A1    -0.745937     7A1    -0.596742     2B1    -0.596311  
       4B2    -0.591313     1A2    -0.461211     5B2    -0.451355  
       8A1    -0.421841  

    Virtual:                                                              

       3B1    -0.022630     9A1     0.162199     6B2     0.181205  
       4B1     0.495916    10A1     0.503777    11A1     0.530148  
       7B2     0.569618     5B1     0.600080    12A1     0.626250  
       2A2     0.633034    13A1     0.833096     8B2     0.869693  
       3A2     1.048510    14A1     1.054370     6B1     1.124346  
      15A1     1.129355     9B2     1.132120    10B2     1.265202  
      11B2     1.731962    16A1     1.873831     4A2     2.651491  
      12B2     2.653496     7B1     2.659004    17A1     2.673205  
      13B2     2.704688     8B1     2.788617     5A2     2.839328  
      18A1     2.956853    19A1     3.326127    14B2     3.420522  
       9B1     4.456282    20A1     4.484011     6A2     4.546659  
      15B2     4.690081    21A1     4.694734  

    Final Occupation by Irrep:
             A1    A2    B1    B2 
    DOCC [     8,    1,    2,    5 ]

  @DF-RKS Final Energy:  -548.56402939767543

   => Energetics <=

    Nuclear Repulsion Energy =            107.8088712131473272
    One-Electron Energy =                -969.7942132990610844
    Two-Electron Energy =                 345.6845279399366859
    DFT Exchange-Correlation Energy =     -32.3960234089610282
    Empirical Dispersion Energy =           0.0000000000000000
    VV10 Nonlocal Energy =                  0.1328081572626331
    Total Energy =                       -548.5640293976754265

Computation Completed


Properties will be evaluated at   0.000000,   0.000000,   0.000000 [a0]

Properties computed using the SCF density matrix

  Nuclear Dipole Moment: [e a0]
     X:     0.0000      Y:     0.0000      Z:    -0.0061

  Electronic Dipole Moment: [e a0]
     X:     0.0000      Y:     0.0000      Z:    -0.6956

  Dipole Moment: [e a0]
     X:     0.0000      Y:     0.0000      Z:    -0.7017     Total:     0.7017

  Dipole Moment: [D]
     X:     0.0000      Y:     0.0000      Z:    -1.7837     Total:     1.7837


*** tstop() called on bp1-compute00107.data.bp.acrc.priv at Tue Apr 27 18:13:41 2021
Module time:
	user time   =      43.49 seconds =       0.72 minutes
	system time =       1.15 seconds =       0.02 minutes
	total time  =          2 seconds =       0.03 minutes
Total time:
	user time   =     355.91 seconds =       5.93 minutes
	system time =      11.73 seconds =       0.20 minutes
	total time  =         15 seconds =       0.25 minutes

  //>>>>>>>>>>>>>>>>>>>>>>>>>>>>>>>>>>>//
  //    Loading displacement 2 of 5    //
  //<<<<<<<<<<<<<<<<<<<<<<<<<<<<<<<<<<<//

*** tstart() called on bp1-compute00107.data.bp.acrc.priv
*** at Tue Apr 27 18:13:41 2021

   => Loading Basis Set <=

    Name: CC-PV(D+D)Z
    Role: ORBITAL
    Keyword: BASIS
    atoms 1   entry S          line   613 file /work/zw18965/.conda/envs/p4env/share/psi4/basis/cc-pv_dpd_z.gbs 
    atoms 2-3 entry O          line   207 file /work/zw18965/.conda/envs/p4env/share/psi4/basis/cc-pv_dpd_z.gbs 


         ---------------------------------------------------------
                                   SCF
               by Justin Turney, Rob Parrish, Andy Simmonett
                          and Daniel G. A. Smith
                              RKS Reference
                       24 Threads, 137329 MiB Core
         ---------------------------------------------------------

  ==> Geometry <==

    Molecular point group: c2v
    Full point group: C2v

    Geometry (in Angstrom), charge = 0, multiplicity = 1:

       Center              X                  Y                   Z               Mass       
    ------------   -----------------  -----------------  -----------------  -----------------
         S           -0.000000000000     0.000000000000    -0.363747188198    31.972071174400
         O           -0.000000000000     1.241561152281     0.363545266329    15.994914619570
         O            0.000000000000    -1.241561152281     0.363545266329    15.994914619570

  Running in c2v symmetry.

  Rotational constants: A =      1.99304  B =      0.34186  C =      0.29181 [cm^-1]
  Rotational constants: A =  59749.97136  B =  10248.70628  C =   8748.16393 [MHz]
  Nuclear repulsion =  107.786990871402793

  Charge       = 0
  Multiplicity = 1
  Electrons    = 32
  Nalpha       = 16
  Nbeta        = 16

  ==> Algorithm <==

  SCF Algorithm Type is DF.
  DIIS enabled.
  MOM disabled.
  Fractional occupation disabled.
  Guess Type is READ.
  Energy threshold   = 1.00e-08
  Density threshold  = 1.00e-08
  Integral threshold = 0.00e+00

  ==> Primary Basis <==

  Basis Set: CC-PV(D+D)Z
    Blend: CC-PV(D+D)Z
    Number of shells: 21
    Number of basis function: 51
    Number of Cartesian functions: 55
    Spherical Harmonics?: true
    Max angular momentum: 2

  ==> DFT Potential <==

   => Composite Functional: WB97M-V <= 

    wB97M-V Hyb-GGA Exchange-Correlation Functional

    N. Mardirossian and M. Head-Gordon, J. Chem. Phys. 144, 214110 (2016)

    Deriv               =              1
    GGA                 =           TRUE
    Meta                =           TRUE

    Exchange Hybrid     =           TRUE
    MP2 Hybrid          =          FALSE

   => Exchange-Correlation Functionals <=

    1.0000   wB97M-V exchange-correlation functional

   => Exact (HF) Exchange <=

    0.8500            HF,LR [omega = 0.3000]
    0.1500               HF 

   => VV10 Non-Local Parameters <=

    VV10 B              =     6.0000E+00
    VV10 C              =     1.0000E-02

   => Molecular Quadrature <=

    Radial Scheme          =       TREUTLER
    Pruning Scheme         =           FLAT
    Nuclear Scheme         =       TREUTLER

    BS radius alpha        =              1
    Pruning alpha          =              1
    Radial Points          =             75
    Spherical Points       =            302
    Total Points           =          64327
    Total Blocks           =            556
    Max Points             =            255
    Max Functions          =             51

   => Loading Basis Set <=

    Name: (CC-PV(D+D)Z AUX)
    Role: JKFIT
    Keyword: DF_BASIS_SCF
    atoms 1   entry S          line   593 file /work/zw18965/.conda/envs/p4env/share/psi4/basis/cc-pvdz-jkfit.gbs 
    atoms 2-3 entry O          line   221 file /work/zw18965/.conda/envs/p4env/share/psi4/basis/cc-pvdz-jkfit.gbs 

   => Loading Basis Set <=

    Name: CC-PV(D+D)Z
    Role: ORBITAL
    Keyword: BASIS
    atoms 1   entry S          line   613 file /work/zw18965/.conda/envs/p4env/share/psi4/basis/cc-pv_dpd_z.gbs 
    atoms 2-3 entry O          line   207 file /work/zw18965/.conda/envs/p4env/share/psi4/basis/cc-pv_dpd_z.gbs 

  Reading orbitals from file 180, no projection.

  ==> Pre-Iterations <==

   -------------------------------------------------------
    Irrep   Nso     Nmo     Nalpha   Nbeta   Ndocc  Nsocc
   -------------------------------------------------------
     A1        21      21       0       0       0       0
     A2         6       6       0       0       0       0
     B1         9       9       0       0       0       0
     B2        15      15       0       0       0       0
   -------------------------------------------------------
    Total      51      51      16      16      16       0
   -------------------------------------------------------

  ==> Integral Setup <==

  ==> DiskDFJK: Density-Fitted J/K Matrices <==

    J tasked:                  Yes
    K tasked:                  Yes
    wK tasked:                 Yes
    Omega:               3.000E-01
    OpenMP threads:             24
    Integrals threads:          24
    Memory [MiB]:           102774
    Algorithm:                Core
    Integral Cache:           NONE
    Schwarz Cutoff:          1E-12
    Fitting Condition:       1E-10

   => Auxiliary Basis Set <=

  Basis Set: (CC-PV(D+D)Z AUX)
    Blend: CC-PVDZ-JKFIT
    Number of shells: 84
    Number of basis function: 252
    Number of Cartesian functions: 292
    Spherical Harmonics?: true
    Max angular momentum: 3

  Cached 100.0% of DFT collocation blocks in 0.217 [GiB].

  Minimum eigenvalue in the overlap matrix is 2.0433939701E-02.
  Using Symmetric Orthogonalization.

  SCF Guess: Orbitals guess was supplied from a previous computation.

  ==> Iterations <==

                           Total Energy        Delta E     RMS |[F,P]|

   @DF-RKS iter   0:  -548.56337849113947   -5.48563e+02   7.41717e-05 
   @DF-RKS iter   1:  -548.56403136444897   -6.52873e-04   1.43416e-05 DIIS
   @DF-RKS iter   2:  -548.56403140931980   -4.48708e-08   1.26194e-05 DIIS
   @DF-RKS iter   3:  -548.56403144970750   -4.03877e-08   2.89488e-06 DIIS
   @DF-RKS iter   4:  -548.56403145280217   -3.09467e-09   8.26089e-07 DIIS
   @DF-RKS iter   5:  -548.56403145338800   -5.85828e-10   1.32747e-07 DIIS
   @DF-RKS iter   6:  -548.56403145340562   -1.76215e-11   3.46782e-08 DIIS
   @DF-RKS iter   7:  -548.56403145340755   -1.93268e-12   8.00690e-09 DIIS
  Energy and wave function converged.


  ==> Post-Iterations <==

    Orbital Energies [Eh]
    ---------------------

    Doubly Occupied:                                                      

       1A1   -89.379953     1B2   -19.394293     2A1   -19.394281  
       3A1    -8.281916     2B2    -6.190945     1B1    -6.190921  
       4A1    -6.185747     5A1    -1.271048     3B2    -1.176425  
       6A1    -0.746035     7A1    -0.596662     2B1    -0.596211  
       4B2    -0.591258     1A2    -0.461101     5B2    -0.451244  
       8A1    -0.421894  

    Virtual:                                                              

       3B1    -0.022769     9A1     0.162168     6B2     0.180917  
       4B1     0.495903    10A1     0.503727    11A1     0.530106  
       7B2     0.569491     5B1     0.600066    12A1     0.626309  
       2A2     0.632833    13A1     0.832884     8B2     0.869644  
       3A2     1.048614    14A1     1.054297     6B1     1.124302  
      15A1     1.129020     9B2     1.132243    10B2     1.264996  
      11B2     1.731763    16A1     1.873911     4A2     2.651573  
      12B2     2.653587     7B1     2.659061    17A1     2.673244  
      13B2     2.704481     8B1     2.788570     5A2     2.838983  
      18A1     2.956643    19A1     3.325646    14B2     3.420139  
       9B1     4.456286    20A1     4.484084     6A2     4.546449  
      15B2     4.690081    21A1     4.694394  

    Final Occupation by Irrep:
             A1    A2    B1    B2 
    DOCC [     8,    1,    2,    5 ]

  @DF-RKS Final Energy:  -548.56403145340755

   => Energetics <=

    Nuclear Repulsion Energy =            107.7869908714027929
    One-Electron Energy =                -969.7513345684729984
    Two-Electron Energy =                 345.6631198917268648
    DFT Exchange-Correlation Energy =     -32.3956163405124755
    Empirical Dispersion Energy =           0.0000000000000000
    VV10 Nonlocal Energy =                  0.1328086924483295
    Total Energy =                       -548.5640314534075515

Computation Completed


Properties will be evaluated at   0.000000,   0.000000,   0.000000 [a0]

Properties computed using the SCF density matrix

  Nuclear Dipole Moment: [e a0]
     X:     0.0000      Y:     0.0000      Z:    -0.0061

  Electronic Dipole Moment: [e a0]
     X:     0.0000      Y:     0.0000      Z:    -0.6970

  Dipole Moment: [e a0]
     X:     0.0000      Y:     0.0000      Z:    -0.7031     Total:     0.7031

  Dipole Moment: [D]
     X:     0.0000      Y:     0.0000      Z:    -1.7872     Total:     1.7872


*** tstop() called on bp1-compute00107.data.bp.acrc.priv at Tue Apr 27 18:13:43 2021
Module time:
	user time   =      44.27 seconds =       0.74 minutes
	system time =       1.36 seconds =       0.02 minutes
	total time  =          2 seconds =       0.03 minutes
Total time:
	user time   =     400.30 seconds =       6.67 minutes
	system time =      13.10 seconds =       0.22 minutes
	total time  =         17 seconds =       0.28 minutes

  //>>>>>>>>>>>>>>>>>>>>>>>>>>>>>>>>>>>//
  //    Loading displacement 3 of 5    //
  //<<<<<<<<<<<<<<<<<<<<<<<<<<<<<<<<<<<//

*** tstart() called on bp1-compute00107.data.bp.acrc.priv
*** at Tue Apr 27 18:13:43 2021

   => Loading Basis Set <=

    Name: CC-PV(D+D)Z
    Role: ORBITAL
    Keyword: BASIS
    atoms 1   entry S          line   613 file /work/zw18965/.conda/envs/p4env/share/psi4/basis/cc-pv_dpd_z.gbs 
    atoms 2-3 entry O          line   207 file /work/zw18965/.conda/envs/p4env/share/psi4/basis/cc-pv_dpd_z.gbs 


         ---------------------------------------------------------
                                   SCF
               by Justin Turney, Rob Parrish, Andy Simmonett
                          and Daniel G. A. Smith
                              RKS Reference
                       24 Threads, 137329 MiB Core
         ---------------------------------------------------------

  ==> Geometry <==

    Molecular point group: c2v
    Full point group: C2v

    Geometry (in Angstrom), charge = 0, multiplicity = 1:

       Center              X                  Y                   Z               Mass       
    ------------   -----------------  -----------------  -----------------  -----------------
         S           -0.000000000000     0.000000000000    -0.363085335980    31.972071174400
         O           -0.000000000000     1.241561152281     0.362883781515    15.994914619570
         O            0.000000000000    -1.241561152281     0.362883781515    15.994914619570

  Running in c2v symmetry.

  Rotational constants: A =      2.00032  B =      0.34186  C =      0.29196 [cm^-1]
  Rotational constants: A =  59968.00107  B =  10248.70628  C =   8752.82326 [MHz]
  Nuclear repulsion =  107.830746881242121

  Charge       = 0
  Multiplicity = 1
  Electrons    = 32
  Nalpha       = 16
  Nbeta        = 16

  ==> Algorithm <==

  SCF Algorithm Type is DF.
  DIIS enabled.
  MOM disabled.
  Fractional occupation disabled.
  Guess Type is READ.
  Energy threshold   = 1.00e-08
  Density threshold  = 1.00e-08
  Integral threshold = 0.00e+00

  ==> Primary Basis <==

  Basis Set: CC-PV(D+D)Z
    Blend: CC-PV(D+D)Z
    Number of shells: 21
    Number of basis function: 51
    Number of Cartesian functions: 55
    Spherical Harmonics?: true
    Max angular momentum: 2

  ==> DFT Potential <==

   => Composite Functional: WB97M-V <= 

    wB97M-V Hyb-GGA Exchange-Correlation Functional

    N. Mardirossian and M. Head-Gordon, J. Chem. Phys. 144, 214110 (2016)

    Deriv               =              1
    GGA                 =           TRUE
    Meta                =           TRUE

    Exchange Hybrid     =           TRUE
    MP2 Hybrid          =          FALSE

   => Exchange-Correlation Functionals <=

    1.0000   wB97M-V exchange-correlation functional

   => Exact (HF) Exchange <=

    0.8500            HF,LR [omega = 0.3000]
    0.1500               HF 

   => VV10 Non-Local Parameters <=

    VV10 B              =     6.0000E+00
    VV10 C              =     1.0000E-02

   => Molecular Quadrature <=

    Radial Scheme          =       TREUTLER
    Pruning Scheme         =           FLAT
    Nuclear Scheme         =       TREUTLER

    BS radius alpha        =              1
    Pruning alpha          =              1
    Radial Points          =             75
    Spherical Points       =            302
    Total Points           =          64327
    Total Blocks           =            556
    Max Points             =            255
    Max Functions          =             51

   => Loading Basis Set <=

    Name: (CC-PV(D+D)Z AUX)
    Role: JKFIT
    Keyword: DF_BASIS_SCF
    atoms 1   entry S          line   593 file /work/zw18965/.conda/envs/p4env/share/psi4/basis/cc-pvdz-jkfit.gbs 
    atoms 2-3 entry O          line   221 file /work/zw18965/.conda/envs/p4env/share/psi4/basis/cc-pvdz-jkfit.gbs 

   => Loading Basis Set <=

    Name: CC-PV(D+D)Z
    Role: ORBITAL
    Keyword: BASIS
    atoms 1   entry S          line   613 file /work/zw18965/.conda/envs/p4env/share/psi4/basis/cc-pv_dpd_z.gbs 
    atoms 2-3 entry O          line   207 file /work/zw18965/.conda/envs/p4env/share/psi4/basis/cc-pv_dpd_z.gbs 

  Reading orbitals from file 180, no projection.

  ==> Pre-Iterations <==

   -------------------------------------------------------
    Irrep   Nso     Nmo     Nalpha   Nbeta   Ndocc  Nsocc
   -------------------------------------------------------
     A1        21      21       0       0       0       0
     A2         6       6       0       0       0       0
     B1         9       9       0       0       0       0
     B2        15      15       0       0       0       0
   -------------------------------------------------------
    Total      51      51      16      16      16       0
   -------------------------------------------------------

  ==> Integral Setup <==

  ==> DiskDFJK: Density-Fitted J/K Matrices <==

    J tasked:                  Yes
    K tasked:                  Yes
    wK tasked:                 Yes
    Omega:               3.000E-01
    OpenMP threads:             24
    Integrals threads:          24
    Memory [MiB]:           102774
    Algorithm:                Core
    Integral Cache:           NONE
    Schwarz Cutoff:          1E-12
    Fitting Condition:       1E-10

   => Auxiliary Basis Set <=

  Basis Set: (CC-PV(D+D)Z AUX)
    Blend: CC-PVDZ-JKFIT
    Number of shells: 84
    Number of basis function: 252
    Number of Cartesian functions: 292
    Spherical Harmonics?: true
    Max angular momentum: 3

  Cached 100.0% of DFT collocation blocks in 0.217 [GiB].

[...]
    Virtual:                                                              

       3B1    -0.023140     9A1     0.161964     6B2     0.180261  
       4B1     0.495879    10A1     0.503604    11A1     0.529938  
       7B2     0.569178     5B1     0.599977    12A1     0.626343  
       2A2     0.632319    13A1     0.832368     8B2     0.869461  
       3A2     1.048836    14A1     1.054212     6B1     1.124216  
      15A1     1.128228     9B2     1.132416    10B2     1.264222  
      11B2     1.731323    16A1     1.874053     4A2     2.651772  
      12B2     2.653791     7B1     2.659201    17A1     2.673324  
      13B2     2.704030     8B1     2.788301     5A2     2.838110  
      18A1     2.955878    19A1     3.324358    14B2     3.419030  
       9B1     4.456221    20A1     4.484150     6A2     4.545962  
      15B2     4.690067    21A1     4.693632  

    Final Occupation by Irrep:
             A1    A2    B1    B2 
    DOCC [     8,    1,    2,    5 ]

  @DF-RKS Final Energy:  -548.56403370969542

   => Energetics <=

    Nuclear Repulsion Energy =            107.7227580305038686
    One-Electron Energy =                -969.6249888748807280
    Two-Electron Energy =                 345.5998399696961201
    DFT Exchange-Correlation Energy =     -32.3944533931806546
    Empirical Dispersion Energy =           0.0000000000000000
    VV10 Nonlocal Energy =                  0.1328105581658502
    Total Energy =                       -548.5640337096955363

Computation Completed


Properties will be evaluated at   0.000000,   0.000000,   0.000000 [a0]

Properties computed using the SCF density matrix

  Nuclear Dipole Moment: [e a0]
     X:     0.0000      Y:     0.0000      Z:    -0.0061

  Electronic Dipole Moment: [e a0]
     X:     0.0000      Y:     0.0000      Z:    -0.7000

  Dipole Moment: [e a0]
     X:     0.0000      Y:     0.0000      Z:    -0.7062     Total:     0.7062

  Dipole Moment: [D]
     X:     0.0000      Y:     0.0000      Z:    -1.7949     Total:     1.7949


*** tstop() called on bp1-compute00107.data.bp.acrc.priv at Tue Apr 27 18:14:31 2021
Module time:
	user time   =      68.32 seconds =       1.14 minutes
	system time =       1.77 seconds =       0.03 minutes
	total time  =          3 seconds =       0.05 minutes
Total time:
	user time   =    1523.81 seconds =      25.40 minutes
	system time =      43.62 seconds =       0.73 minutes
	total time  =         65 seconds =       1.08 minutes

  //>>>>>>>>>>>>>>>>>>>>>>>>>>>>>>>>>>>//
  //    Loading displacement 8 of 8    //
  //<<<<<<<<<<<<<<<<<<<<<<<<<<<<<<<<<<<//

*** tstart() called on bp1-compute00107.data.bp.acrc.priv
*** at Tue Apr 27 18:14:31 2021

   => Loading Basis Set <=

    Name: CC-PV(D+D)Z
    Role: ORBITAL
    Keyword: BASIS
    atoms 1   entry S          line   613 file /work/zw18965/.conda/envs/p4env/share/psi4/basis/cc-pv_dpd_z.gbs 
    atoms 2-3 entry O          line   207 file /work/zw18965/.conda/envs/p4env/share/psi4/basis/cc-pv_dpd_z.gbs 


         ---------------------------------------------------------
                                   SCF
               by Justin Turney, Rob Parrish, Andy Simmonett
                          and Daniel G. A. Smith
                              RKS Reference
                       24 Threads, 137329 MiB Core
         ---------------------------------------------------------

  ==> Geometry <==

    Molecular point group: cs
    Full point group: Cs

    Geometry (in Angstrom), charge = 0, multiplicity = 1:

       Center              X                  Y                   Z               Mass       
    ------------   -----------------  -----------------  -----------------  -----------------
         S            0.000000000000    -0.000305723352    -0.364113794928    31.972071174400
         O            0.000000000000     1.242603225372     0.364090733582    15.994914619570
         O            0.000000000000    -1.241992118093     0.363732605518    15.994914619570

  Running in cs symmetry.

  Rotational constants: A =      1.98903  B =      0.34145  C =      0.29143 [cm^-1]
  Rotational constants: A =  59629.74146  B =  10236.55534  C =   8736.73254 [MHz]
  Nuclear repulsion =  107.713141967149255

  Charge       = 0
  Multiplicity = 1
  Electrons    = 32
  Nalpha       = 16
  Nbeta        = 16

  ==> Algorithm <==

  SCF Algorithm Type is DF.
  DIIS enabled.
  MOM disabled.
  Fractional occupation disabled.
  Guess Type is SAD.
  Energy threshold   = 1.00e-10
  Density threshold  = 1.00e-10
  Integral threshold = 0.00e+00

  ==> Primary Basis <==

  Basis Set: CC-PV(D+D)Z
    Blend: CC-PV(D+D)Z
    Number of shells: 21
    Number of basis function: 51
    Number of Cartesian functions: 55
    Spherical Harmonics?: true
    Max angular momentum: 2

  ==> DFT Potential <==

   => Composite Functional: WB97M-V <= 

    wB97M-V Hyb-GGA Exchange-Correlation Functional

    N. Mardirossian and M. Head-Gordon, J. Chem. Phys. 144, 214110 (2016)

    Deriv               =              1
    GGA                 =           TRUE
    Meta                =           TRUE

    Exchange Hybrid     =           TRUE
    MP2 Hybrid          =          FALSE

   => Exchange-Correlation Functionals <=

    1.0000   wB97M-V exchange-correlation functional

   => Exact (HF) Exchange <=

    0.8500            HF,LR [omega = 0.3000]
    0.1500               HF 

   => VV10 Non-Local Parameters <=

    VV10 B              =     6.0000E+00
    VV10 C              =     1.0000E-02

   => Molecular Quadrature <=

    Radial Scheme          =       TREUTLER
    Pruning Scheme         =           FLAT
    Nuclear Scheme         =       TREUTLER

    BS radius alpha        =              1
    Pruning alpha          =              1
    Radial Points          =             75
    Spherical Points       =            302
    Total Points           =          64327
    Total Blocks           =            560
    Max Points             =            254
    Max Functions          =             51

   => Loading Basis Set <=

    Name: (CC-PV(D+D)Z AUX)
    Role: JKFIT
    Keyword: DF_BASIS_SCF
    atoms 1   entry S          line   593 file /work/zw18965/.conda/envs/p4env/share/psi4/basis/cc-pvdz-jkfit.gbs 
    atoms 2-3 entry O          line   221 file /work/zw18965/.conda/envs/p4env/share/psi4/basis/cc-pvdz-jkfit.gbs 

  ==> Pre-Iterations <==

   -------------------------------------------------------
    Irrep   Nso     Nmo     Nalpha   Nbeta   Ndocc  Nsocc
   -------------------------------------------------------
     A'        36      36       0       0       0       0
     A"        15      15       0       0       0       0
   -------------------------------------------------------
    Total      51      51      16      16      16       0
   -------------------------------------------------------

  ==> Integral Setup <==

  ==> DiskDFJK: Density-Fitted J/K Matrices <==

    J tasked:                  Yes
    K tasked:                  Yes
    wK tasked:                 Yes
    Omega:               3.000E-01
    OpenMP threads:             24
    Integrals threads:          24
    Memory [MiB]:           102774
    Algorithm:                Core
    Integral Cache:           NONE
    Schwarz Cutoff:          1E-12
    Fitting Condition:       1E-10

   => Auxiliary Basis Set <=

  Basis Set: (CC-PV(D+D)Z AUX)
    Blend: CC-PVDZ-JKFIT
    Number of shells: 84
    Number of basis function: 252
    Number of Cartesian functions: 292
    Spherical Harmonics?: true
    Max angular momentum: 3

  Cached 100.0% of DFT collocation blocks in 0.217 [GiB].

  Minimum eigenvalue in the overlap matrix is 2.0468319677E-02.
  Using Symmetric Orthogonalization.

  SCF Guess: Superposition of Atomic Densities via on-the-fly atomic UHF.

  ==> Iterations <==

                           Total Energy        Delta E     RMS |[F,P]|

   @DF-RKS iter SAD:  -548.36479757392385   -5.48365e+02   0.00000e+00 
   @DF-RKS iter   1:  -548.38813185872539   -2.33343e-02   1.69951e-02 DIIS
   @DF-RKS iter   2:  -548.29759049555162    9.05414e-02   2.18920e-02 DIIS
   @DF-RKS iter   3:  -548.56362382541556   -2.66033e-01   7.70344e-04 DIIS
   @DF-RKS iter   4:  -548.56398421602569   -3.60391e-04   1.88152e-04 DIIS
   @DF-RKS iter   5:  -548.56402732554034   -4.31095e-05   7.68847e-05 DIIS
   @DF-RKS iter   6:  -548.56402978527399   -2.45973e-06   6.99243e-05 DIIS
   @DF-RKS iter   7:  -548.56403300946704   -3.22419e-06   7.34057e-06 DIIS
   @DF-RKS iter   8:  -548.56403314013119   -1.30664e-07   1.72169e-06 DIIS
   @DF-RKS iter   9:  -548.56403314528848   -5.15729e-09   3.56721e-07 DIIS
   @DF-RKS iter  10:  -548.56403314551176   -2.23281e-10   8.54971e-08 DIIS
   @DF-RKS iter  11:  -548.56403314553131   -1.95541e-11   2.10625e-08 DIIS
   @DF-RKS iter  12:  -548.56403314553245   -1.13687e-12   3.36636e-09 DIIS
   @DF-RKS iter  13:  -548.56403314553245    0.00000e+00   9.89034e-10 DIIS
   @DF-RKS iter  14:  -548.56403314553222    2.27374e-13   1.60011e-10 DIIS
   @DF-RKS iter  15:  -548.56403314553211    1.13687e-13   6.06731e-11 DIIS
  Energy and wave function converged.


  ==> Post-Iterations <==

    Orbital Energies [Eh]
    ---------------------

    Doubly Occupied:                                                      

       1Ap   -89.380163     2Ap   -19.394493     3Ap   -19.394323  
       4Ap    -8.282082     5Ap    -6.191108     1App   -6.191090  
       6Ap    -6.185919     7Ap    -1.270524     8Ap    -1.176027  
       9Ap    -0.746305    10Ap    -0.596423     2App   -0.595923  
      11Ap    -0.591173     3App   -0.460880    12Ap    -0.451095  
      13Ap    -0.421936  

    Virtual:                                                              

       4App   -0.023139    14Ap     0.161757    15Ap     0.180464  
       5App    0.495897    16Ap     0.503628    17Ap     0.529841  
      18Ap     0.569225     6App    0.599887    19Ap     0.626126  
       7App    0.632365    20Ap     0.832466    21Ap     0.869374  
       8App    1.048742    22Ap     1.054406     9App    1.124268  
      23Ap     1.128388    24Ap     1.132157    25Ap     1.263837  
      26Ap     1.731484    27Ap     1.873934    10App    2.651733  
      28Ap     2.653724    11App    2.659180    29Ap     2.673281  
      30Ap     2.704207    12App    2.788051    13App    2.838196  
      31Ap     2.955532    32Ap     3.324364    33Ap     3.418893  
      14App    4.456089    34Ap     4.483928    15App    4.546097  
      35Ap     4.690038    36Ap     4.693896  

    Final Occupation by Irrep:
             Ap   App 
    DOCC [    13,    3 ]

  @DF-RKS Final Energy:  -548.56403314553211

   => Energetics <=

    Nuclear Repulsion Energy =            107.7131419671492552
    One-Electron Energy =                -969.6053253701771837
    Two-Electron Energy =                 345.5896682179894697
    DFT Exchange-Correlation Energy =     -32.3943292652129742
    Empirical Dispersion Energy =           0.0000000000000000
    VV10 Nonlocal Energy =                  0.1328113047194028
    Total Energy =                       -548.5640331455319938

Computation Completed


Properties will be evaluated at   0.000000,   0.000000,   0.000000 [a0]

Properties computed using the SCF density matrix

  Nuclear Dipole Moment: [e a0]
     X:     0.0000      Y:    -0.0000      Z:    -0.0061

  Electronic Dipole Moment: [e a0]
     X:     0.0000      Y:    -0.0023      Z:    -0.6987

  Dipole Moment: [e a0]
     X:     0.0000      Y:    -0.0023      Z:    -0.7049     Total:     0.7049

  Dipole Moment: [D]
     X:     0.0000      Y:    -0.0058      Z:    -1.7916     Total:     1.7916


*** tstop() called on bp1-compute00107.data.bp.acrc.priv at Tue Apr 27 18:14:34 2021
Module time:
	user time   =      70.71 seconds =       1.18 minutes
	system time =       1.77 seconds =       0.03 minutes
	total time  =          3 seconds =       0.05 minutes
Total time:
	user time   =    1594.66 seconds =      26.58 minutes
	system time =      45.39 seconds =       0.76 minutes
	total time  =         68 seconds =       1.13 minutes

         ----------------------------------------------------------
                                   FINDIF
                     R. A. King and Jonathon Misiewicz
         ---------------------------------------------------------

  Computing second-derivative from energies using projected, 
  symmetry-adapted, cartesian coordinates.

  8 energies passed in, including the reference geometry.
    Using 3-point formula.
    Energy without displacement: -548.5640340971
    Check energies below for precision!
    0: -1        :      -548.5640336876
    0: 1         :      -548.5640337556
    1: -1        :      -548.5640335635
    1: 1         :      -548.5640337339
    0: 1, 1: 1   :      -548.5640339478
    0: -1, 1: -1 :      -548.5640337097
    2: -1        :      -548.5640331455

-------------------------------------------------------------


  ==> Harmonic Vibrational Analysis <==

  non-mass-weighted Hessian:       Symmetric? True   Hermitian? True   Lin Dep Dim?  6 (0)
  projection of translations (True) and rotations (True) removed 6 degrees of freedom (6)
  total projector:                 Symmetric? True   Hermitian? True   Lin Dep Dim?  6 (6)
  mass-weighted Hessian:           Symmetric? True   Hermitian? True   Lin Dep Dim?  6 (0)
  pre-proj  low-frequency mode:    0.0000i [cm^-1]
  pre-proj  low-frequency mode:    0.0000i [cm^-1]
  pre-proj  low-frequency mode:    0.0000  [cm^-1]
  pre-proj  low-frequency mode:    0.0000  [cm^-1]
  pre-proj  low-frequency mode:    0.0000  [cm^-1]
  pre-proj  low-frequency mode:    0.0000  [cm^-1]
  pre-proj  all modes:['0.0000i' '0.0000i' '0.0000' '0.0000' '0.0000' '0.0000' '527.8228'
 '1209.5215' '1418.2831']
  projected mass-weighted Hessian: Symmetric? True   Hermitian? True   Lin Dep Dim?  6 (6)
  post-proj low-frequency mode:    0.0000i [cm^-1] (TR)
  post-proj low-frequency mode:    0.0000i [cm^-1] (TR)
  post-proj low-frequency mode:    0.0000  [cm^-1] (TR)
  post-proj low-frequency mode:    0.0000  [cm^-1] (TR)
  post-proj low-frequency mode:    0.0000  [cm^-1] (TR)
  post-proj low-frequency mode:    0.0000  [cm^-1] (TR)
  post-proj  all modes:['0.0000i' '0.0000i' '0.0000' '0.0000' '0.0000' '0.0000' '527.8228'
 '1209.5215' '1418.2831']

  Vibration                       7                   8                   9           
  Freq [cm^-1]                 527.8228           1209.5215           1418.2831       
  Irrep                           A1                  A1                  B2          
  Reduced mass [u]             18.6251             17.9459             20.3320        
  Force const [mDyne/A]         3.0572             15.4683             24.0966        
  Turning point v=0 [a0]        0.1107              0.0745              0.0646        
  RMS dev v=0 [a0 u^1/2]        0.3377              0.2231              0.2060        
  Char temp [K]                759.4194           1740.2322           2040.5935       
  ----------------------------------------------------------------------------------
      1   S                0.00 -0.00  0.41    0.00  0.00 -0.35    0.00  0.52  0.00   
      2   O                0.00  0.50 -0.41    0.00  0.56  0.35   -0.00 -0.52 -0.31   
      3   O               -0.00 -0.50 -0.41   -0.00 -0.56  0.35    0.00 -0.52  0.31   

  ==> Thermochemistry Components <==

  Entropy, S
    Electronic S            0.000 [cal/(mol K)]        0.000 [J/(mol K)]       0.00000000 [mEh/K] (multiplicity = 1)
    Translational S        38.386 [cal/(mol K)]      160.607 [J/(mol K)]       0.06117186 [mEh/K] (mol. weight = 63.9619 [u], P = 101325.00 [Pa])
    Rotational S           20.249 [cal/(mol K)]       84.723 [J/(mol K)]       0.03226933 [mEh/K] (symmetry no. = 2)
    Vibrational S           0.648 [cal/(mol K)]        2.713 [J/(mol K)]       0.00103340 [mEh/K]
  Total S                  59.284 [cal/(mol K)]      248.043 [J/(mol K)]       0.09447459 [mEh/K]
  Correction S              0.000 [cal/(mol K)]        0.000 [J/(mol K)]       0.00000000 [mEh/K]

  Constant volume heat capacity, Cv
    Electronic Cv           0.000 [cal/(mol K)]        0.000 [J/(mol K)]       0.00000000 [mEh/K]
    Translational Cv        2.981 [cal/(mol K)]       12.472 [J/(mol K)]       0.00475022 [mEh/K]
    Rotational Cv           2.981 [cal/(mol K)]       12.472 [J/(mol K)]       0.00475022 [mEh/K]
    Vibrational Cv          1.487 [cal/(mol K)]        6.220 [J/(mol K)]       0.00236897 [mEh/K]
  Total Cv                  7.448 [cal/(mol K)]       31.163 [J/(mol K)]       0.01186941 [mEh/K]
  Correction Cv             0.000 [cal/(mol K)]        0.000 [J/(mol K)]       0.00000000 [mEh/K]

  Constant pressure heat capacity, Cp
    Electronic Cp           0.000 [cal/(mol K)]        0.000 [J/(mol K)]       0.00000000 [mEh/K]
    Translational Cp        4.968 [cal/(mol K)]       20.786 [J/(mol K)]       0.00791703 [mEh/K]
    Rotational Cp           2.981 [cal/(mol K)]       12.472 [J/(mol K)]       0.00475022 [mEh/K]
    Vibrational Cp          1.487 [cal/(mol K)]        6.220 [J/(mol K)]       0.00236897 [mEh/K]
  Total Cp                  9.435 [cal/(mol K)]       39.478 [J/(mol K)]       0.01503622 [mEh/K]
  Correction Cp             0.000 [cal/(mol K)]        0.000 [J/(mol K)]       0.00000000 [mEh/K]

  ==> Thermochemistry Energy Analysis <==

  Raw electronic energy, E0
  Total E0, Electronic energy at well bottom at 0 [K]                 -548.56403410 [Eh]

  Zero-point energy, ZPE_vib = Sum_i nu_i / 2
    Electronic ZPE          0.000 [kcal/mol]        0.000 [kJ/mol]       0.00000000 [Eh]
    Translational ZPE       0.000 [kcal/mol]        0.000 [kJ/mol]       0.00000000 [Eh]
    Rotational ZPE          0.000 [kcal/mol]        0.000 [kJ/mol]       0.00000000 [Eh]
    Vibrational ZPE         4.511 [kcal/mol]       18.875 [kJ/mol]       0.00718905 [Eh]        1577.814 [cm^-1]
  Correction ZPE            4.511 [kcal/mol]       18.875 [kJ/mol]       0.00718905 [Eh]        1577.814 [cm^-1]
  Total ZPE, Electronic energy at 0 [K]                               -548.55684505 [Eh]

  Thermal Energy, E (includes ZPE)
    Electronic E            0.000 [kcal/mol]        0.000 [kJ/mol]       0.00000000 [Eh]
    Translational E         0.889 [kcal/mol]        3.718 [kJ/mol]       0.00141628 [Eh]
    Rotational E            0.889 [kcal/mol]        3.718 [kJ/mol]       0.00141628 [Eh]
    Vibrational E           4.654 [kcal/mol]       19.472 [kJ/mol]       0.00741640 [Eh]
  Correction E              6.431 [kcal/mol]       26.909 [kJ/mol]       0.01024895 [Eh]
  Total E, Electronic energy at  298.15 [K]                           -548.55378515 [Eh]

  Enthalpy, H_trans = E_trans + k_B * T
    Electronic H            0.000 [kcal/mol]        0.000 [kJ/mol]       0.00000000 [Eh]
    Translational H         1.481 [kcal/mol]        6.197 [kJ/mol]       0.00236046 [Eh]
    Rotational H            0.889 [kcal/mol]        3.718 [kJ/mol]       0.00141628 [Eh]
    Vibrational H           4.654 [kcal/mol]       19.472 [kJ/mol]       0.00741640 [Eh]
  Correction H              7.024 [kcal/mol]       29.388 [kJ/mol]       0.01119314 [Eh]
  Total H, Enthalpy at  298.15 [K]                                    -548.55284096 [Eh]

  Gibbs free energy, G = H - T * S
    Electronic G            0.000 [kcal/mol]        0.000 [kJ/mol]       0.00000000 [Eh]
    Translational G        -9.964 [kcal/mol]      -41.687 [kJ/mol]      -0.01587793 [Eh]
    Rotational G           -5.149 [kcal/mol]      -21.542 [kJ/mol]      -0.00820482 [Eh]
    Vibrational G           4.461 [kcal/mol]       18.663 [kJ/mol]       0.00710829 [Eh]
  Correction G            -10.652 [kcal/mol]      -44.566 [kJ/mol]      -0.01697446 [Eh]
  Total G, Free enthalpy at  298.15 [K]                               -548.58100856 [Eh]

    Psi4 stopped on: Tuesday, 27 April 2021 06:14PM
    Psi4 wall time for execution: 0:01:09.12

*** Psi4 exiting successfully. Buy a developer a beer!
